t=10000.0 ps
11148
    1COH    COH    1   1.171   1.573   5.582 -0.1597  0.4479  0.5695
    2COC    COC    2   1.204   1.425   5.782 -0.4448  0.3528  0.4444
    3COC    COC    3   1.094   1.125   5.636 -0.2391  0.0125  0.1903
    4COC    COC    4   0.840   1.019   5.438  0.1636  0.0274  0.0366
    5COC    COC    5   0.514   1.066   5.459 -0.1124 -0.0373  0.3697
    6COC    COC    6   0.520   1.140   5.793 -0.2450 -0.5180  0.2195
    7COC    COC    7   0.252   1.096   5.795 -0.0064  0.0901  0.0768
    8COC    COC    8   0.077   1.195   5.984 -0.0894 -0.1981 -0.1454
    9COC    COC    9  10.144   1.113   6.027  0.1497 -0.1377  0.2907
   10COC    COC   10   9.909   1.116   5.817  0.2172 -0.0663 -0.2731
   11COC    COC   11   9.733   1.316   5.689  0.4139  0.0810  0.0372
   12COC    COC   12   9.749   1.593   5.762  0.2244  0.0536 -0.0163
   13COC    COC   13   9.859   1.703   5.511 -0.2686  0.0640 -0.0079
   14COC    COC   14   9.750   1.944   5.531  0.0646  0.0982 -0.0341
   15COC    COC   15   9.544   1.993   5.318  0.1740 -0.0297 -0.1616
   16COC    COC   16   9.435   2.282   5.174 -0.1945 -0.0913  0.0552
   17COC    COC   17   9.578   2.291   4.899 -0.0363 -0.3458 -0.0839
   18COC    COC   18   9.839   2.123   4.850 -0.0805  0.0320  0.0309
   19COC    COC   19   9.933   2.015   5.107 -0.3364  0.2709 -0.0328
   20COC    COC   20   9.934   1.712   5.058  0.2664 -0.1355  0.2319
   21COC    COC   21   9.737   1.499   5.130  0.1482  0.4259  0.1635
   22COC    COC   22   9.651   1.264   4.946 -0.1546  0.1131 -0.1280
   23COC    COC   23   9.731   0.955   4.969  0.0762 -0.0664  0.3590
   24COC    COC   24   9.756   0.762   4.711  0.1224  0.1004  0.2130
   25COC    COC   25   9.602   0.789   4.424 -0.0395 -0.0138  0.3856
   26COC    COC   26   9.872   0.908   4.304  0.1016  0.2584 -0.2642
   27COC    COC   27  10.036   1.091   4.466 -0.2002 -0.0901  0.1900
   28COC    COC   28  10.274   1.236   4.410 -0.1386 -0.1526 -0.0120
   29COC    COC   29   0.143   1.212   4.631 -0.3843 -0.3913  0.0016
   30COC    COC   30   0.304   0.965   4.726 -0.0132 -0.0978  0.0370
   31COC    COC   31   0.574   1.054   4.622  0.1103 -0.2951  0.1641
   32COC    COC   32   0.569   1.278   4.433 -0.1839 -0.0098 -0.1847
   33COC    COC   33   0.569   1.599   4.560 -0.3918 -0.0133 -0.1410
   34COC    COC   34   0.316   1.624   4.487  0.1133 -0.0407  0.0003
   35COC    COC   35   0.174   1.868   4.365  0.3031  0.0699  0.1507
   36COC    COC   36   0.283   2.140   4.312  0.1879  0.0835 -0.0102
   37COC    COC   37   0.527   2.312   4.324 -0.2663  0.3832 -0.4815
   38COC    COC   38   0.866   2.268   4.355  0.6348  0.1473  0.0203
   39COC    COC   39   1.071   2.442   4.195 -0.1571  0.0849  0.4850
   40COC    COC   40   1.379   2.379   4.183  0.1461 -0.0842 -0.2839
   41COC    COC   41   1.642   2.426   4.279 -0.0102  0.1175  0.0694
   42COC    COC   42   1.791   2.353   4.518 -0.1227  0.0592  0.0862
   43COC    COC   43   1.686   2.121   4.744  0.3208  0.0885 -0.2020
   44COC    COC   44   1.808   2.111   4.998 -0.0812 -0.1780  0.3807
   45COC    COC   45   1.794   2.081   5.281  0.2183 -0.4057  0.0130
   46COH    COH   46   2.023   2.055   5.351 -0.3703  0.0245  0.4834
   47COH    COH   47   9.223   9.236   0.795  0.0466  0.0535  0.0715
   48COC    COC   48   9.284   8.992   0.685 -0.0677 -0.2024 -0.3107
   49COC    COC   49   9.549   9.025   0.821 -0.2736  0.1562 -0.3299
   50COC    COC   50   9.869   9.052   0.888  0.3390 -0.3989 -0.0674
   51COC    COC   51   9.988   9.312   0.754  0.3594 -0.4605 -0.4134
   52COC    COC   52  10.313   9.262   0.672  0.3049 -0.4036 -0.2517
   53COC    COC   53   0.217   9.138   0.628  0.4123  0.0700 -0.1871
   54COC    COC   54   0.268   8.851   0.569 -0.1410  0.0931  0.0171
   55COC    COC   55   0.494   8.731   0.725  0.0054  0.1946 -0.4986
   56COC    COC   56   0.539   8.515   0.955 -0.0154 -0.1687  0.2276
   57COC    COC   57   0.770   8.343   0.913  0.1411  0.2737 -0.1794
   58COC    COC   58   1.005   8.361   1.063  0.3602 -0.1360  0.1412
   59COC    COC   59   1.163   8.127   1.138  0.1620  0.0305 -0.2063
   60COC    COC   60   1.387   7.956   1.004  0.0104 -0.1374 -0.0695
   61COC    COC   61   1.342   7.638   1.096 -0.0512 -0.0128  0.0021
   62COC    COC   62   1.186   7.507   1.370 -0.1061 -0.3732  0.0784
   63COC    COC   63   1.131   7.802   1.522 -0.1550  0.4092 -0.1668
   64COC    COC   64   1.418   7.874   1.606  0.2468  0.1913  0.3996
   65COC    COC   65   1.621   7.973   1.417 -0.1524  0.3410  0.0404
   66COC    COC   66   1.814   7.764   1.331 -0.4195  0.2144  0.2236
   67COC    COC   67   1.761   7.528   1.560 -0.2141  0.3498 -0.1291
   68COC    COC   68   1.495   7.476   1.700  0.7722  0.3714 -0.0462
   69COC    COC   69   1.550   7.379   1.984 -0.2276  0.1580 -0.4316
   70COC    COC   70   1.498   7.066   2.075  0.3402  0.2034 -0.2156
   71COC    COC   71   1.689   6.917   2.247  0.0841  0.3435  0.2683
   72COC    COC   72   1.968   7.060   2.266  0.1232  0.4648 -0.3121
   73COC    COC   73   2.214   6.873   2.415 -0.3152  0.3419  0.1773
   74COC    COC   74   2.417   6.713   2.243  0.2019  0.2319 -0.2326
   75COC    COC   75   2.418   6.433   2.292 -0.0053  0.0991  0.2101
   76COC    COC   76   2.266   6.462   2.590  0.0675  0.0753 -0.0182
   77COC    COC   77   2.032   6.279   2.569 -0.2199 -0.2116 -0.0181
   78COC    COC   78   2.032   6.004   2.706 -0.2771  0.1454 -0.0477
   79COC    COC   79   1.948   5.879   3.012 -0.2041 -0.0498  0.1710
   80COC    COC   80   1.681   5.848   3.147  0.1139  0.1833  0.0249
   81COC    COC   81   1.564   5.851   3.435 -0.1869 -0.1629  0.1418
   82COC    COC   82   1.458   6.058   3.654 -0.0187 -0.0834  0.6325
   83COC    COC   83   1.645   5.958   3.860  0.3623 -0.1510 -0.3000
   84COC    COC   84   1.545   5.805   4.123  0.3460  0.1122  0.4873
   85COC    COC   85   1.678   5.577   4.267  0.4339 -0.2086  0.0277
   86COC    COC   86   1.868   5.401   4.085 -0.0591 -0.4046 -0.2706
   87COC    COC   87   2.153   5.359   4.064  0.0456 -0.0668 -0.0245
   88COC    COC   88   2.302   5.193   3.887 -0.0351  0.1180 -0.0266
   89COC    COC   89   2.326   5.302   3.554 -0.1551  0.0197  0.3486
   90COC    COC   90   2.449   5.361   3.265  0.0640 -0.3182 -0.0560
   91COC    COC   91   2.674   5.209   3.116  0.1613 -0.1683 -0.0611
   92COH    COH   92   2.599   5.113   2.875  0.0153 -0.1986  0.0083
   93COH    COH   93   4.598   7.539   2.940 -0.0032  0.0467 -0.1173
   94COC    COC   94   4.586   7.806   2.951 -0.3810  0.1369 -0.3728
   95COC    COC   95   4.547   7.944   3.222  0.1814 -0.1311  0.1439
   96COC    COC   96   4.736   8.133   3.393 -0.0399 -0.0988 -0.1797
   97COC    COC   97   5.008   8.147   3.249  0.0862 -0.3499 -0.0723
   98COC    COC   98   5.023   7.886   3.049 -0.2376 -0.3091 -0.2930
   99COC    COC   99   5.119   8.013   2.777  0.1865 -0.1449 -0.3973
  100COC    COC  100   5.327   8.225   2.705  0.4371 -0.4782 -0.0256
  101COC    COC  101   5.226   8.463   2.907  0.1343  0.0211 -0.5051
  102COC    COC  102   5.287   8.655   3.107 -0.0534  0.0208 -0.2138
  103COC    COC  103   5.283   8.960   3.113 -0.1641 -0.1970 -0.2070
  104COC    COC  104   5.263   9.090   2.884  0.4743  0.2105  0.4024
  105COC    COC  105   5.513   9.250   2.754  0.1401 -0.1227  0.1090
  106COC    COC  106   5.560   9.550   2.660 -0.0888 -0.0723 -0.2134
  107COC    COC  107   5.574   9.860   2.716 -0.0939  0.2414  0.1085
  108COC    COC  108   5.359   9.961   2.546  0.7076  0.0625 -0.0299
  109COC    COC  109   5.068   9.847   2.443  0.1114  0.0137 -0.0376
  110COC    COC  110   4.909   9.902   2.173  0.1738 -0.2354 -0.4778
  111COC    COC  111   4.961   9.888   1.882 -0.1511 -0.0841  0.0807
  112COC    COC  112   4.748   9.990   1.665  0.4708  0.2564 -0.1203
  113COC    COC  113   4.822  10.195   1.456  0.0975 -0.1881  0.2084
  114COC    COC  114   4.779   0.127   1.595 -0.2948  0.0828  0.2110
  115COC    COC  115   4.493   0.047   1.596  0.3983 -0.2621 -0.1498
  116COC    COC  116   4.271  10.318   1.790  0.1943  0.1341  0.5937
  117COC    COC  117   4.188  10.024   1.717 -0.0596  0.0281  0.1219
  118COC    COC  118   3.910   9.883   1.769 -0.3917 -0.0614  0.1205
  119COC    COC  119   4.057   9.673   1.955  0.3333  0.2287 -0.3379
  120COC    COC  120   4.122   9.874   2.186  0.5200 -0.1555  0.1455
  121COC    COC  121   4.350  10.102   2.099  0.2798 -0.0691 -0.0801
  122COC    COC  122   4.327   0.025   2.239  0.3702 -0.2531 -0.5624
  123COC    COC  123   4.322   0.040   2.538  0.0518  0.0101 -0.2580
  124COC    COC  124   4.498   0.233   2.726  0.2403 -0.1474 -0.0392
  125COC    COC  125   4.639   0.535   2.709  0.1809 -0.0298  0.0447
  126COC    COC  126   4.549   0.823   2.722  0.0477 -0.1928 -0.0630
  127COC    COC  127   4.541   0.899   3.031  0.2721 -0.0759  0.5167
  128COC    COC  128   4.540   0.652   3.233 -0.1366 -0.0165 -0.0196
  129COC    COC  129   4.571   0.594   3.532  0.2896  0.3480  0.0248
  130COC    COC  130   4.685   0.726   3.771  0.5984 -0.3407  0.0278
  131COC    COC  131   4.562   0.995   3.856 -0.2413 -0.0548 -0.1897
  132COC    COC  132   4.816   1.178   3.910 -0.0767  0.0330  0.2973
  133COC    COC  133   5.124   1.245   3.829  0.2234  0.3099 -0.1045
  134COC    COC  134   5.393   1.192   3.974 -0.2777 -0.0438  0.4304
  135COC    COC  135   5.563   1.006   3.770 -0.2578 -0.3098  0.0455
  136COC    COC  136   5.800   0.810   3.674  0.2034  0.3758 -0.0820
  137COC    COC  137   5.727   0.554   3.498 -0.2977 -0.3857 -0.1760
  138COH    COH  138   5.588   0.503   3.290  0.1612 -0.2546  0.3612
  139COH    COH  139   9.451   2.544   9.934 -0.1570  0.2093  0.5801
  140COC    COC  140   9.291   2.426  10.112 -0.4815  0.1908  0.1472
  141COC    COC  141   9.141   2.244   9.861  0.0951  0.0421  0.2710
  142COC    COC  142   8.972   2.366   9.643  0.0676 -0.1641  0.0650
  143COC    COC  143   8.813   2.188   9.449  0.0453  0.0988  0.0926
  144COC    COC  144   8.636   2.262   9.210 -0.0770  0.4643 -0.0931
  145COC    COC  145   8.800   2.237   8.946  0.0197 -0.1782 -0.0798
  146COC    COC  146   8.821   2.402   8.715  0.3558  0.3699  0.1947
  147COC    COC  147   9.022   2.449   8.487 -0.1380  0.1083 -0.2043
  148COC    COC  148   9.092   2.695   8.384 -0.0039  0.2609  0.4398
  149COC    COC  149   8.902   2.926   8.417  0.3295 -0.2784 -0.1811
  150COC    COC  150   8.707   3.005   8.166  0.1783 -0.1427 -0.2798
  151COC    COC  151   8.604   3.287   8.107 -0.1456 -0.2780 -0.0092
  152COC    COC  152   8.284   3.302   8.132 -0.0444 -0.0347  0.1298
  153COC    COC  153   8.134   3.423   8.363  0.3376 -0.2694  0.1488
  154COC    COC  154   7.880   3.282   8.460  0.3068 -0.1749  0.4142
  155COC    COC  155   7.613   3.441   8.538  0.0623  0.2167 -0.1063
  156COC    COC  156   7.667   3.769   8.604  0.2578 -0.3945  0.0530
  157COC    COC  157   7.641   4.052   8.398 -0.0055  0.3357 -0.3314
  158COC    COC  158   7.789   4.241   8.609  0.4492 -0.0591  0.2460
  159COC    COC  159   7.917   4.400   8.365  0.4072 -0.1027  0.1307
  160COC    COC  160   7.964   4.177   8.158  0.4268  0.0230  0.1983
  161COC    COC  161   7.703   4.263   8.000  0.2489  0.3107 -0.0800
  162COC    COC  162   7.626   4.307   7.701 -0.0682  0.2928 -0.0947
  163COC    COC  163   7.317   4.342   7.669 -0.0558  0.2389 -0.4888
  164COC    COC  164   7.196   4.529   7.877 -0.1487 -0.3175  0.1430
  165COC    COC  165   7.338   4.790   7.764 -0.2042  0.1208  0.0251
  166COC    COC  166   7.600   4.703   7.583  0.2949  0.3076  0.1128
  167COC    COC  167   7.863   4.835   7.558  0.1162  0.0566 -0.0451
  168COC    COC  168   8.079   4.908   7.783  0.1621 -0.0938 -0.1788
  169COC    COC  169   8.203   5.163   7.892 -0.0257  0.6628  0.0891
  170COC    COC  170   8.513   5.145   7.946  0.1161 -0.1749  0.0811
  171COC    COC  171   8.631   5.351   8.184 -0.1098  0.3057 -0.1869
  172COC    COC  172   8.426   5.548   8.092 -0.1136  0.1751 -0.4591
  173COC    COC  173   8.128   5.639   8.101 -0.1828  0.3552  0.2459
  174COC    COC  174   8.112   5.592   7.805 -0.0185 -0.2674  0.0499
  175COC    COC  175   8.374   5.510   7.624  0.4341 -0.1791 -0.0144
  176COC    COC  176   8.294   5.339   7.424  0.0874  0.0895  0.2600
  177COC    COC  177   8.534   5.211   7.237 -0.2641 -0.1019 -0.1685
  178COC    COC  178   8.755   5.440   7.146 -0.0349 -0.3406 -0.0212
  179COC    COC  179   8.769   5.396   6.817 -0.1342 -0.0063  0.0315
  180COC    COC  180   8.518   5.234   6.735  0.0480 -0.0763 -0.2100
  181COC    COC  181   8.496   4.935   6.753  0.1435  0.1057 -0.5768
  182COC    COC  182   8.736   4.804   6.647  0.0344  0.2084 -0.2080
  183COC    COC  183   8.748   4.783   6.380 -0.3683  0.4673 -0.0396
  184COH    COH  184   8.505   4.868   6.358 -0.3403 -0.6167  0.1340
  185COH    COH  185   5.049   4.981   1.128 -0.1460  0.1588 -0.2272
  186COC    COC  186   4.808   4.884   1.193 -0.0090  0.0993  0.0461
  187COC    COC  187   4.745   4.654   1.380 -0.2001 -0.2020  0.0867
  188COC    COC  188   4.443   4.586   1.339 -0.1851 -0.0101  0.3142
  189COC    COC  189   4.246   4.669   1.557 -0.1523  0.2243 -0.0114
  190COC    COC  190   4.170   4.640   1.831 -0.1807  0.0884  0.1306
  191COC    COC  191   3.936   4.526   2.033 -0.0113 -0.0066  0.0121
  192COC    COC  192   3.896   4.232   2.058  0.4649 -0.1637 -0.3340
  193COC    COC  193   4.013   3.958   2.027  0.2746 -0.1520  0.2307
  194COC    COC  194   3.835   3.732   2.013 -0.0539 -0.0156  0.3371
  195COC    COC  195   3.870   3.607   1.739  0.1596  0.2298 -0.1314
  196COC    COC  196   3.933   3.835   1.501  0.2640  0.1524 -0.2637
  197COC    COC  197   3.659   3.789   1.355  0.1446 -0.0920 -0.4822
  198COC    COC  198   3.500   3.604   1.513  0.2234 -0.7061  0.0958
  199COC    COC  199   3.461   3.273   1.467  0.1931  0.1597  0.1211
  200COC    COC  200   3.722   3.050   1.494  0.2785  0.0422  0.2408
  201COC    COC  201   4.058   3.000   1.465  0.3200 -0.4050 -0.5049
  202COC    COC  202   4.120   3.237   1.653 -0.4827 -0.1846  0.0201
  203COC    COC  203   4.241   3.455   1.478 -0.1141  0.1804  0.5150
  204COC    COC  204   4.061   3.538   1.231  0.0216  0.0433  0.0622
  205COC    COC  205   3.805   3.455   1.110 -0.2205 -0.3585  0.0660
  206COC    COC  206   3.764   3.458   0.807 -0.1173 -0.2616 -0.3315
  207COC    COC  207   3.532   3.213   0.774  0.0075 -0.0100  0.2818
  208COC    COC  208   3.427   2.954   0.595  0.0019  0.0273 -0.1011
  209COC    COC  209   3.163   2.782   0.700  0.2093 -0.1201 -0.0521
  210COC    COC  210   2.978   2.845   0.944 -0.2411  0.3711 -0.0445
  211COC    COC  211   3.243   2.964   1.066  0.1119 -0.0268 -0.0701
  212COC    COC  212   3.509   2.889   1.160  0.0050 -0.1438  0.0531
  213COC    COC  213   3.649   2.705   0.930 -0.1261 -0.2810  0.1859
  214COC    COC  214   3.908   2.675   0.816 -0.1796 -0.1567 -0.2306
  215COC    COC  215   4.024   2.860   0.611 -0.1313 -0.1821  0.3763
  216COC    COC  216   4.349   2.887   0.610  0.4954 -0.5512 -0.0406
  217COC    COC  217   4.372   3.164   0.575 -0.0049 -0.2024  0.0194
  218COC    COC  218   4.095   3.290   0.458 -0.1570 -0.0855  0.5567
  219COC    COC  219   3.807   3.156   0.379 -0.0655  0.1859  0.0932
  220COC    COC  220   3.572   3.339   0.363 -0.1461 -0.5227  0.0595
  221COC    COC  221   3.448   3.558   0.169 -0.2894  0.0423  0.0795
  222COC    COC  222   3.196   3.690   0.139 -0.1016  0.1383 -0.1541
  223COC    COC  223   3.042   3.681   0.401 -0.1017 -0.3546  0.1418
  224COC    COC  224   2.792   3.765   0.327 -0.3221 -0.2169  0.0080
  225COC    COC  225   2.575   3.901   0.476 -0.1403 -0.2662  0.1034
  226COC    COC  226   2.291   4.041   0.434  0.4687 -0.2533  0.2817
  227COC    COC  227   2.076   4.128   0.638  0.1607  0.2523  0.2870
  228COC    COC  228   1.948   4.403   0.768  0.0435  0.2437 -0.2861
  229COC    COC  229   2.063   4.574   1.001  0.2375  0.1335  0.0109
  230COH    COH  230   2.245   4.790   1.010  0.0326  0.1821  0.0073
  231COH    COH  231   8.970   7.888   7.389 -0.0448 -0.0973 -0.4769
  232COC    COC  232   9.172   8.060   7.281 -0.1265 -0.0655 -0.0849
  233COC    COC  233   9.178   8.264   7.060 -0.1685 -0.2341 -0.2514
  234COC    COC  234   9.399   8.191   6.892 -0.0298 -0.0085 -0.1458
  235COC    COC  235   9.255   8.168   6.607 -0.0858  0.1795  0.1419
  236COC    COC  236   8.989   8.086   6.477  0.5894 -0.2352 -0.0333
  237COC    COC  237   8.930   7.808   6.383 -0.1367 -0.2420 -0.0677
  238COC    COC  238   8.647   7.711   6.281 -0.3690  0.2838 -0.3488
  239COC    COC  239   8.579   7.744   5.970 -0.1444  0.1194 -0.4167
  240COC    COC  240   8.358   7.904   6.007  0.2445  0.1369 -0.2069
  241COC    COC  241   8.404   8.183   6.086 -0.1002 -0.3056 -0.2228
  242COC    COC  242   8.493   8.490   5.993  0.1717 -0.3327 -0.1552
  243COC    COC  243   8.463   8.710   5.808  0.3504 -0.3837  0.3055
  244COC    COC  244   8.700   8.869   5.803 -0.1634 -0.2391 -0.2784
  245COC    COC  245   8.833   8.847   5.492 -0.0982  0.0026  0.2594
  246COC    COC  246   8.732   9.042   5.288  0.2457 -0.0618  0.3278
  247COC    COC  247   8.521   8.921   5.084 -0.2224  0.0956 -0.0041
  248COC    COC  248   8.738   8.807   4.906 -0.2522  0.1500  0.5937
  249COC    COC  249   8.630   8.814   4.585 -0.1747 -0.1293 -0.2559
  250COC    COC  250   8.831   8.635   4.421  0.0588 -0.1892  0.2381
  251COC    COC  251   9.132   8.610   4.433  0.0168  0.3393  0.0909
  252COC    COC  252   9.450   8.596   4.419 -0.0963  0.0122  0.2718
  253COC    COC  253   9.592   8.438   4.662 -0.0213  0.2660 -0.2099
  254COC    COC  254   9.809   8.193   4.692  0.0088 -0.1877  0.2894
  255COC    COC  255  10.095   8.245   4.837 -0.0693 -0.0362  0.1210
  256COC    COC  256  10.251   7.988   4.735 -0.3392 -0.5213 -0.2804
  257COC    COC  257   0.042   7.918   4.475 -0.2134 -0.2656  0.1570
  258COC    COC  258   0.324   8.053   4.479 -0.1615  0.3166 -0.2325
  259COC    COC  259   0.281   8.279   4.318  0.0566  0.3541 -0.2353
  260COC    COC  260   0.038   8.467   4.351  0.2359 -0.2077  0.0426
  261COC    COC  261  10.164   8.237   4.379 -0.2964 -0.2138  0.0596
  262COC    COC  262  10.203   8.090   4.136  0.3064  0.1160  0.2688
  263COC    COC  263  10.169   7.768   4.118  0.3883 -0.2635 -0.5171
  264COC    COC  264  10.312   7.579   3.952  0.1403 -0.1035 -0.2711
  265COC    COC  265  10.189   7.444   3.719 -0.5095 -0.2732 -0.1254
  266COC    COC  266   9.870   7.487   3.640 -0.2481  0.1176  0.1072
  267COC    COC  267   9.740   7.758   3.518  0.2547 -0.0222 -0.2490
  268COC    COC  268   9.881   7.835   3.284  0.2983  0.2148 -0.1374
  269COC    COC  269  10.060   8.069   3.221  0.2276 -0.0904 -0.4759
  270COC    COC  270   0.016   8.163   3.176 -0.2143 -0.0585 -0.2749
  271COC    COC  271   0.244   8.082   3.389  0.0413  0.0716 -0.3013
  272COC    COC  272   0.327   8.352   3.502  0.1898 -0.0189 -0.1399
  273COC    COC  273   0.138   8.592   3.444  0.0227  0.3838  0.6651
  274COC    COC  274   0.022   8.624   3.144  0.2118 -0.0824 -0.0112
  275COC    COC  275   0.129   8.915   3.038 -0.1741 -0.2586 -0.2534
  276COH    COH  276   0.309   9.043   3.226  0.0179 -0.3556 -0.2190
  277COH    COH  277   5.067   3.411   7.952  0.5635 -0.0442  0.2625
  278COC    COC  278   5.182   3.455   8.194 -0.1632 -0.1020  0.0777
  279COC    COC  279   5.402   3.474   8.374 -0.3304 -0.1274 -0.3399
  280COC    COC  280   5.340   3.747   8.537 -0.0718 -0.4363 -0.0644
  281COC    COC  281   5.565   3.849   8.736  0.1398 -0.2103  0.3499
  282COC    COC  282   5.627   3.799   8.973  0.0170 -0.1484 -0.0665
  283COC    COC  283   5.951   3.770   9.088 -0.0745 -0.0160 -0.4426
  284COC    COC  284   6.123   4.007   9.165  0.0058 -0.3546 -0.1493
  285COC    COC  285   6.404   4.036   9.239 -0.1766 -0.0277  0.0559
  286COC    COC  286   6.512   4.031   9.499  0.0771 -0.1948 -0.1480
  287COC    COC  287   6.351   4.096   9.743  0.0658  0.0426  0.1452
  288COC    COC  288   6.339   4.371   9.843  0.3658  0.1603  0.0059
  289COC    COC  289   6.609   4.462   9.726 -0.0303 -0.4011  0.4837
  290COC    COC  290   6.828   4.443   9.916 -0.3036  0.2145  0.0411
  291COC    COC  291   6.754   4.136  10.050  0.0177  0.0177 -0.0711
  292COC    COC  292   6.632   3.860  10.002  0.1412  0.1917  0.1013
  293COC    COC  293   6.684   3.534  10.072 -0.0915 -0.0972 -0.1171
  294COC    COC  294   6.535   3.517   0.016 -0.4490 -0.2046  0.1894
  295COC    COC  295   6.446   3.229   0.024  0.2180 -0.0978 -0.0516
  296COC    COC  296   6.457   2.925   0.006  0.2584  0.2010 -0.1289
  297COC    COC  297   6.468   2.751   0.235 -0.1308  0.4695 -0.3873
  298COC    COC  298   6.240   2.530   0.177  0.0724 -0.0580 -0.3130
  299COC    COC  299   6.083   2.451   0.460 -0.2925  0.1712  0.1162
  300COC    COC  300   5.773   2.517   0.548  0.0317 -0.1092 -0.1835
  301COC    COC  301   5.477   2.390   0.636  0.0527 -0.1702  0.0562
  302COC    COC  302   5.263   2.260   0.464  0.3808  0.0730 -0.0136
  303COC    COC  303   4.974   2.327   0.423 -0.0574  0.1513 -0.2351
  304COC    COC  304   4.799   2.128   0.216  0.0711  0.1123 -0.2365
  305COC    COC  305   4.522   2.009   0.185  0.0351  0.2743  0.1209
  306COC    COC  306   4.242   1.979   0.315  0.1950 -0.2391  0.2110
  307COC    COC  307   4.109   1.756   0.462 -0.0510  0.0355  0.0463
  308COC    COC  308   3.846   1.791   0.369  0.2911  0.2525 -0.2764
  309COC    COC  309   3.712   2.028   0.479 -0.2890 -0.1081 -0.5020
  310COC    COC  310   3.464   2.073   0.270 -0.1487 -0.0220  0.1912
  311COC    COC  311   3.610   2.211   0.036  0.2863  0.3965 -0.0947
  312COC    COC  312   3.863   2.038   0.012  0.1472  0.0684 -0.3913
  313COC    COC  313   3.893   1.923  10.131  0.2666 -0.0908  0.0813
  314COC    COC  314   3.989   1.936   9.829  0.2732  0.1824  0.1021
  315COC    COC  315   3.785   2.063   9.615  0.3827  0.1793 -0.0181
  316COC    COC  316   3.661   2.334   9.566  0.0723  0.1429 -0.0423
  317COC    COC  317   3.507   2.445   9.305  0.3304 -0.0687  0.0573
  318COC    COC  318   3.374   2.693   9.405  0.1404  0.3785  0.4235
  319COC    COC  319   3.240   2.768   9.141  0.0445 -0.0300 -0.0800
  320COC    COC  320   3.292   2.583   8.952  0.0411  0.4600  0.0511
  321COC    COC  321   3.417   2.641   8.670 -0.2749  0.1258  0.1250
  322COH    COH  322   3.673   2.676   8.700 -0.4518  0.0385 -0.2670
  323COH    COH  323   9.111   5.474   1.528  0.0156 -0.3002 -0.0794
  324COC    COC  324   8.877   5.470   1.442 -0.0569  0.0558 -0.0904
  325COC    COC  325   8.760   5.581   1.651 -0.0990 -0.2701 -0.3985
  326COC    COC  326   8.874   5.662   1.958  0.2677 -0.4423 -0.1314
  327COC    COC  327   8.730   5.937   2.075  0.1060  0.5434 -0.1801
  328COC    COC  328   8.573   6.086   1.865 -0.2612  0.2665  0.0471
  329COC    COC  329   8.720   6.345   1.768 -0.0501  0.1226  0.2876
  330COC    COC  330   8.854   6.631   1.809  0.0232  0.6437  0.0110
  331COC    COC  331   8.640   6.808   1.714  0.6339  0.0139  0.2879
  332COC    COC  332   8.573   6.787   1.422 -0.0384 -0.0213  0.2129
  333COC    COC  333   8.703   6.735   1.174  0.0643  0.0722  0.4135
  334COC    COC  334   8.472   6.798   0.937  0.0454 -0.1131 -0.3314
  335COC    COC  335   8.195   6.955   0.939  0.0049  0.0457  0.5690
  336COC    COC  336   7.935   6.838   1.011 -0.2083 -0.0033 -0.4992
  337COC    COC  337   7.724   6.848   1.228 -0.1993  0.1023  0.3848
  338COC    COC  338   7.479   7.003   1.379 -0.0149  0.4200  0.2206
  339COC    COC  339   7.269   6.985   1.140 -0.6377  0.1718  0.3595
  340COC    COC  340   7.436   6.912   0.905 -0.0548 -0.6266 -0.1050
  341COC    COC  341   7.490   6.928   0.588  0.3638 -0.0129 -0.1853
  342COC    COC  342   7.257   6.750   0.472  0.0233 -0.3137  0.1549
  343COC    COC  343   7.290   6.572   0.707  0.3694  0.1446 -0.0987
  344COC    COC  344   7.578   6.510   0.767 -0.2124  0.3728  0.1574
  345COC    COC  345   7.814   6.328   0.693 -0.2498  0.3856  0.1005
  346COC    COC  346   7.838   6.119   0.520  0.0466  0.3159 -0.1399
  347COC    COC  347   7.659   5.999   0.284 -0.2456  0.1698 -0.4079
  348COC    COC  348   7.484   6.109   0.032 -0.3008  0.1059  0.0387
  349COC    COC  349   7.610   6.262  10.189 -0.0508  0.1524  0.1231
  350COC    COC  350   7.587   6.416   9.941 -0.5404  0.2265 -0.2895
  351COC    COC  351   7.537   6.691   9.801 -0.3272  0.3164 -0.5059
  352COC    COC  352   7.628   6.971   9.703 -0.2670 -0.1929  0.0923
  353COC    COC  353   7.461   7.175   9.533 -0.2843 -0.3631 -0.5050
  354COC    COC  354   7.245   7.347   9.661 -0.0973  0.1035 -0.0347
  355COC    COC  355   7.174   7.666   9.524 -0.1365  0.0619  0.0550
  356COC    COC  356   7.047   7.939   9.570 -0.0007  0.1392  0.4745
  357COC    COC  357   6.837   8.141   9.509  0.1050  0.1231 -0.3987
  358COC    COC  358   6.745   8.295   9.792 -0.0281 -0.0704  0.0325
  359COC    COC  359   6.509   8.293   9.990 -0.2728  0.1929  0.1024
  360COC    COC  360   6.331   8.050   9.946 -0.1250 -0.0793 -0.0957
  361COC    COC  361   6.048   8.084  10.104 -0.0097 -0.1167  0.0026
  362COC    COC  362   6.051   8.065   0.074  0.1886  0.2536  0.1759
  363COC    COC  363   5.994   7.750   0.106  0.4582 -0.4175  0.1546
  364COC    COC  364   6.213   7.598   0.207  0.4228 -0.0716  0.2938
  365COC    COC  365   6.177   7.326   0.097  0.0253  0.1774  0.0908
  366COC    COC  366   6.343   7.066   0.206  0.3418 -0.0101  0.5259
  367COC    COC  367   6.440   6.913  10.337  0.1663  0.0502 -0.1587
  368COH    COH  368   6.273   6.787  10.193 -0.2043  0.1834 -0.0653
  369COH    COH  369   0.945  10.263   5.352  0.2865 -0.7319  0.1235
  370COC    COC  370   1.086   0.051   5.187  0.0398  0.1031  0.1094
  371COC    COC  371   1.226  10.249   4.977  0.1519  0.1068 -0.4388
  372COC    COC  372   1.499  10.177   4.993  0.1267  0.1282 -0.0440
  373COC    COC  373   1.672   0.026   5.071 -0.3510  0.0050  0.2609
  374COC    COC  374   1.481   0.268   5.176 -0.4223  0.0361 -0.3039
  375COC    COC  375   1.382   0.332   5.446  0.0902 -0.3133  0.1583
  376COC    COC  376   1.454   0.494   5.676  0.3092 -0.4693 -0.1933
  377COC    COC  377   1.228   0.659   5.787 -0.2010 -0.3322  0.3476
  378COC    COC  378   1.372   0.933   5.876 -0.0919  0.1512 -0.1166
  379COC    COC  379   1.224   1.022   6.115  0.1933 -0.1652  0.1194
  380COC    COC  380   1.361   1.284   6.252 -0.2327 -0.2650 -0.4038
  381COC    COC  381   1.629   1.335   6.393 -0.1056 -0.1185 -0.0495
  382COC    COC  382   1.763   1.169   6.580  0.0752  0.1981 -0.0705
  383COC    COC  383   1.765   1.076   6.856  0.0198  0.0415 -0.1886
  384COC    COC  384   1.904   1.143   7.123  0.2655  0.1638  0.1114
  385COC    COC  385   2.220   1.220   7.127 -0.1874 -0.0131  0.2374
  386COC    COC  386   2.434   1.431   7.044 -0.0854  0.6618  0.0526
  387COC    COC  387   2.350   1.519   6.779 -0.0220 -0.2247  0.1951
  388COC    COC  388   2.357   1.342   6.553  0.0167 -0.1640 -0.0995
  389COC    COC  389   2.173   1.133   6.702 -0.4905 -0.3109 -0.1288
  390COC    COC  390   2.346   0.884   6.774 -0.0872  0.0348  0.0671
  391COC    COC  391   2.349   0.599   6.616  0.2315  0.0592  0.2150
  392COC    COC  392   2.410   0.402   6.812 -0.1971 -0.1234 -0.0074
  393COC    COC  393   2.299   0.212   7.056 -0.1092 -0.1940  0.2504
  394COC    COC  394   2.115   0.236   7.293 -0.0701 -0.1295 -0.2016
  395COC    COC  395   2.213   0.436   7.495  0.2289  0.0975  0.1376
  396COC    COC  396   2.282   0.220   7.703  0.0768  0.0660 -0.1491
  397COC    COC  397   2.127   0.396   7.910 -0.1806 -0.0637 -0.0372
  398COC    COC  398   2.273   0.532   8.137  0.1246  0.2968 -0.2189
  399COC    COC  399   2.565   0.469   8.205 -0.2766  0.0286 -0.2520
  400COC    COC  400   2.802   0.592   8.380 -0.2906 -0.0561 -0.0444
  401COC    COC  401   3.029   0.412   8.488  0.1709  0.2638 -0.0664
  402COC    COC  402   2.980   0.095   8.497 -0.3254 -0.0354 -0.4626
  403COC    COC  403   3.214  10.283   8.634  0.0068 -0.0338 -0.1658
  404COC    COC  404   3.367  10.060   8.518 -0.2002  0.1930  0.1093
  405COC    COC  405   3.544   9.805   8.631 -0.5558 -0.1707 -0.2459
  406COC    COC  406   3.410   9.736   8.883  0.0716  0.0571 -0.0777
  407COC    COC  407   3.177   9.955   8.944  0.0439  0.2395  0.1259
  408COC    COC  408   3.194  10.185   9.087  0.1545  0.0768 -0.4519
  409COC    COC  409   3.007  10.327   9.284 -0.1663 -0.2750  0.2331
  410COC    COC  410   3.078   0.282   9.323 -0.1681  0.2378  0.4670
  411COC    COC  411   3.368   0.182   9.421 -0.1996 -0.0585  0.1113
  412COC    COC  412   3.559   0.020   9.241 -0.2923 -0.4727 -0.0014
  413COC    COC  413   3.574  10.050   9.241 -0.1573 -0.1790  0.1735
  414COH    COH  414   3.807  10.039   9.402  0.4265  0.0313 -0.3898
  415COH    COH  415   8.817   3.449   8.616 -0.4211 -0.2486  0.0811
  416COC    COC  416   8.901   3.692   8.632 -0.0543 -0.1590  0.1650
  417COC    COC  417   8.864   3.895   8.388 -0.1275 -0.4057 -0.1684
  418COC    COC  418   8.907   3.757   8.120  0.0527  0.0934  0.0806
  419COC    COC  419   9.029   3.970   7.931  0.1571 -0.2875  0.0953
  420COC    COC  420   9.004   4.257   7.826  0.2851 -0.1193  0.4159
  421COC    COC  421   8.982   4.279   7.520  0.7465  0.1253 -0.1210
  422COC    COC  422   8.779   4.072   7.419 -0.6783 -0.3972 -0.1719
  423COC    COC  423   8.670   4.089   7.150  0.0956  0.0265 -0.2962
  424COC    COC  424   8.409   4.232   7.067 -0.1665  0.0041  0.0548
  425COC    COC  425   8.239   4.474   7.131 -0.6190  0.1724 -0.1340
  426COC    COC  426   8.119   4.616   6.837 -0.0455 -0.1959 -0.3050
  427COC    COC  427   8.284   4.632   6.560  0.1245  0.1292 -0.1078
  428COC    COC  428   8.397   4.460   6.305 -0.2615 -0.0615 -0.0523
  429COC    COC  429   8.214   4.367   6.081 -0.0008 -0.1310  0.3153
  430COC    COC  430   8.010   4.164   6.193 -0.3993 -0.2081 -0.1465
  431COC    COC  431   8.158   3.908   6.322 -0.4030  0.1188 -0.0093
  432COC    COC  432   8.488   3.887   6.286 -0.1826  0.0467  0.2255
  433COC    COC  433   8.547   3.797   6.588  0.2799 -0.2487  0.3145
  434COC    COC  434   8.781   3.766   6.733 -0.4282 -0.3112 -0.2482
  435COC    COC  435   9.040   3.906   6.680 -0.4347  0.0164 -0.1056
  436COC    COC  436   9.296   3.744   6.829  0.3705  0.0780  0.0764
  437COC    COC  437   9.446   3.734   7.077  0.3687  0.0791  0.1003
  438COC    COC  438   9.518   3.910   7.314 -0.1365  0.0756  0.1977
  439COC    COC  439   9.741   4.004   7.478  0.0647  0.0558 -0.1402
  440COC    COC  440   9.988   4.184   7.361 -0.1129 -0.0183 -0.2393
  441COC    COC  441   9.955   4.513   7.333 -0.0969 -0.0716 -0.2460
  442COC    COC  442  10.229   4.644   7.364 -0.3836  0.3005  0.0308
  443COC    COC  443   0.018   4.485   7.144  0.1912  0.6459  0.0534
  444COC    COC  444   0.098   4.210   7.340 -0.3657 -0.7187  0.0132
  445COC    COC  445   0.038   3.940   7.303  0.1094 -0.1445 -0.0131
  446COC    COC  446   0.052   3.784   7.051 -0.0145  0.0463 -0.4397
  447COC    COC  447   0.333   3.693   6.971  0.0000  0.4467 -0.2708
  448COC    COC  448   0.416   3.409   7.028  0.2142  0.0599 -0.1067
  449COC    COC  449   0.582   3.255   7.221 -0.2454 -0.1297  0.3914
  450COC    COC  450   0.833   3.447   7.298  0.0050  0.0868 -0.0401
  451COC    COC  451   1.127   3.474   7.250  0.0543 -0.4245 -0.0536
  452COC    COC  452   1.350   3.274   7.330  0.1248 -0.1098  0.0285
  453COC    COC  453   1.320   3.013   7.203 -0.2725 -0.1716  0.0826
  454COC    COC  454   1.523   2.938   6.975 -0.1891 -0.0440  0.1735
  455COC    COC  455   1.689   2.673   6.845 -0.0383 -0.0768 -0.3464
  456COC    COC  456   1.573   2.470   6.641 -0.0187 -0.3851 -0.2881
  457COC    COC  457   1.785   2.313   6.552 -0.1049  0.1359 -0.1599
  458COC    COC  458   1.742   2.348   6.279  0.1286 -0.2496  0.0840
  459COC    COC  459   1.666   2.082   6.103  0.2925 -0.0074 -0.3505
  460COH    COH  460   1.683   1.986   5.859 -0.5734 -0.1397 -0.0544
  461COH    COH  461   2.455   6.201   5.854  0.2434  0.3209 -0.0734
  462COC    COC  462   2.528   5.944   5.780 -0.2612 -0.1556 -0.0503
  463COC    COC  463   2.492   6.028   5.495 -0.1170 -0.4446 -0.1673
  464COC    COC  464   2.381   5.883   5.274  0.6395  0.1154 -0.2019
  465COC    COC  465   2.350   5.956   5.000  0.5172  0.2060 -0.0780
  466COC    COC  466   2.590   6.021   4.861 -0.2129  0.2873  0.0916
  467COC    COC  467   2.897   6.060   4.896 -0.1718 -0.3527 -0.5732
  468COC    COC  468   3.111   6.081   5.137  0.2544 -0.0680 -0.0161
  469COC    COC  469   3.244   6.374   5.197  0.3405  0.0270 -0.3291
  470COC    COC  470   3.167   6.610   5.357  0.0015 -0.5273 -0.3491
  471COC    COC  471   3.071   6.860   5.218  0.4617 -0.1230 -0.0207
  472COC    COC  472   3.151   7.131   5.186  0.0689  0.3794 -0.0560
  473COC    COC  473   3.212   7.086   4.900 -0.3019 -0.4046 -0.0016
  474COC    COC  474   3.233   6.773   4.834 -0.3879 -0.3535 -0.0180
  475COC    COC  475   2.962   6.616   4.906 -0.4594 -0.2542  0.2061
  476COC    COC  476   2.711   6.564   4.831  0.2660 -0.3157 -0.4919
  477COC    COC  477   2.517   6.377   4.669 -0.0735 -0.1167 -0.1840
  478COC    COC  478   2.472   6.157   4.464  0.1157  0.4686  0.1359
  479COC    COC  479   2.696   5.947   4.433 -0.1834  0.6557 -0.2001
  480COC    COC  480   2.850   5.714   4.348  0.1015  0.2636 -0.0443
  481COC    COC  481   3.110   5.550   4.409  0.0131  0.1252 -0.0987
  482COC    COC  482   3.224   5.331   4.629  0.3960  0.1834  0.2350
  483COC    COC  483   3.487   5.378   4.480 -0.0711  0.0316  0.0657
  484COC    COC  484   3.543   5.459   4.225 -0.3328  0.2261 -0.3907
  485COC    COC  485   3.848   5.398   4.150  0.1891  0.1551  0.0852
  486COC    COC  486   4.114   5.489   4.008  0.0019  0.3045  0.3049
  487COC    COC  487   4.319   5.285   4.084 -0.1192  0.0849  0.1386
  488COC    COC  488   4.339   4.979   4.158 -0.0641  0.0011 -0.1048
  489COC    COC  489   4.351   4.846   4.432  0.0688 -0.4660  0.1569
  490COC    COC  490   4.307   4.566   4.543  0.1188 -0.0772  0.4027
  491COC    COC  491   4.194   4.318   4.398 -0.3194 -0.0449  0.0374
  492COC    COC  492   4.321   4.061   4.337 -0.3012  0.2493  0.3131
  493COC    COC  493   4.572   3.961   4.196 -0.4755  0.3116 -0.0114
  494COC    COC  494   4.625   3.685   4.141 -0.1468  0.3429 -0.0890
  495COC    COC  495   4.664   3.622   3.855 -0.3659  0.2562 -0.1251
  496COC    COC  496   4.536   3.810   3.632 -0.4237  0.0818  0.2483
  497COC    COC  497   4.648   4.075   3.457 -0.0723 -0.1448 -0.2162
  498COC    COC  498   4.960   4.173   3.448 -0.1218 -0.1991  0.1464
  499COC    COC  499   5.070   4.349   3.264  0.0830 -0.2410  0.3816
  500COC    COC  500   5.249   4.614   3.264 -0.0549 -0.0180  0.0231
  501COC    COC  501   5.434   4.856   3.373  0.1341  0.2674 -0.3881
  502COC    COC  502   5.385   5.159   3.363 -0.1225 -0.1132 -0.0844
  503COC    COC  503   5.295   5.297   3.611  0.0194 -0.3548  0.2177
  504COC    COC  504   5.365   5.551   3.725  0.3711  0.0693  0.3061
  505COC    COC  505   5.226   5.691   3.975  0.0884 -0.3558 -0.1016
  506COH    COH  506   5.005   5.877   3.870  0.0031 -0.3688  0.5781
  507COH    COH  507   3.600   8.358   7.755  0.2539  0.2689  0.3443
  508COC    COC  508   3.687   8.578   7.895  0.4076 -0.0668  0.1170
  509COC    COC  509   3.620   8.852   7.821  0.1088  0.3504 -0.0999
  510COC    COC  510   3.718   8.982   7.533  0.0718 -0.0778  0.0015
  511COC    COC  511   3.794   9.266   7.446  0.4240 -0.3826 -0.2354
  512COC    COC  512   3.728   9.460   7.224 -0.1189  0.2175 -0.2626
  513COC    COC  513   3.683   9.423   6.946  0.1191 -0.0386 -0.0805
  514COC    COC  514   3.679   9.535   6.689  0.1186  0.1736 -0.1520
  515COC    COC  515   3.574   9.366   6.455  0.1285  0.3189 -0.4737
  516COC    COC  516   3.683   9.040   6.493 -0.1061  0.2349  0.2070
  517COC    COC  517   3.961   8.951   6.585  0.3875 -0.1867 -0.1845
  518COC    COC  518   3.922   8.706   6.765 -0.1164  0.1471  0.0869
  519COC    COC  519   4.120   8.441   6.755  0.2105  0.2358 -0.2057
  520COC    COC  520   4.410   8.493   6.739  0.1310 -0.0356 -0.3525
  521COC    COC  521   4.449   8.661   7.006  0.0985  0.0146  0.2302
  522COC    COC  522   4.238   8.731   7.211 -0.0761 -0.3242 -0.2843
  523COC    COC  523   4.162   8.973   7.364  0.1678  0.3491  0.0640
  524COC    COC  524   4.303   9.210   7.463  0.1403  0.1606  0.0249
  525COC    COC  525   4.557   9.355   7.520  0.0777 -0.0782  0.3412
  526COC    COC  526   4.697   9.565   7.406  0.2624  0.0988  0.5891
  527COC    COC  527   4.546   9.829   7.371 -0.0624 -0.4706  0.3333
  528COC    COC  528   4.751  10.047   7.443 -0.0375 -0.1635  0.0252
  529COC    COC  529   4.968   9.832   7.563  0.1861  0.0369  0.2311
  530COC    COC  530   5.131   9.646   7.753  0.0854 -0.1848 -0.0497
  531COC    COC  531   5.440   9.666   7.668 -0.2085 -0.1099 -0.4047
  532COC    COC  532   5.696   9.890   7.608  0.2625 -0.0377  0.0152
  533COC    COC  533   5.961   9.901   7.500 -0.4868 -0.2151 -0.5837
  534COC    COC  534   5.995   9.640   7.432 -0.1784  0.2410  0.4462
  535COC    COC  535   6.320   9.534   7.476 -0.0914  0.0378  0.2507
  536COC    COC  536   6.418   9.719   7.726  0.0743  0.2434  0.0386
  537COC    COC  537   6.301  10.004   7.788 -0.3376 -0.0384 -0.0162
  538COC    COC  538   6.356  10.217   7.572  0.2109 -0.0713  0.0920
  539COC    COC  539   6.638  10.100   7.531  0.3522  0.0017 -0.3559
  540COC    COC  540   6.763   9.853   7.462  0.1628  0.2449 -0.0802
  541COC    COC  541   7.039   9.926   7.616  0.0660 -0.1611 -0.2622
  542COC    COC  542   7.262   9.913   7.835  0.1257 -0.0121 -0.3784
  543COC    COC  543   7.538   9.826   7.743  0.2263 -0.0303  0.1141
  544COC    COC  544   7.736   9.601   7.672 -0.3666  0.0345 -0.2372
  545COC    COC  545   7.873   9.553   7.407 -0.2605 -0.2678 -0.0332
  546COC    COC  546   7.625   9.508   7.285  0.3774  0.3110  0.1804
  547COC    COC  547   7.620   9.645   7.028 -0.0930 -0.0633 -0.1869
  548COC    COC  548   7.891   9.537   6.955  0.0854  0.2561 -0.5160
  549COC    COC  549   7.830   9.378   6.694  0.1612 -0.1978  0.3495
  550COC    COC  550   8.024   9.208   6.560 -0.1377 -0.2244  0.1795
  551COC    COC  551   8.349   9.132   6.581  0.1034 -0.1106  0.2152
  552COH    COH  552   8.540   9.315   6.531 -0.5383  0.0924 -0.4287
  553COH    COH  553   4.816   0.651   0.535  0.4666 -0.1578 -0.1974
  554COC    COC  554   4.985   0.851   0.551  0.3847 -0.0654 -0.2166
  555COC    COC  555   5.041   0.997   0.846 -0.0478  0.2000  0.0296
  556COC    COC  556   4.917   0.905   1.098  0.5377 -0.1829 -0.6245
  557COC    COC  557   5.138   0.865   1.325 -0.1635 -0.4238 -0.1883
  558COC    COC  558   5.411   0.892   1.235 -0.1050  0.0875  0.0767
  559COC    COC  559   5.569   1.154   1.323  0.3828  0.0537 -0.4341
  560COC    COC  560   5.645   1.132   1.625  0.1866  0.0383  0.1917
  561COC    COC  561   5.593   1.275   1.904  0.2189  0.0121 -0.0820
  562COC    COC  562   5.438   1.464   2.088 -0.2265  0.1399 -0.4031
  563COC    COC  563   5.203   1.428   2.229 -0.2144 -0.2651 -0.0982
  564COC    COC  564   5.103   1.175   2.376  0.0156  0.3424  0.2395
  565COC    COC  565   4.828   1.051   2.417 -0.0608  0.1276  0.3864
  566COC    COC  566   4.789   0.761   2.315 -0.3126 -0.0218 -0.2602
  567COC    COC  567   4.717   0.711   2.025 -0.0456 -0.2292  0.5608
  568COC    COC  568   4.835   0.469   1.869 -0.0063 -0.1623 -0.1003
  569COC    COC  569   5.035   0.300   2.079  0.0146  0.1222 -0.1920
  570COC    COC  570   5.344   0.347   2.031 -0.0664 -0.3496  0.1656
  571COC    COC  571   5.581   0.532   2.120  0.3169  0.3879 -0.1860
  572COC    COC  572   5.845   0.399   2.017  0.5499  0.0377 -0.0424
  573COC    COC  573   6.145   0.440   1.959 -0.6833  0.1295  0.1219
  574COC    COC  574   6.334   0.664   1.931  0.0603 -0.3139  0.0983
  575COC    COC  575   6.451   0.614   1.657  0.0598 -0.4720 -0.2767
  576COC    COC  576   6.339   0.311   1.603 -0.1237 -0.3844  0.0874
  577COC    COC  577   6.067   0.369   1.547  0.0322  0.2986  0.2471
  578COC    COC  578   5.992   0.646   1.553  0.2150 -0.3788  0.1574
  579COC    COC  579   5.753   0.693   1.362  0.2053  0.0322  0.2232
  580COC    COC  580   5.838   0.843   1.122  0.0813 -0.0202  0.1093
  581COC    COC  581   5.990   1.104   1.225 -0.0519 -0.0727  0.3856
  582COC    COC  582   6.226   1.276   1.182 -0.1606 -0.3413 -0.2958
  583COC    COC  583   6.351   1.294   0.938 -0.1981  0.0794 -0.0694
  584COC    COC  584   6.637   1.295   1.009  0.1838 -0.2509 -0.0484
  585COC    COC  585   6.857   1.398   0.845 -0.0446  0.3972  0.0024
  586COC    COC  586   6.882   1.186   0.649 -0.4016  0.1620  0.1394
  587COC    COC  587   6.678   0.958   0.653  0.1418 -0.1014 -0.2324
  588COC    COC  588   6.712   0.728   0.828 -0.2314 -0.2156  0.1050
  589COC    COC  589   6.477   0.542   0.744  0.1581 -0.0734  0.2356
  590COC    COC  590   6.227   0.665   0.630  0.1105 -0.0563  0.1765
  591COC    COC  591   6.090   0.683   0.374 -0.2568 -0.0479  0.2877
  592COC    COC  592   6.216   0.517   0.163 -0.2071  0.0617  0.0972
  593COC    COC  593   6.077   0.328  10.287  0.1900 -0.1115  0.1600
  594COC    COC  594   6.079   0.470  10.038 -0.0962 -0.0693 -0.3396
  595COC    COC  595   6.201   0.352   9.765  0.1911  0.1802 -0.2771
  596COC    COC  596   6.362   0.180   9.550 -0.2858 -0.1959  0.2885
  597COC    COC  597   6.604   0.315   9.392 -0.0816  0.1183  0.2957
  598COH    COH  598   6.590   0.187   9.143 -0.2344 -0.1959 -0.2518
  599COH    COH  599   8.649   8.657   6.289 -0.1424 -0.2624  0.0900
  600COC    COC  600   8.862   8.483   6.285  0.0562  0.2267 -0.1021
  601COC    COC  601   9.049   8.747   6.232 -0.1648 -0.1385  0.4929
  602COC    COC  602   8.912   8.983   6.118  0.3408 -0.1997  0.1082
  603COC    COC  603   8.894   9.252   6.312 -0.1611 -0.3461 -0.1243
  604COC    COC  604   9.095   9.465   6.454 -0.3788  0.1194  0.0629
  605COC    COC  605   9.368   9.604   6.368 -0.0599 -0.1789  0.2430
  606COC    COC  606   9.580   9.500   6.584 -0.0438  0.1460 -0.1259
  607COC    COC  607   9.841   9.586   6.703  0.0709  0.3566 -0.1679
  608COC    COC  608   9.873   9.407   6.939 -0.0327 -0.0821  0.7390
  609COC    COC  609   9.710   9.478   7.189 -0.4857 -0.0278 -0.2497
  610COC    COC  610   9.719   9.216   7.352 -0.4846 -0.0976 -0.3649
  611COC    COC  611   9.600   9.029   7.122 -0.0464 -0.0856  0.3091
  612COC    COC  612   9.634   9.051   6.824 -0.0937  0.1509  0.0281
  613COC    COC  613   9.730   8.827   6.622 -0.2657  0.1507  0.1619
  614COC    COC  614   9.959   8.688   6.714  0.0181  0.0507 -0.1731
  615COC    COC  615  10.126   8.459   6.590  0.1472  0.0912  0.2570
  616COC    COC  616  10.071   8.368   6.304  0.0129  0.3603 -0.0070
  617COC    COC  617  10.272   8.204   6.183 -0.2357 -0.0423  0.4454
  618COC    COC  618  10.230   7.938   6.221  0.1735  0.1072 -0.0558
  619COC    COC  619  10.166   7.954   6.511 -0.0277  0.1998 -0.0501
  620COC    COC  620   9.957   8.069   6.695  0.4032 -0.2644  0.1170
  621COC    COC  621   9.876   8.024   7.009 -0.0713 -0.3874  0.1157
  622COC    COC  622   9.681   7.774   7.124 -0.0327 -0.3085  0.0624
  623COC    COC  623   9.788   7.746   7.399  0.1442  0.3000  0.0873
  624COC    COC  624   9.999   7.921   7.491  0.4356 -0.2109  0.4114
  625COC    COC  625  10.063   8.202   7.475  0.2128 -0.1140 -0.1759
  626COC    COC  626  10.050   8.447   7.327  0.0961 -0.2029 -0.1278
  627COC    COC  627   9.917   8.448   7.060 -0.1547 -0.0035  0.1400
  628COC    COC  628   9.614   8.527   6.959 -0.1311 -0.5214  0.2016
  629COC    COC  629   9.373   8.692   6.976 -0.0073 -0.7993 -0.1093
  630COC    COC  630   9.238   8.591   6.741  0.1455 -0.0358  0.1526
  631COC    COC  631   8.995   8.468   6.734  0.2163 -0.2079  0.4848
  632COC    COC  632   8.758   8.533   6.860 -0.2103  0.0304 -0.1659
  633COC    COC  633   8.809   8.553   7.160 -0.1100  0.2583 -0.0693
  634COC    COC  634   8.841   8.727   7.361 -0.2479  0.1506  0.2063
  635COC    COC  635   8.685   8.746   7.593  0.1135 -0.1824  0.2335
  636COC    COC  636   8.417   8.878   7.537 -0.2325 -0.4376  0.1759
  637COC    COC  637   8.126   8.736   7.508 -0.3719 -0.1206 -0.1108
  638COC    COC  638   7.906   8.880   7.338  0.0429  0.3087 -0.2029
  639COC    COC  639   7.836   9.132   7.200 -0.0524  0.2395  0.1120
  640COC    COC  640   7.840   9.040   6.906 -0.1653  0.0228 -0.3107
  641COC    COC  641   7.581   8.862   6.945  0.1046  0.5474 -0.2146
  642COC    COC  642   7.503   8.859   7.239 -0.0779  0.0085  0.1522
  643COC    COC  643   7.479   8.534   7.324 -0.0599  0.1328 -0.2429
  644COH    COH  644   7.733   8.472   7.319 -0.3021 -0.3104  0.0625
  645COH    COH  645   9.601   6.353   1.227 -0.3318  0.0263  0.0284
  646COC    COC  646   9.604   6.613   1.275  0.2459 -0.0632 -0.2802
  647COC    COC  647   9.834   6.820   1.234 -0.0859 -0.2855  0.1227
  648COC    COC  648  10.111   6.744   1.214 -0.1282  0.0731 -0.0043
  649COC    COC  649  10.204   6.871   1.488  0.1875 -0.2327  0.2182
  650COC    COC  650  10.199   7.160   1.380 -0.4169  0.2745 -0.3418
  651COC    COC  651  10.343   7.278   1.136  0.3114 -0.3654  0.4077
  652COC    COC  652   0.001   7.173   0.850  0.1728  0.0341 -0.3930
  653COC    COC  653  10.161   7.033   0.641  0.1046 -0.1899  0.0988
  654COC    COC  654  10.063   7.025   0.331  0.3500 -0.1758  0.3239
  655COC    COC  655  10.158   7.154   0.089 -0.0209  0.1707 -0.2884
  656COC    COC  656   0.113   7.236   0.072 -0.0684 -0.0135 -0.0763
  657COC    COC  657   0.381   7.182  10.283 -0.4052 -0.1688 -0.2760
  658COC    COC  658   0.280   7.046  10.025 -0.1664 -0.4867  0.1107
  659COC    COC  659  10.318   6.981  10.084 -0.4855 -0.1292 -0.2146
  660COC    COC  660  10.074   6.820  10.006 -0.1244  0.1170  0.1248
  661COC    COC  661   9.808   6.731  10.120 -0.0016 -0.3593  0.2466
  662COC    COC  662   9.622   6.963  10.073  0.0629  0.0322  0.2382
  663COC    COC  663   9.393   6.973  10.297  0.2464  0.1819  0.0832
  664COC    COC  664   9.141   6.836   0.151 -0.1144  0.6551 -0.0052
  665COC    COC  665   8.983   6.630   0.038 -0.2513 -0.0639 -0.1420
  666COC    COC  666   8.705   6.778   0.044 -0.1044 -0.1169  0.0545
  667COC    COC  667   8.389   6.728   0.051  0.0733 -0.3029  0.2919
  668COC    COC  668   8.144   6.896   0.132  0.1472  0.0963 -0.0787
  669COC    COC  669   8.130   7.174   0.265 -0.1933  0.2542 -0.0535
  670COC    COC  670   8.045   7.375   0.064  0.2062  0.5044  0.3005
  671COC    COC  671   8.071   7.302  10.132  0.4458 -0.1480 -0.2296
  672COC    COC  672   7.931   7.216   9.888  0.2125 -0.1853 -0.3239
  673COC    COC  673   8.018   6.996   9.730 -0.3301 -0.2960 -0.0918
  674COC    COC  674   8.011   6.714   9.702  0.1476 -0.1442 -0.2060
  675COC    COC  675   8.117   6.632   9.991 -0.0047  0.0765  0.1719
  676COC    COC  676   8.033   6.328   9.994 -0.0172 -0.2368  0.1264
  677COC    COC  677   7.982   6.095  10.172  0.2992  0.0106 -0.1646
  678COC    COC  678   8.205   5.963  10.298  0.2257 -0.3253 -0.0593
  679COC    COC  679   8.151   5.683   0.011  0.4147 -0.3768 -0.2176
  680COC    COC  680   8.329   5.467  10.241 -0.3001  0.2048 -0.0095
  681COC    COC  681   8.601   5.437   0.005 -0.3578 -0.3534  0.4720
  682COC    COC  682   8.666   5.323   0.269 -0.0995 -0.1001 -0.0209
  683COC    COC  683   8.689   5.047   0.206 -0.0886  0.1127  0.1603
  684COC    COC  684   8.977   4.977   0.250 -0.3435  0.2006  0.0827
  685COC    COC  685   9.000   4.789   0.028 -0.1615 -0.1724 -0.2403
  686COC    COC  686   8.774   4.602   0.076  0.1465  0.4712  0.2153
  687COC    COC  687   8.519   4.605   0.194  0.0934  0.1333  0.1678
  688COC    COC  688   8.489   4.441   0.457  0.1528 -0.1833 -0.0721
  689COC    COC  689   8.319   4.662   0.637 -0.3972  0.0989  0.1189
  690COH    COH  690   8.402   4.693   0.887  0.0873  0.0353 -0.1698
  691COH    COH  691   4.583   0.451  10.094  0.2396 -0.2166 -0.1780
  692COC    COC  692   4.751   0.688  10.097 -0.5496  0.0241 -0.1469
  693COC    COC  693   5.029   0.697  10.149 -0.0485  0.1131 -0.1425
  694COC    COC  694   5.269   0.501  10.145  0.0776  0.1342 -0.0390
  695COC    COC  695   5.244   0.208  10.034 -0.0864  0.3656 -0.0002
  696COC    COC  696   5.035   0.193   9.826  0.0213  0.0301 -0.1791
  697COC    COC  697   4.969  10.274   9.634  0.2540 -0.1761 -0.1753
  698COC    COC  698   5.137  10.040   9.708  0.3226  0.1978  0.1414
  699COC    COC  699   5.060   9.764   9.803 -0.1598  0.2535  0.0217
  700COC    COC  700   4.979   9.621   9.529  0.0366  0.2566 -0.2344
  701COC    COC  701   5.145   9.769   9.300  0.2105 -0.2026 -0.0721
  702COC    COC  702   5.383   9.609   9.168  0.3638 -0.1314  0.1125
  703COC    COC  703   5.489   9.456   8.954 -0.4269  0.0130  0.0519
  704COC    COC  704   5.638   9.181   8.996  0.1368 -0.2459  0.0347
  705COC    COC  705   5.455   8.950   9.098 -0.0409 -0.1408 -0.3903
  706COC    COC  706   5.628   8.847   9.331 -0.0086  0.0789 -0.1925
  707COC    COC  707   5.546   9.075   9.522  0.1597 -0.1139 -0.2878
  708COC    COC  708   5.743   9.294   9.610  0.0467  0.4716 -0.0284
  709COC    COC  709   5.754   9.373   9.911 -0.0583 -0.6390  0.0096
  710COC    COC  710   5.631   9.620   9.996  0.5479  0.1028 -0.0060
  711COC    COC  711   5.673   9.931   9.925  0.3395 -0.1661 -0.4149
  712COC    COC  712   5.755  10.201  10.077  0.4555  0.5019 -0.2876
  713COC    COC  713   5.952   0.028   9.939  0.0665 -0.2452 -0.1547
  714COC    COC  714   6.003  10.304   9.621 -0.0059  0.2784 -0.0012
  715COC    COC  715   5.772  10.112   9.469  0.1863 -0.3423 -0.0805
  716COC    COC  716   5.834   9.928   9.229  0.0362  0.1220 -0.4285
  717COC    COC  717   5.663   9.910   9.036  0.0083  0.0194 -0.1939
  718COC    COC  718   5.813   9.775   8.763  0.1950 -0.0483  0.0985
  719COC    COC  719   6.099   9.871   8.732 -0.3203  0.1767 -0.5124
  720COC    COC  720   6.307   9.867   8.952  0.0743  0.1358 -0.3201
  721COC    COC  721   6.317   9.786   9.262  0.0781 -0.2478 -0.3519
  722COC    COC  722   6.591   9.708   9.313 -0.1011  0.0419 -0.0130
  723COC    COC  723   6.885   9.848   9.423 -0.2179  0.4700 -0.4024
  724COC    COC  724   7.144   9.906   9.221  0.4891 -0.2799 -0.0616
  725COC    COC  725   7.285   9.701   9.096  0.1277 -0.3202 -0.2597
  726COC    COC  726   7.377   9.551   8.820 -0.2749 -0.2704 -0.2240
  727COC    COC  727   7.596   9.658   8.589 -0.2183  0.0538 -0.1144
  728COC    COC  728   7.591   9.439   8.404 -0.2052 -0.1564 -0.0101
  729COC    COC  729   7.406   9.242   8.545  0.3587 -0.0807 -0.0996
  730COC    COC  730   7.531   9.007   8.672 -0.1665  0.2266 -0.1943
  731COC    COC  731   7.635   8.748   8.523 -0.7825  0.1136 -0.2946
  732COC    COC  732   7.730   8.764   8.226 -0.1825  0.0944 -0.3670
  733COC    COC  733   7.967   8.588   8.194  0.0092  0.3190  0.2095
  734COC    COC  734   8.171   8.519   8.419  0.2619 -0.2227 -0.0400
  735COC    COC  735   8.492   8.533   8.363 -0.0257 -0.1950  0.1163
  736COH    COH  736   8.549   8.343   8.250 -0.4080 -0.4111 -0.2080
  737COH    COH  737   8.536   6.330   6.136 -0.3607  0.0305  0.2217
  738COC    COC  738   8.594   6.501   6.340 -0.1563 -0.0700  0.1037
  739COC    COC  739   8.743   6.757   6.231  0.2355  0.1290 -0.0073
  740COC    COC  740   8.967   6.633   6.268 -0.3127 -0.2506 -0.0645
  741COC    COC  741   9.246   6.597   6.093 -0.0919 -0.2619 -0.2901
  742COC    COC  742   9.284   6.744   5.801  0.0161  0.2810  0.2084
  743COC    COC  743   9.089   6.906   5.616  0.2912 -0.3467 -0.0700
  744COC    COC  744   9.014   7.169   5.664 -0.1348  0.1594  0.0695
  745COC    COC  745   9.071   7.421   5.490 -0.0077 -0.2803  0.2196
  746COC    COC  746   9.340   7.550   5.467 -0.4428  0.1223  0.0946
  747COC    COC  747   9.553   7.756   5.373 -0.1899 -0.0462 -0.2026
  748COC    COC  748   9.353   7.952   5.230  0.4306 -0.0446 -0.0437
  749COC    COC  749   9.095   7.830   5.135 -0.1284  0.1456 -0.0334
  750COC    COC  750   9.108   7.525   5.074  0.2901 -0.1561  0.3364
  751COC    COC  751   8.846   7.445   4.959  0.6877  0.3144  0.0127
  752COC    COC  752   8.729   7.273   4.724  0.0666 -0.2732  0.0160
  753COC    COC  753   8.760   6.956   4.750  0.5166 -0.1948 -0.1263
  754COC    COC  754   8.926   6.721   4.817  0.1663  0.1865  0.5180
  755COC    COC  755   9.189   6.691   4.948  0.0789  0.0423  0.5178
  756COC    COC  756   9.361   6.427   5.032 -0.6548  0.0049 -0.0019
  757COC    COC  757   9.438   6.172   5.008  0.1568 -0.3256  0.1628
  758COC    COC  758   9.573   6.007   4.769  0.0612 -0.0973  0.0958
  759COC    COC  759   9.437   6.017   4.494 -0.2234 -0.1562  0.1925
  760COC    COC  760   9.509   5.721   4.443 -0.0430 -0.0659 -0.1277
  761COC    COC  761   9.630   5.566   4.648 -0.3088 -0.2243 -0.0314
  762COC    COC  762   9.728   5.272   4.654  0.1243 -0.3847 -0.1434
  763COC    COC  763   9.429   5.099   4.585 -0.0604 -0.0106  0.4412
  764COC    COC  764   9.189   5.044   4.773  0.2396 -0.1441  0.2872
  765COC    COC  765   9.046   5.069   5.039  0.2954  0.1006  0.1328
  766COC    COC  766   9.025   5.345   5.110  0.5620  0.1983  0.2253
  767COC    COC  767   8.789   5.332   5.294  0.4315 -0.3342  0.1754
  768COC    COC  768   8.501   5.371   5.266 -0.0446  0.1600 -0.1762
  769COC    COC  769   8.302   5.561   5.483  0.1879  0.1591 -0.5490
  770COC    COC  770   8.504   5.675   5.647 -0.0417  0.2228  0.0184
  771COC    COC  771   8.768   5.723   5.703 -0.1177 -0.2634 -0.0619
  772COC    COC  772   8.870   5.597   5.990 -0.0518  0.4549 -0.1440
  773COC    COC  773   9.133   5.411   6.054  0.2340  0.0738 -0.3980
  774COC    COC  774   9.360   5.299   5.916  0.0591  0.0747  0.0040
  775COC    COC  775   9.470   5.481   5.699  0.1301 -0.0316 -0.2072
  776COC    COC  776   9.738   5.449   5.525  0.0928  0.0082  0.1016
  777COC    COC  777   9.908   5.507   5.261 -0.0336 -0.1014  0.4286
  778COC    COC  778   9.679   5.520   5.042 -0.3939  0.1128  0.1709
  779COC    COC  779   9.444   5.336   4.950 -0.2524 -0.1380  0.1359
  780COC    COC  780   9.255   5.454   4.714 -0.2552 -0.1533  0.0412
  781COC    COC  781   9.050   5.411   4.508  0.0191 -0.2037  0.2116
  782COH    COH  782   8.853   5.349   4.717 -0.5832 -0.2939 -0.2784
  783COH    COH  783   5.152   0.092   9.091  0.0816 -0.2474  0.0367
  784COC    COC  784   5.001  10.258   9.049  0.2649  0.4822  0.5651
  785COC    COC  785   5.056  10.116   8.784 -0.0512  0.1110 -0.1165
  786COC    COC  786   4.963  10.064   8.492 -0.2298  0.2496  0.0071
  787COC    COC  787   4.658   9.954   8.444  0.0664 -0.0115 -0.2191
  788COC    COC  788   4.576   9.657   8.319  0.0114 -0.2036 -0.0444
  789COC    COC  789   4.291   9.640   8.238 -0.0564 -0.0585 -0.0193
  790COC    COC  790   4.142   9.748   8.509 -0.0064 -0.2278  0.1486
  791COC    COC  791   3.943   9.495   8.565 -0.2185 -0.5429 -0.3595
  792COC    COC  792   3.904   9.346   8.825 -0.0716  0.2808 -0.2227
  793COC    COC  793   3.661   9.415   8.998 -0.2393  0.1395  0.0268
  794COC    COC  794   3.396   9.216   8.969 -0.2504  0.2606 -0.0821
  795COC    COC  795   3.137   9.190   8.795 -0.1595  0.1316  0.2384
  796COC    COC  796   3.124   9.229   8.497  0.0477 -0.0040 -0.3154
  797COC    COC  797   3.292   9.448   8.399  0.0647 -0.2620  0.4365
  798COC    COC  798   3.559   9.376   8.512 -0.1388 -0.2180  0.0902
  799COC    COC  799   3.750   9.218   8.328  0.2334  0.1112  0.2645
  800COC    COC  800   3.833   8.926   8.230  0.3164 -0.0647 -0.1942
  801COC    COC  801   4.005   8.737   8.380 -0.0486 -0.1226  0.1222
  802COC    COC  802   3.903   8.597   8.624 -0.1655 -0.2007  0.1213
  803COC    COC  803   4.044   8.339   8.703 -0.2540 -0.0212  0.0968
  804COC    COC  804   4.291   8.153   8.679 -0.2036  0.3512  0.1748
  805COC    COC  805   4.460   8.159   8.940  0.0121  0.1343  0.2281
  806COC    COC  806   4.521   8.034   9.205 -0.0443  0.2376  0.4576
  807COC    COC  807   4.328   7.832   9.336  0.2070  0.2098  0.0567
  808COC    COC  808   4.092   7.650   9.296  0.0281 -0.1599  0.5393
  809COC    COC  809   4.030   7.475   9.519 -0.2695  0.0699  0.0698
  810COC    COC  810   4.351   7.450   9.621  0.0396 -0.0805  0.2623
  811COC    COC  811   4.424   7.146   9.611  0.2404  0.2668  0.2078
  812COC    COC  812   4.603   6.929   9.620  0.4857  0.2210 -0.0819
  813COC    COC  813   4.861   6.782   9.590 -0.1903 -0.0700  0.1267
  814COC    COC  814   4.976   6.549   9.731 -0.2880 -0.4185 -0.0671
  815COC    COC  815   4.833   6.282   9.671 -0.5328 -0.0319  0.1570
  816COC    COC  816   4.912   6.036   9.500 -0.2961  0.1144 -0.1255
  817COC    COC  817   4.758   5.777   9.566  0.2867 -0.1895  0.0849
  818COC    COC  818   4.627   5.537   9.426 -0.1423 -0.1047 -0.1370
  819COC    COC  819   4.413   5.316   9.483 -0.1987  0.2175 -0.2544
  820COC    COC  820   4.119   5.367   9.432  0.1643 -0.1869  0.1031
  821COC    COC  821   3.937   5.285   9.664 -0.0061  0.3042 -0.0594
  822COC    COC  822   3.906   5.524   9.812  0.0021 -0.1923 -0.1501
  823COC    COC  823   4.041   5.512  10.107  0.0461 -0.0928 -0.0320
  824COC    COC  824   4.263   5.701  10.167  0.2955  0.1886 -0.0920
  825COC    COC  825   4.193   5.992  10.128  0.1152  0.0543 -0.1027
  826COC    COC  826   4.337   6.233   9.956 -0.2062  0.2615 -0.4849
  827COC    COC  827   4.603   6.354  10.058  0.2282  0.1340  0.4211
  828COH    COH  828   4.579   6.553   9.925 -0.0788 -0.6790  0.4586
  829COH    COH  829   7.887   9.853   1.262 -0.1800 -0.1790 -0.4585
  830COC    COC  830   7.675   9.866   1.371 -0.2292 -0.1445 -0.1784
  831COC    COC  831   7.604  10.152   1.510  0.0298  0.0470 -0.4443
  832COC    COC  832   7.729   0.060   1.493 -0.4436 -0.0648 -0.0079
  833COC    COC  833   7.987   0.052   1.317 -0.1584  0.0267 -0.1576
  834COC    COC  834   8.264   0.017   1.139  0.3927 -0.1526  0.0557
  835COC    COC  835   8.421   0.265   1.129 -0.0038  0.1568  0.4368
  836COC    COC  836   8.399   0.478   1.315 -0.0172  0.2758  0.2053
  837COC    COC  837   8.615   0.494   1.514  0.0928 -0.0774 -0.1704
  838COC    COC  838   8.532   0.452   1.794  0.0132 -0.1833  0.0434
  839COC    COC  839   8.681   0.233   1.884  0.2232  0.1230  0.1148
  840COC    COC  840   8.696   0.159   2.187  0.2235 -0.1903 -0.2195
  841COC    COC  841   8.630   0.446   2.270  0.1019 -0.0446  0.1195
  842COC    COC  842   8.458   0.673   2.473  0.4596 -0.0737  0.1227
  843COC    COC  843   8.511   0.696   2.773  0.0388  0.0351  0.1131
  844COC    COC  844   8.335   0.848   3.006  0.3413 -0.2649 -0.0898
  845COC    COC  845   8.175   0.653   3.112  0.5538  0.1583 -0.1113
  846COC    COC  846   7.867   0.748   3.250  0.1365  0.3792  0.0401
  847COC    COC  847   7.584   0.830   3.187  0.7058  0.4170 -0.1152
  848COC    COC  848   7.443   0.943   3.422  0.2189 -0.0667 -0.2454
  849COC    COC  849   7.132   0.896   3.560 -0.5337 -0.1614 -0.2003
  850COC    COC  850   6.943   0.830   3.344  0.1408 -0.3197 -0.0940
  851COC    COC  851   7.023   0.905   3.064 -0.7116  0.0637  0.2053
  852COC    COC  852   6.980   1.010   2.802  0.4386 -0.1156  0.1552
  853COC    COC  853   7.125   1.152   2.602 -0.1285  0.1026  0.4424
  854COC    COC  854   7.384   1.157   2.381  0.0325  0.0115 -0.1171
  855COC    COC  855   7.559   1.376   2.287 -0.2212  0.1465 -0.0816
  856COC    COC  856   7.559   1.682   2.244 -0.0063 -0.0249 -0.0538
  857COC    COC  857   7.765   1.889   2.340 -0.2922  0.2987  0.0109
  858COC    COC  858   7.849   2.182   2.202  0.2370 -0.2127 -0.0645
  859COC    COC  859   7.840   2.235   1.890  0.1776 -0.4216  0.2358
  860COC    COC  860   8.045   2.263   1.634 -0.2367  0.0867  0.0583
  861COC    COC  861   8.245   2.000   1.590 -0.1563 -0.2520 -0.0831
  862COC    COC  862   8.460   1.988   1.425 -0.2188  0.2592  0.0106
  863COC    COC  863   8.639   2.242   1.477 -0.0551  0.0492  0.0471
  864COC    COC  864   8.703   2.481   1.289 -0.1788 -0.2448 -0.2022
  865COC    COC  865   8.914   2.506   1.099  0.1932  0.1160 -0.1006
  866COC    COC  866   8.962   2.379   0.805 -0.0994 -0.3785  0.0666
  867COC    COC  867   8.758   2.445   0.566 -0.3166 -0.1904  0.0759
  868COC    COC  868   8.804   2.549   0.282 -0.5163  0.0287 -0.2360
  869COC    COC  869   8.663   2.572   0.024 -0.2096 -0.0340 -0.1946
  870COC    COC  870   8.573   2.297  10.304 -0.0113 -0.1981 -0.0805
  871COC    COC  871   8.314   2.365  10.107 -0.4601  0.0511 -0.2255
  872COC    COC  872   8.386   2.693  10.112 -0.2600  0.1404  0.3003
  873COC    COC  873   8.234   2.909  10.321 -0.1158  0.2166  0.4797
  874COH    COH  874   8.192   3.151  10.226  0.6828  0.1938 -0.0980
  875COH    COH  875   0.207   5.540   5.020 -0.0848  0.2103 -0.5532
  876COC    COC  876   0.418   5.687   5.037 -0.2426  0.3884 -0.1361
  877COC    COC  877   0.674   5.548   4.918 -0.2218 -0.0640  0.2313
  878COC    COC  878   0.906   5.712   4.809 -0.2837 -0.4925 -0.2555
  879COC    COC  879   1.080   5.940   4.851  0.2061  0.2301 -0.2867
  880COC    COC  880   1.374   5.873   4.928  0.2154  0.1171  0.1422
  881COC    COC  881   1.531   6.128   4.774  0.1534  0.2512  0.0400
  882COC    COC  882   1.481   6.363   4.605  0.1991 -0.2030  0.0319
  883COC    COC  883   1.137   6.432   4.542 -0.0609 -0.0924 -0.0281
  884COC    COC  884   0.865   6.263   4.524  0.3262  0.0337 -0.3375
  885COC    COC  885   0.950   6.013   4.373  0.3151 -0.0443  0.3658
  886COC    COC  886   1.215   5.953   4.431 -0.1764 -0.1922  0.0529
  887COC    COC  887   1.313   6.150   4.244  0.2101 -0.2218 -0.0034
  888COC    COC  888   1.164   6.057   3.985  0.1037  0.1527  0.1348
  889COC    COC  889   1.020   5.783   4.023 -0.0500 -0.2134  0.2957
  890COC    COC  890   1.160   5.548   4.130 -0.0817 -0.2587  0.0884
  891COC    COC  891   0.997   5.275   4.081  0.2660 -0.3396  0.2442
  892COC    COC  892   1.159   5.027   3.991  0.4428  0.4221 -0.2309
  893COC    COC  893   1.407   5.009   3.908 -0.2447  0.1005  0.2283
  894COC    COC  894   1.426   5.065   3.592  0.0431  0.0585  0.0618
  895COC    COC  895   1.353   4.934   3.338 -0.4117  0.1428  0.0334
  896COC    COC  896   1.495   4.679   3.286 -0.1727 -0.8562 -0.0647
  897COC    COC  897   1.601   4.445   3.141  0.0508  0.0253  0.5998
  898COC    COC  898   1.763   4.534   2.934 -0.0396 -0.1103 -0.1452
  899COC    COC  899   1.865   4.247   2.826 -0.0503 -0.1256  0.0697
  900COC    COC  900   1.637   4.061   2.757  0.1021 -0.2407  0.1253
  901COC    COC  901   1.385   4.162   2.914  0.3461 -0.1444 -0.1153
  902COC    COC  902   1.301   4.445   2.796 -0.4311  0.1842  0.3079
  903COC    COC  903   1.135   4.626   2.994 -0.0647 -0.2386 -0.2795
  904COC    COC  904   1.159   4.415   3.220 -0.1180  0.0280  0.2466
  905COC    COC  905   0.987   4.529   3.425 -0.1762  0.5693  0.6663
  906COC    COC  906   1.029   4.736   3.648  0.0745  0.0510  0.2725
  907COC    COC  907   1.132   4.511   3.849  0.2480 -0.4453  0.4380
  908COC    COC  908   1.079   4.249   3.775 -0.1563  0.3207  0.6549
  909COC    COC  909   0.823   4.174   3.621  0.1014 -0.2960  0.6535
  910COC    COC  910   0.622   3.932   3.592  0.1041 -0.1757 -0.6146
  911COC    COC  911   0.445   3.734   3.428 -0.2237 -0.0077 -0.2388
  912COC    COC  912   0.434   3.442   3.610 -0.0909  0.2526 -0.0764
  913COC    COC  913   0.734   3.508   3.667  0.2008  0.5292  0.4437
  914COC    COC  914   0.803   3.560   3.370  0.1740 -0.2483  0.3979
  915COC    COC  915   0.769   3.579   3.041  0.1668 -0.3114  0.1198
  916COC    COC  916   1.071   3.601   2.999  0.2429 -0.1675 -0.3999
  917COC    COC  917   1.168   3.324   2.968 -0.3955 -0.1831  0.1549
  918COC    COC  918   1.071   3.176   3.212  0.4169 -0.1013 -0.0161
  919COC    COC  919   1.041   3.154   3.523  0.2314  0.2410 -0.1363
  920COH    COH  920   1.265   3.069   3.648  0.3267  0.3165 -0.5457
  921COH    COH  921   7.047   5.374   9.369  0.3375  0.1049  0.1831
  922COC    COC  922   6.898   5.175   9.405 -0.0583 -0.0350  0.2201
  923COC    COC  923   6.694   5.135   9.174 -0.0339  0.0396  0.1156
  924COC    COC  924   6.691   5.423   9.121  0.1812  0.2995  0.0634
  925COC    COC  925   6.709   5.615   9.373  0.0267 -0.1938 -0.5497
  926COC    COC  926   6.586   5.881   9.376 -0.1197 -0.0731  0.2800
  927COC    COC  927   6.518   5.977   9.648  0.0224 -0.0573 -0.3827
  928COC    COC  928   6.346   5.939   9.887 -0.3560  0.0411  0.0179
  929COC    COC  929   6.050   5.826   9.918  0.4020  0.0573 -0.0024
  930COC    COC  930   5.901   6.099   9.981  0.0183 -0.3181 -0.0678
  931COC    COC  931   6.015   6.399  10.006 -0.0302  0.0507  0.4567
  932COC    COC  932   5.858   6.642   9.973 -0.1394 -0.0281  0.0355
  933COC    COC  933   5.624   6.592   9.784  0.3498  0.3051  0.3257
  934COC    COC  934   5.551   6.278   9.754 -0.0188 -0.0469  0.0288
  935COC    COC  935   5.519   6.336   9.464 -0.3700 -0.2584 -0.1713
  936COC    COC  936   5.221   6.268   9.428 -0.0244 -0.0382  0.3596
  937COC    COC  937   5.263   6.330   9.103  0.0460 -0.0396  0.1550
  938COC    COC  938   5.532   6.437   9.008 -0.1512  0.5802  0.1115
  939COC    COC  939   5.718   6.613   9.154  0.0929  0.0644  0.2056
  940COC    COC  940   5.679   6.889   9.253  0.3710 -0.1652  0.1213
  941COC    COC  941   5.881   7.116   9.170  0.2456 -0.1411  0.3236
  942COC    COC  942   6.049   7.306   9.391  0.2376 -0.1600 -0.0856
  943COC    COC  943   5.946   7.351   9.669 -0.4818  0.1764  0.5042
  944COC    COC  944   5.736   7.393   9.869  0.1613 -0.3876  0.0295
  945COC    COC  945   5.684   7.723   9.889  0.4876  0.1958 -0.3013
  946COC    COC  946   5.384   7.764   9.796  0.0376  0.2270 -0.1026
  947COC    COC  947   5.397   8.050   9.720 -0.1658 -0.0074 -0.0038
  948COC    COC  948   5.408   8.278   9.945 -0.2517 -0.1314 -0.1104
  949COC    COC  949   5.674   8.339  10.085 -0.0857 -0.3288 -0.3796
  950COC    COC  950   5.817   8.450  10.334 -0.2802  0.1630  0.0459
  951COC    COC  951   5.646   8.627   0.147  0.2305 -0.0374 -0.0310
  952COC    COC  952   5.425   8.584   0.363 -0.3543  0.2745  0.1517
  953COC    COC  953   5.556   8.574   0.664 -0.3415 -0.3734  0.1419
  954COC    COC  954   5.751   8.685   0.774 -0.2169 -0.1873  0.2394
  955COC    COC  955   5.642   8.947   0.930 -0.3698  0.1302  0.2619
  956COC    COC  956   5.501   9.131   0.773  0.3222  0.0360  0.1898
  957COC    COC  957   5.387   9.024   0.481  0.2067  0.1278 -0.2237
  958COC    COC  958   5.137   8.833   0.472  0.2698  0.0388  0.0411
  959COC    COC  959   4.919   8.679   0.623  0.2159  0.0895  0.3265
  960COC    COC  960   4.773   8.445   0.515 -0.0760  0.0296  0.1530
  961COC    COC  961   4.736   8.182   0.691 -0.2399 -0.4320  0.0164
  962COC    COC  962   4.516   8.002   0.632 -0.1970 -0.0354 -0.0589
  963COC    COC  963   4.385   7.821   0.417  0.0649 -0.2503 -0.2770
  964COC    COC  964   4.168   7.646   0.524  0.0697  0.2792  0.4416
  965COC    COC  965   4.281   7.403   0.624  0.3129 -0.1054 -0.0002
  966COH    COH  966   4.521   7.474   0.625 -0.6586  0.5435 -0.5745
  967COH    COH  967   2.522   8.908   8.608  0.1047 -0.1203 -0.2015
  968COC    COC  968   2.428   9.009   8.365  0.1790 -0.1019  0.1122
  969COC    COC  969   2.721   9.134   8.296  0.5141  0.2228 -0.0371
  970COC    COC  970   2.876   8.886   8.370  0.1633  0.0167 -0.0183
  971COC    COC  971   2.774   8.599   8.365  0.3076  0.2149  0.0187
  972COC    COC  972   2.973   8.334   8.367 -0.1767  0.2806  0.0025
  973COC    COC  973   2.971   8.062   8.218  0.1819  0.0081 -0.3684
  974COC    COC  974   2.687   7.913   8.168 -0.5431  0.0852 -0.2041
  975COC    COC  975   2.586   7.857   7.904  0.0972  0.2494  0.3157
  976COC    COC  976   2.358   8.033   7.795  0.0385 -0.0816 -0.1138
  977COC    COC  977   2.376   7.996   7.500  0.1420  0.1950 -0.4188
  978COC    COC  978   2.631   7.917   7.399  0.2025  0.6417  0.1644
  979COC    COC  979   2.669   7.641   7.573 -0.1572 -0.0279  0.6788
  980COC    COC  980   2.516   7.420   7.668 -0.1176  0.1405  0.1370
  981COC    COC  981   2.690   7.225   7.813  0.0896 -0.0938 -0.1576
  982COC    COC  982   2.568   7.175   8.094  0.2712  0.2167 -0.0538
  983COC    COC  983   2.302   7.168   8.257 -0.3531 -0.2552  0.0664
  984COC    COC  984   2.300   6.959   8.421 -0.1123  0.2817  0.0618
  985COC    COC  985   2.350   6.671   8.332 -0.1441  0.0803 -0.1969
  986COC    COC  986   2.314   6.645   8.031 -0.1299  0.0451  0.1941
  987COC    COC  987   2.495   6.813   7.870 -0.2500  0.3412 -0.1552
  988COC    COC  988   2.741   6.620   7.792  0.0808  0.1321  0.2737
  989COC    COC  989   2.783   6.448   7.573  0.0297 -0.2099  0.0574
  990COC    COC  990   2.798   6.132   7.632  0.0335  0.0724  0.0372
  991COC    COC  991   2.781   5.982   7.367  0.0447  0.1169  0.2118
  992COC    COC  992   2.541   6.062   7.232 -0.2951 -0.2293 -0.1902
  993COC    COC  993   2.370   5.783   7.218 -0.1040  0.0924  0.0622
  994COC    COC  994   2.118   5.590   7.275 -0.2939  0.1785  0.2815
  995COC    COC  995   1.980   5.293   7.229  0.1741 -0.0780  0.0007
  996COC    COC  996   1.889   5.106   7.441  0.0765  0.0093  0.0609
  997COC    COC  997   1.944   4.876   7.625 -0.2150 -0.3724  0.0707
  998COC    COC  998   2.195   4.825   7.798 -0.0242  0.0815 -0.1380
  999COC    COC  999   2.267   4.950   8.066  0.1679  0.5291 -0.0352
 1000COC    COC 1000   2.428   5.203   8.040  0.1518 -0.2021  0.3027
 1001COC    COC 1001   2.493   5.294   8.298  0.5320 -0.3160 -0.0360
 1002COC    COC 1002   2.769   5.209   8.401  0.1214 -0.1901  0.0567
 1003COC    COC 1003   2.745   5.322   8.703 -0.0471  0.4025  0.0199
 1004COC    COC 1004   2.771   5.629   8.873  0.0364  0.0165  0.0005
 1005COC    COC 1005   2.581   5.714   9.114 -0.1594  0.0408  0.0834
 1006COC    COC 1006   2.491   5.982   9.035 -0.1446 -0.2135  0.1363
 1007COC    COC 1007   2.356   6.219   9.162 -0.3447 -0.1166  0.1034
 1008COC    COC 1008   2.112   6.145   9.304  0.3484 -0.0895  0.2660
 1009COC    COC 1009   2.165   6.300   9.592  0.2437 -0.6215  0.3556
 1010COC    COC 1010   1.911   6.441   9.695 -0.2117  0.2975  0.1028
 1011COC    COC 1011   1.871   6.699   9.578 -0.0192  0.1311 -0.1858
 1012COH    COH 1012   1.753   6.789   9.363 -0.2481 -0.1647 -0.0066
 1013COH    COH 1013   8.431   6.189   0.272  0.3142  0.4918 -0.1878
 1014COC    COC 1014   8.209   6.072   0.398  0.0124  0.0315  0.0187
 1015COC    COC 1015   8.082   5.792   0.444 -0.0054 -0.2430 -0.2170
 1016COC    COC 1016   8.098   5.507   0.390 -0.2900 -0.0519  0.1702
 1017COC    COC 1017   7.853   5.273   0.402  0.0939 -0.1400 -0.1264
 1018COC    COC 1018   7.614   5.433   0.521  0.4323 -0.0784 -0.2335
 1019COC    COC 1019   7.455   5.585   0.694 -0.1197  0.0315 -0.1598
 1020COC    COC 1020   7.170   5.571   0.671  0.1483  0.0799 -0.2005
 1021COC    COC 1021   6.944   5.829   0.739  0.4040  0.2904 -0.1825
 1022COC    COC 1022   6.972   5.942   1.032  0.2309 -0.2171  0.1358
 1023COC    COC 1023   7.065   6.196   1.194  0.1699  0.1371  0.4866
 1024COC    COC 1024   7.129   6.301   1.455 -0.2605 -0.2187 -0.2265
 1025COC    COC 1025   7.333   6.170   1.675  0.6249 -0.2758 -0.0138
 1026COC    COC 1026   7.496   6.363   1.828 -0.1213 -0.4098  0.0114
 1027COC    COC 1027   7.636   6.251   2.111 -0.2145  0.2643 -0.0081
 1028COC    COC 1028   7.930   6.361   2.048 -0.0213  0.4145  0.0490
 1029COC    COC 1029   8.219   6.235   2.038 -0.2054 -0.3474  0.3125
 1030COC    COC 1030   8.356   6.049   2.252 -0.1953 -0.2763 -0.2664
 1031COC    COC 1031   8.563   6.126   2.510 -0.2897  0.0774  0.3358
 1032COC    COC 1032   8.431   6.085   2.762 -0.1738 -0.2864  0.6668
 1033COC    COC 1033   8.453   5.808   2.849  0.4639 -0.2407  0.2422
 1034COC    COC 1034   8.699   5.649   2.950  0.3386 -0.3555  0.2960
 1035COC    COC 1035   8.592   5.403   2.801 -0.0631 -0.0891  0.1558
 1036COC    COC 1036   8.760   5.141   2.820  0.1528 -0.1276  0.4376
 1037COC    COC 1037   9.007   5.156   3.008  0.3660  0.0108 -0.2505
 1038COC    COC 1038   8.987   4.985   3.236  0.3402  0.2449  0.0627
 1039COC    COC 1039   9.104   4.767   3.426  0.4431  0.2134  0.2129
 1040COC    COC 1040   9.358   4.913   3.511  0.2670 -0.0303  0.0294
 1041COC    COC 1041   9.586   4.856   3.335  0.3889  0.0540 -0.5083
 1042COC    COC 1042   9.546   4.969   3.065 -0.5527 -0.0973 -0.1750
 1043COC    COC 1043   9.430   4.979   2.821  0.1520 -0.0855 -0.1485
 1044COC    COC 1044   9.164   4.892   2.726 -0.1106  0.2604 -0.0284
 1045COC    COC 1045   9.166   4.948   2.464  0.3805  0.1537 -0.1152
 1046COC    COC 1046   8.878   4.963   2.440 -0.1482  0.0483  0.2157
 1047COC    COC 1047   8.784   5.113   2.210  0.0519  0.1671 -0.0483
 1048COC    COC 1048   8.684   4.998   1.970  0.0770  0.4857 -0.0051
 1049COC    COC 1049   8.531   5.228   1.790 -0.0847 -0.0062 -0.2838
 1050COC    COC 1050   8.327   5.367   1.953 -0.3511  0.0571  0.3761
 1051COC    COC 1051   8.365   5.666   1.960 -0.2691  0.0421 -0.0536
 1052COC    COC 1052   8.273   5.759   1.732  0.2928 -0.3209  0.3723
 1053COC    COC 1053   8.283   5.499   1.539 -0.5705  0.3707  0.4010
 1054COC    COC 1054   8.160   5.449   1.272 -0.1060  0.0109 -0.1794
 1055COC    COC 1055   8.064   5.185   1.162  0.0289  0.0756  0.0242
 1056COC    COC 1056   7.973   5.083   0.879 -0.1440 -0.1039 -0.1290
 1057COC    COC 1057   7.799   4.813   0.819 -0.1347 -0.2026  0.1089
 1058COH    COH 1058   7.714   4.831   1.048 -0.3299  0.3802 -0.1748
 1059COH    COH 1059   3.910   4.497   3.547 -0.2674  0.1352  0.6421
 1060COC    COC 1060   3.946   4.757   3.567 -0.2334 -0.2323  0.0681
 1061COC    COC 1061   3.985   4.876   3.268  0.1121  0.0578  0.0700
 1062COC    COC 1062   4.243   4.739   3.192 -0.1381 -0.2812  0.1213
 1063COC    COC 1063   4.348   4.803   2.879  0.0206 -0.4201 -0.1119
 1064COC    COC 1064   4.092   4.774   2.703  0.0231 -0.2500  0.1559
 1065COC    COC 1065   3.806   4.840   2.733  0.0658 -0.1657 -0.0740
 1066COC    COC 1066   3.683   4.992   2.954  0.0003 -0.1286  0.0099
 1067COC    COC 1067   3.494   4.802   3.081 -0.1818  0.4540 -0.0309
 1068COC    COC 1068   3.445   4.559   2.850 -0.3108  0.1049  0.0333
 1069COC    COC 1069   3.430   4.276   2.937 -0.0970  0.1388 -0.2896
 1070COC    COC 1070   3.491   4.147   2.669 -0.1199  0.1448  0.0371
 1071COC    COC 1071   3.718   4.298   2.513  0.0240 -0.4840 -0.0148
 1072COC    COC 1072   4.037   4.343   2.522  0.1411 -0.1710  0.2202
 1073COC    COC 1073   4.161   4.055   2.437  0.0962  0.5646 -0.5000
 1074COC    COC 1074   4.346   3.832   2.325  0.0151  0.1398 -0.0427
 1075COC    COC 1075   4.503   3.558   2.455  0.1237  0.2826 -0.4950
 1076COC    COC 1076   4.764   3.490   2.346  0.3944 -0.1673 -0.4597
 1077COC    COC 1077   5.021   3.402   2.367  0.2235  0.0673 -0.0352
 1078COC    COC 1078   5.173   3.596   2.553 -0.0815  0.0682  0.2740
 1079COC    COC 1079   5.440   3.589   2.406 -0.0704  0.0964 -0.2790
 1080COC    COC 1080   5.729   3.563   2.525  0.3090  0.2424 -0.0496
 1081COC    COC 1081   5.892   3.817   2.417  0.0187 -0.3237  0.3997
 1082COC    COC 1082   5.868   4.114   2.344 -0.3991  0.0003 -0.0470
 1083COC    COC 1083   5.908   4.251   2.059  0.2294 -0.4325  0.4181
 1084COC    COC 1084   5.666   4.387   1.918  0.1668  0.0927  0.1567
 1085COC    COC 1085   5.391   4.359   1.851 -0.0307  0.1583 -0.0249
 1086COC    COC 1086   5.257   4.092   1.834  0.3192  0.4945  0.0101
 1087COC    COC 1087   4.976   4.098   1.673 -0.3078 -0.0393 -0.0741
 1088COC    COC 1088   4.967   4.186   1.366 -0.3840  0.2591  0.0167
 1089COC    COC 1089   4.871   4.243   1.076 -0.2760 -0.0394 -0.0439
 1090COC    COC 1090   4.575   4.259   1.109  0.2124  0.0929  0.3494
 1091COC    COC 1091   4.393   4.354   0.924 -0.2609  0.1152  0.0059
 1092COC    COC 1092   4.328   4.441   0.626  0.0247  0.3279 -0.1843
 1093COC    COC 1093   4.095   4.449   0.447  0.0230  0.2535  0.2209
 1094COC    COC 1094   3.876   4.559   0.329  0.1834  0.1063 -0.3104
 1095COC    COC 1095   3.585   4.487   0.163  0.2554  0.0549 -0.0505
 1096COC    COC 1096   3.601   4.295  10.301  0.3164  0.0460  0.1504
 1097COC    COC 1097   3.517   4.012   0.010 -0.2925 -0.1661 -0.1303
 1098COC    COC 1098   3.318   3.953  10.115  0.1957 -0.3492 -0.4347
 1099COC    COC 1099   3.223   3.622  10.053 -0.6050  0.3694  0.1560
 1100COC    COC 1100   3.432   3.394  10.097 -0.2926  0.0251 -0.0533
 1101COC    COC 1101   3.547   3.131   9.945 -0.1793 -0.1459  0.3212
 1102COC    COC 1102   3.477   3.107   9.650 -0.4833  0.1282  0.0993
 1103COC    COC 1103   3.314   3.197   9.428  0.1277  0.4661 -0.0082
 1104COH    COH 1104   3.373   3.387   9.253 -0.0823 -0.3942 -0.3389
 1105COH    COH 1105   0.738   5.081  10.256  0.0078 -0.8178 -0.2358
 1106COC    COC 1106   0.744   5.356  10.142 -0.1720  0.2205  0.0738
 1107COC    COC 1107   0.769   5.485   0.039 -0.4253  0.0611 -0.2998
 1108COC    COC 1108   0.997   5.604   0.230  0.4054 -0.1566  0.0446
 1109COC    COC 1109   1.034   5.910   0.198 -0.2974 -0.0000 -0.2569
 1110COC    COC 1110   0.749   5.983   0.098 -0.4272  0.0441  0.1092
 1111COC    COC 1111   0.543   5.940   0.267 -0.0456  0.0273 -0.3623
 1112COC    COC 1112   0.472   5.854   0.533  0.0164 -0.1152  0.0457
 1113COC    COC 1113   0.609   5.630   0.706  0.0405 -0.3325  0.2153
 1114COC    COC 1114   0.646   5.327   0.592 -0.0607 -0.0657 -0.0958
 1115COC    COC 1115   0.741   5.055   0.638 -0.2659  0.1036 -0.2459
 1116COC    COC 1116   0.734   4.798   0.808 -0.3541  0.2952 -0.0168
 1117COC    COC 1117   0.773   4.551   0.602 -0.0649 -0.0854 -0.0332
 1118COC    COC 1118   0.581   4.510   0.340 -0.0560 -0.0604  0.0269
 1119COC    COC 1119   0.341   4.605   0.231 -0.0132 -0.0108  0.1420
 1120COC    COC 1120   0.101   4.403   0.239  0.2927 -0.3781 -0.1272
 1121COC    COC 1121  10.315   4.216   0.053 -0.0918 -0.0843 -0.1806
 1122COC    COC 1122   0.098   4.210  10.136 -0.2616 -0.2437  0.0743
 1123COC    COC 1123   0.382   4.030  10.082 -0.0755 -0.3017 -0.2032
 1124COC    COC 1124   0.579   4.036   9.833  0.3906  0.0176 -0.2126
 1125COC    COC 1125   0.626   4.001   9.528  0.3739 -0.1194  0.1428
 1126COC    COC 1126   0.496   4.164   9.347 -0.0702 -0.0587 -0.0830
 1127COC    COC 1127   0.372   4.392   9.477  0.2458  0.2832 -0.0312
 1128COC    COC 1128   0.265   4.510   9.737 -0.0195 -0.1511 -0.1772
 1129COC    COC 1129   0.196   4.817   9.720 -0.0762 -0.1189  0.0406
 1130COC    COC 1130  10.285   4.884   9.845  0.3643  0.1437  0.0250
 1131COC    COC 1131  10.036   4.924   9.636 -0.1802  0.1945 -0.2639
 1132COC    COC 1132   9.826   4.792   9.827 -0.4688  0.1095  0.3328
 1133COC    COC 1133   9.771   4.741  10.138 -0.3002  0.0959  0.6191
 1134COC    COC 1134   9.660   4.530  10.230 -0.1363  0.2512  0.3366
 1135COC    COC 1135   9.623   4.375   0.165  0.0425 -0.1770  0.4096
 1136COC    COC 1136   9.512   4.082   0.156 -0.2267 -0.0990 -0.1448
 1137COC    COC 1137   9.299   4.032   0.389  0.1176  0.5970 -0.2969
 1138COC    COC 1138   9.372   3.979   0.656  0.1584  0.0410  0.0625
 1139COC    COC 1139   9.450   3.713   0.823  0.2556 -0.2013  0.3202
 1140COC    COC 1140   9.359   3.736   1.133 -0.0890  0.1268 -0.3445
 1141COC    COC 1141   9.089   3.783   1.264  0.2668 -0.1893 -0.2896
 1142COC    COC 1142   9.211   3.889   1.519 -0.1512  0.1553  0.0557
 1143COC    COC 1143   9.485   4.015   1.469 -0.6827 -0.3704 -0.3101
 1144COC    COC 1144   9.597   4.312   1.515  0.2600 -0.0802 -0.1273
 1145COC    COC 1145   9.813   4.391   1.318  0.0019  0.1650  0.1507
 1146COC    COC 1146  10.020   4.192   1.368  0.1402  0.2869  0.1801
 1147COC    COC 1147  10.309   4.079   1.360  0.0160  0.1565  0.2880
 1148COC    COC 1148   0.064   3.857   1.239 -0.4282  0.5088  0.0086
 1149COC    COC 1149   0.299   4.001   1.099 -0.1241 -0.1442 -0.1401
 1150COH    COH 1150   0.220   4.117   0.881  0.3496  0.1557  0.1436
 1151COH    COH 1151   1.583   5.475   6.549 -0.2343 -0.4127 -0.5294
 1152COC    COC 1152   1.720   5.684   6.682  0.2158  0.3288  0.3712
 1153COC    COC 1153   1.981   5.681   6.870 -0.3104 -0.0270 -0.0417
 1154COC    COC 1154   2.235   5.863   6.828 -0.3368  0.1061  0.2786
 1155COC    COC 1155   2.181   6.040   6.600 -0.0728  0.0190  0.3343
 1156COC    COC 1156   2.336   6.309   6.518  0.5164  0.2060  0.0324
 1157COC    COC 1157   2.562   6.435   6.696 -0.0797 -0.0406  0.0047
 1158COC    COC 1158   2.570   6.687   6.553  0.1974 -0.0105 -0.1857
 1159COC    COC 1159   2.746   6.855   6.375 -0.1701 -0.0880 -0.1279
 1160COC    COC 1160   2.852   6.802   6.112  0.4173  0.2237  0.0132
 1161COC    COC 1161   3.147   6.837   6.003 -0.0543 -0.0556  0.4774
 1162COC    COC 1162   3.248   6.589   5.904  0.4785 -0.3284  0.6168
 1163COC    COC 1163   3.520   6.542   5.836  0.1094  0.1451  0.0020
 1164COC    COC 1164   3.681   6.692   5.626 -0.1958  0.2120 -0.1748
 1165COC    COC 1165   3.717   6.439   5.485  0.2275 -0.0785  0.1777
 1166COC    COC 1166   3.762   6.430   5.164  0.2973 -0.1223  0.2065
 1167COC    COC 1167   3.581   6.529   4.943 -0.0847 -0.2818 -0.0038
 1168COC    COC 1168   3.418   6.314   4.852  0.3631 -0.3555 -0.1233
 1169COC    COC 1169   3.594   6.154   4.638  0.1366 -0.0223 -0.1769
 1170COC    COC 1170   3.793   6.288   4.500  0.4635 -0.1242 -0.0235
 1171COC    COC 1171   3.922   6.564   4.577  0.1585 -0.1979 -0.2891
 1172COC    COC 1172   3.784   6.810   4.590  0.3707 -0.2536 -0.1960
 1173COC    COC 1173   3.531   6.714   4.451  0.0343  0.1243  0.3632
 1174COC    COC 1174   3.382   6.457   4.409  0.1477  0.0599 -0.2959
 1175COC    COC 1175   3.215   6.385   4.129 -0.1528 -0.1383  0.0726
 1176COC    COC 1176   2.961   6.532   4.089  0.1357 -0.2318  0.0154
 1177COC    COC 1177   2.684   6.419   4.212  0.2016  0.3975 -0.2531
 1178COC    COC 1178   2.456   6.569   4.287 -0.1447 -0.0067  0.0527
 1179COC    COC 1179   2.231   6.366   4.189 -0.2590 -0.3523 -0.0908
 1180COC    COC 1180   2.358   6.177   4.013 -0.0821  0.1879  0.2494
 1181COC    COC 1181   2.387   6.018   3.732 -0.1608 -0.0239  0.1570
 1182COC    COC 1182   2.455   6.218   3.480 -0.4517 -0.0964  0.2539
 1183COC    COC 1183   2.554   6.517   3.366 -0.0009  0.1921 -0.5648
 1184COC    COC 1184   2.266   6.607   3.391  0.1412  0.4477 -0.0417
 1185COC    COC 1185   2.029   6.459   3.237  0.0262 -0.1697  0.1439
 1186COC    COC 1186   1.846   6.574   2.987 -0.0418 -0.0927 -0.1368
 1187COC    COC 1187   1.778   6.307   2.930 -0.1904  0.4091  0.3631
 1188COC    COC 1188   1.470   6.262   2.967 -0.1683  0.2829  0.0668
 1189COC    COC 1189   1.272   6.505   3.013  0.0720 -0.0730 -0.0870
 1190COC    COC 1190   1.480   6.728   2.987 -0.2486  0.1168 -0.1207
 1191COC    COC 1191   1.401   6.914   2.770 -0.2265 -0.0215  0.0829
 1192COC    COC 1192   1.312   6.945   2.479 -0.0517 -0.0855  0.0172
 1193COC    COC 1193   1.270   6.632   2.351  0.2318 -0.0917  0.2324
 1194COC    COC 1194   1.207   6.410   2.126  0.0417 -0.0921 -0.0157
 1195COC    COC 1195   0.970   6.320   1.950  0.1415 -0.0825  0.1158
 1196COH    COH 1196   0.759   6.405   2.056  0.5312 -0.2374  0.1591
 1197COH    COH 1197   5.826   9.106   3.845 -0.0799 -0.2621  0.5664
 1198COC    COC 1198   6.071   9.204   3.784 -0.2943  0.3532  0.2882
 1199COC    COC 1199   6.015   9.511   3.721 -0.0096 -0.2602 -0.1486
 1200COC    COC 1200   6.145   9.693   3.512  0.0869 -0.0210 -0.1470
 1201COC    COC 1201   6.103   9.872   3.290  0.1663 -0.0193  0.2249
 1202COC    COC 1202   6.305   9.955   3.125 -0.1864 -0.1432  0.3739
 1203COC    COC 1203   6.539  10.162   3.142 -0.2487 -0.1956  0.0519
 1204COC    COC 1204   6.457   0.145   3.182 -0.2391 -0.0624  0.1527
 1205COC    COC 1205   6.638   0.377   3.255 -0.0560  0.1492  0.2179
 1206COC    COC 1206   6.906   0.298   3.347 -0.4484 -0.2565 -0.2539
 1207COC    COC 1207   7.104   0.061   3.253  0.2726  0.2446 -0.3927
 1208COC    COC 1208   7.292  10.269   3.462  0.0041 -0.0178  0.1636
 1209COC    COC 1209   7.181  10.314   3.789 -0.0758 -0.1820  0.0415
 1210COC    COC 1210   7.058   0.225   3.848 -0.0397  0.3251 -0.3248
 1211COC    COC 1211   7.259   0.300   4.047  0.0459  0.5168 -0.2312
 1212COC    COC 1212   7.274   0.172   4.324 -0.3905  0.0396  0.0668
 1213COC    COC 1213   7.213   0.351   4.572 -0.0026  0.1423  0.2795
 1214COC    COC 1214   7.103   0.260   4.839 -0.2909  0.5083  0.3715
 1215COC    COC 1215   7.343   0.087   4.912  0.1833  0.2765  0.1965
 1216COC    COC 1216   7.575   0.263   5.060 -0.1339 -0.2349  0.0362
 1217COC    COC 1217   7.668   0.566   4.965 -0.2590 -0.0344 -0.0166
 1218COC    COC 1218   7.384   0.583   4.876  0.5525  0.4402 -0.0179
 1219COC    COC 1219   7.200   0.556   5.089  0.0893 -0.1545  0.3780
 1220COC    COC 1220   7.284   0.602   5.336 -0.0216 -0.3993  0.4744
 1221COC    COC 1221   7.555   0.650   5.409  0.0523 -0.2972  0.3256
 1222COC    COC 1222   7.842   0.626   5.352 -0.5057  0.1787 -0.2142
 1223COC    COC 1223   7.933   0.899   5.167 -0.1547  0.3752  0.0073
 1224COC    COC 1224   8.047   0.782   4.906  0.0093 -0.0283  0.2148
 1225COC    COC 1225   7.847   0.920   4.700 -0.1009 -0.1994  0.1866
 1226COC    COC 1226   7.702   1.162   4.778 -0.2368 -0.4017 -0.4992
 1227COC    COC 1227   7.418   1.180   4.635 -0.2329  0.2130 -0.1470
 1228COC    COC 1228   7.230   0.918   4.628  0.1299  0.0240  0.2253
 1229COC    COC 1229   7.263   0.730   4.366  0.4127 -0.0445 -0.1558
 1230COC    COC 1230   7.461   0.829   4.166  0.0115  0.0977  0.0662
 1231COC    COC 1231   7.537   0.698   3.881  0.1742 -0.0742 -0.2989
 1232COC    COC 1232   7.821   0.661   3.809 -0.1775  0.3108 -0.1229
 1233COC    COC 1233   7.906   0.478   3.618  0.1317  0.2883  0.3046
 1234COC    COC 1234   8.021   0.368   3.358 -0.1721  0.3364  0.1450
 1235COC    COC 1235   8.228   0.189   3.389  0.1251 -0.1204  0.0607
 1236COC    COC 1236   8.510   0.246   3.186 -0.1405  0.2182 -0.2004
 1237COC    COC 1237   8.703  10.351   3.135 -0.0558 -0.0992 -0.3562
 1238COC    COC 1238   8.996  10.297   3.209  0.1382  0.0523 -0.0153
 1239COC    COC 1239   9.105  10.304   2.920  0.2397  0.2769  0.0472
 1240COC    COC 1240   9.246  10.100   2.752 -0.0039  0.5187 -0.1631
 1241COC    COC 1241   9.038  10.056   2.528 -0.0239 -0.3522 -0.1518
 1242COH    COH 1242   9.075   9.880   2.367 -0.0013 -0.0011  0.4427
 1243COH    COH 1243   5.867   4.677   4.178 -0.3391 -0.0260  0.3734
 1244COC    COC 1244   5.805   4.459   4.290 -0.3507  0.2651  0.1072
 1245COC    COC 1245   5.663   4.247   4.082  0.3607 -0.3055 -0.2435
 1246COC    COC 1246   5.341   4.218   4.076  0.0656 -0.1964 -0.4406
 1247COC    COC 1247   5.099   4.427   4.111  0.2055 -0.1197  0.3753
 1248COC    COC 1248   5.152   4.725   4.168  0.1454  0.0628  0.4829
 1249COC    COC 1249   4.889   4.808   4.190 -0.2080  0.0620  0.0078
 1250COC    COC 1250   4.733   4.868   3.941 -0.0065  0.1495 -0.1598
 1251COC    COC 1251   4.632   5.114   3.808  0.2618  0.3230 -0.1914
 1252COC    COC 1252   4.771   5.153   3.542  0.2197 -0.3561 -0.0172
 1253COC    COC 1253   4.869   4.934   3.390  0.0700 -0.0679 -0.1328
 1254COC    COC 1254   4.678   4.717   3.254  0.0973 -0.1555  0.3284
 1255COC    COC 1255   4.864   4.657   3.016  0.0931  0.1859  0.3244
 1256COC    COC 1256   4.720   4.676   2.793 -0.0700  0.3914  0.0509
 1257COC    COC 1257   4.802   4.470   2.590  0.2415  0.0285 -0.1897
 1258COC    COC 1258   4.540   4.336   2.503 -0.1208  0.0574  0.4852
 1259COC    COC 1259   4.405   4.584   2.375 -0.0619  0.1957 -0.1275
 1260COC    COC 1260   4.280   4.843   2.284  0.2657  0.4898 -0.0300
 1261COC    COC 1261   4.020   4.981   2.342  0.2248  0.3736 -0.2385
 1262COC    COC 1262   4.075   5.204   2.530  0.0898  0.0810 -0.1950
 1263COC    COC 1263   4.094   5.201   2.846  0.2067  0.3823 -0.0401
 1264COC    COC 1264   4.200   5.504   2.945 -0.1023  0.1028  0.0639
 1265COC    COC 1265   4.301   5.713   3.125  0.0907  0.4425 -0.2900
 1266COC    COC 1266   4.633   5.629   3.084 -0.2074 -0.0635 -0.0343
 1267COC    COC 1267   4.907   5.707   2.943 -0.0786 -0.1620  0.1363
 1268COC    COC 1268   5.103   5.563   2.754  0.0184  0.3147  0.1523
 1269COC    COC 1269   5.374   5.492   2.604  0.0745 -0.0623  0.5194
 1270COC    COC 1270   5.419   5.552   2.306 -0.1570  0.0515  0.2913
 1271COC    COC 1271   5.619   5.506   2.036  0.1499  0.2771  0.0665
 1272COC    COC 1272   5.445   5.506   1.758 -0.1148 -0.0012 -0.5143
 1273COC    COC 1273   5.400   5.750   1.579 -0.0203 -0.1778  0.2533
 1274COC    COC 1274   5.653   5.909   1.604 -0.4948 -0.1921 -0.2180
 1275COC    COC 1275   5.678   6.201   1.746 -0.4971  0.0146 -0.2502
 1276COC    COC 1276   5.612   6.501   1.693  0.0301 -0.4904  0.1862
 1277COC    COC 1277   5.371   6.544   1.858  0.1040 -0.2488  0.0173
 1278COC    COC 1278   5.141   6.625   1.684 -0.3443  0.1174 -0.3033
 1279COC    COC 1279   5.131   6.906   1.523 -0.2377 -0.1319 -0.5173
 1280COC    COC 1280   5.011   7.074   1.333  0.4107 -0.1980  0.3277
 1281COC    COC 1281   4.797   6.927   1.208 -0.3189  0.5082 -0.0792
 1282COC    COC 1282   4.701   6.640   1.103  0.0908 -0.0943  0.0370
 1283COC    COC 1283   4.642   6.539   1.403 -0.0130 -0.3535 -0.1607
 1284COC    COC 1284   4.818   6.369   1.581 -0.1105 -0.0236  0.2892
 1285COC    COC 1285   4.784   6.323   1.871  0.2703  0.3368 -0.2250
 1286COC    COC 1286   4.971   6.149   2.005  0.0119 -0.0601 -0.0598
 1287COC    COC 1287   4.915   6.237   2.290 -0.6195 -0.1968  0.2112
 1288COH    COH 1288   4.983   6.456   2.401 -0.1497 -0.1264  0.2495
 1289COH    COH 1289   2.617   6.049   9.425 -0.0438 -0.2093  0.2057
 1290COC    COC 1290   2.846   6.137   9.313 -0.0926  0.0467 -0.1789
 1291COC    COC 1291   3.006   6.155   9.600 -0.0964 -0.2273  0.2228
 1292COC    COC 1292   3.046   6.119   9.891  0.0641 -0.4360 -0.1226
 1293COC    COC 1293   3.266   6.235  10.038 -0.3999  0.0639  0.1671
 1294COC    COC 1294   3.530   6.144  10.115  0.3165  0.0624  0.3008
 1295COC    COC 1295   3.808   6.182  10.155 -0.1275 -0.0229 -0.1456
 1296COC    COC 1296   3.928   6.419  10.011 -0.0357 -0.4409  0.1176
 1297COC    COC 1297   4.030   6.505   9.741 -0.4632  0.3771 -0.1528
 1298COC    COC 1298   3.982   6.339   9.509 -0.0510  0.0969  0.5575
 1299COC    COC 1299   3.764   6.302   9.295  0.3863 -0.4458 -0.1354
 1300COC    COC 1300   3.518   6.107   9.322 -0.2981  0.0356  0.0897
 1301COC    COC 1301   3.577   5.886   9.058 -0.3891 -0.5327 -0.4166
 1302COC    COC 1302   3.809   6.021   8.881  0.3185  0.1517  0.0050
 1303COC    COC 1303   4.106   5.986   8.840  0.0900 -0.2159  0.1422
 1304COC    COC 1304   4.077   5.896   8.521  0.1089 -0.0662  0.2171
 1305COC    COC 1305   4.116   5.947   8.220  0.1068  0.0666  0.4193
 1306COC    COC 1306   4.218   6.190   8.052  0.0489  0.1748  0.0738
 1307COC    COC 1307   4.009   6.433   8.054  0.3724  0.2129 -0.2699
 1308COC    COC 1308   4.067   6.654   7.842 -0.8535 -0.0953 -0.0137
 1309COC    COC 1309   3.867   6.906   7.894 -0.2133 -0.0958  0.6707
 1310COC    COC 1310   3.599   7.056   7.945  0.3771  0.0100 -0.1571
 1311COC    COC 1311   3.407   6.987   8.194 -0.3213 -0.0534  0.3976
 1312COC    COC 1312   3.172   7.052   8.371  0.0738 -0.2846 -0.2412
 1313COC    COC 1313   3.284   7.006   8.649 -0.2162  0.4053  0.0446
 1314COC    COC 1314   3.447   6.708   8.569  0.4228 -0.4493  0.1394
 1315COC    COC 1315   3.341   6.426   8.512  0.3953  0.0986 -0.0266
 1316COC    COC 1316   3.235   6.318   8.256  0.0384 -0.2311 -0.1176
 1317COC    COC 1317   2.964   6.251   8.266  0.6957 -0.2695  0.1445
 1318COC    COC 1318   2.744   6.374   8.433  0.2659 -0.2151 -0.5392
 1319COC    COC 1319   2.500   6.245   8.571 -0.0168 -0.5065  0.1793
 1320COC    COC 1320   2.254   6.260   8.785 -0.1068  0.2295 -0.2243
 1321COC    COC 1321   1.961   6.278   8.937  0.0052 -0.1218  0.2454
 1322COC    COC 1322   1.672   6.194   8.779 -0.3149  0.2140  0.0951
 1323COC    COC 1323   1.551   6.470   8.752 -0.0479  0.3289  0.0311
 1324COC    COC 1324   1.638   6.618   8.999 -0.0227  0.1294  0.0857
 1325COC    COC 1325   1.431   6.813   9.066 -0.3159 -0.1418 -0.2824
 1326COC    COC 1326   1.552   7.073   8.937 -0.5341  0.1682  0.2072
 1327COC    COC 1327   1.812   7.155   8.776  0.0414  0.1036  0.5185
 1328COC    COC 1328   1.939   7.432   8.777 -0.3158 -0.0027 -0.0510
 1329COC    COC 1329   2.189   7.456   8.609 -0.0151  0.2316 -0.2066
 1330COC    COC 1330   2.494   7.421   8.599 -0.4898  0.2588 -0.1688
 1331COC    COC 1331   2.579   7.688   8.473 -0.2104  0.3297  0.0986
 1332COC    COC 1332   2.490   7.948   8.573  0.2952 -0.1950 -0.1904
 1333COC    COC 1333   2.273   7.865   8.805  0.0800  0.4619  0.2666
 1334COH    COH 1334   2.386   7.699   8.964 -0.2309 -0.4351 -0.2472
 1335COH    COH 1335   5.193   2.001   9.411  0.6565  0.1409  0.0246
 1336COC    COC 1336   4.977   2.099   9.240 -0.3245  0.3579 -0.1557
 1337COC    COC 1337   4.678   2.122   9.332  0.0327  0.1929  0.0947
 1338COC    COC 1338   4.394   2.197   9.315  0.0164 -0.1062  0.2534
 1339COC    COC 1339   4.187   2.012   9.453 -0.3634 -0.1784 -0.2457
 1340COC    COC 1340   4.282   1.709   9.453 -0.1615 -0.2396 -0.2117
 1341COC    COC 1341   4.266   1.696   9.166  0.1397  0.1563 -0.2122
 1342COC    COC 1342   4.569   1.751   9.164 -0.2775 -0.0411 -0.1498
 1343COC    COC 1343   4.640   1.944   8.886 -0.0176  0.0719  0.0955
 1344COC    COC 1344   4.920   1.956   8.824 -0.0847  0.0949  0.0867
 1345COC    COC 1345   5.097   2.161   8.736  0.0730 -0.4669  0.0968
 1346COC    COC 1346   5.393   2.146   8.822  0.2135  0.0594  0.0387
 1347COC    COC 1347   5.448   2.010   9.063 -0.3315  0.1984 -0.3799
 1348COC    COC 1348   5.685   1.936   9.241  0.0421 -0.0785 -0.4464
 1349COC    COC 1349   5.874   1.970   9.004 -0.2717 -0.2378  0.2872
 1350COC    COC 1350   5.975   1.680   8.977  0.2286 -0.1463 -0.1710
 1351COC    COC 1351   5.890   1.451   9.222  0.3809 -0.5010 -0.1125
 1352COC    COC 1352   6.079   1.414   9.439  0.0896 -0.0662  0.0444
 1353COC    COC 1353   6.273   1.177   9.395  0.0330 -0.1912  0.1514
 1354COC    COC 1354   6.294   0.938   9.201  0.0784  0.0765 -0.1228
 1355COC    COC 1355   6.252   0.669   9.303 -0.1496  0.0398  0.0025
 1356COC    COC 1356   6.029   0.494   9.420  0.0344  0.0728 -0.0850
 1357COC    COC 1357   5.778   0.599   9.310 -0.2916  0.0482 -0.3259
 1358COC    COC 1358   5.524   0.439   9.216 -0.0109  0.0189  0.0479
 1359COC    COC 1359   5.461   0.497   8.926 -0.0410 -0.0211  0.2970
 1360COC    COC 1360   5.688   0.447   8.736  0.1826  0.3119  0.4873
 1361COC    COC 1361   5.799   0.220   8.534  0.2854  0.1190  0.4431
 1362COC    COC 1362   5.995   0.235   8.256 -0.0879 -0.1144  0.1833
 1363COC    COC 1363   6.043   0.480   8.059 -0.1775 -0.3276  0.1868
 1364COC    COC 1364   6.033   0.592   7.767 -0.1381 -0.2773 -0.2039
 1365COC    COC 1365   5.867   0.744   7.635 -0.0847  0.1698  0.2204
 1366COC    COC 1366   5.886   0.882   7.371 -0.3766  0.1580 -0.3900
 1367COC    COC 1367   5.748   1.102   7.220  0.3907  0.0484  0.3066
 1368COC    COC 1368   5.890   1.290   7.046 -0.1621 -0.1063 -0.3325
 1369COC    COC 1369   5.850   1.518   7.244 -0.2574 -0.1131 -0.0480
 1370COC    COC 1370   5.676   1.470   7.482  0.0595 -0.0564  0.1121
 1371COC    COC 1371   5.412   1.570   7.596 -0.1589  0.0267  0.2770
 1372COC    COC 1372   5.188   1.434   7.722  0.0610 -0.2305  0.0142
 1373COC    COC 1373   4.972   1.548   7.509  0.3760  0.0784  0.0610
 1374COC    COC 1374   5.060   1.463   7.253  0.0846 -0.4375 -0.1438
 1375COC    COC 1375   5.065   1.648   6.999 -0.1963  0.0109  0.0953
 1376COC    COC 1376   4.955   1.931   7.140 -0.1388  0.1371  0.2970
 1377COC    COC 1377   5.085   1.968   7.415 -0.1950  0.1571 -0.4727
 1378COC    COC 1378   5.052   2.198   7.624 -0.0725  0.2652  0.0881
 1379COC    COC 1379   4.841   2.258   7.838  0.2064  0.3912 -0.1153
 1380COH    COH 1380   4.683   2.308   7.643  0.2255  0.1220  0.3143
 1381COH    COH 1381   1.973   1.539   7.081 -0.2006  0.0149  0.3106
 1382COC    COC 1382   1.938   1.470   6.825 -0.6254  0.2778  0.1395
 1383COC    COC 1383   1.936   1.645   6.570  0.1115 -0.0420  0.3289
 1384COC    COC 1384   1.783   1.830   6.443 -0.0069  0.0490  0.0499
 1385COC    COC 1385   1.453   1.731   6.398 -0.2149 -0.0384  0.2581
 1386COC    COC 1386   1.223   1.795   6.540  0.0036 -0.0970 -0.1272
 1387COC    COC 1387   1.093   1.614   6.734  0.3499 -0.1177 -0.0352
 1388COC    COC 1388   0.977   1.389   6.592 -0.1582  0.0008  0.1714
 1389COC    COC 1389   0.789   1.136   6.542  0.3220  0.4397  0.2064
 1390COC    COC 1390   0.578   1.074   6.295 -0.3691 -0.2418 -0.3440
 1391COC    COC 1391   0.529   0.842   6.110  0.0501 -0.2744 -0.3080
 1392COC    COC 1392   0.233   0.843   6.163 -0.1836 -0.0847 -0.1509
 1393COC    COC 1393   0.107   0.560   6.222 -0.0800  0.4095  0.5863
 1394COC    COC 1394   0.091   0.280   6.248  0.0614  0.2841  0.3214
 1395COC    COC 1395  10.232   0.158   6.282 -0.1239 -0.1252 -0.1130
 1396COC    COC 1396  10.014   0.324   6.358  0.0979 -0.1451  0.1768
 1397COC    COC 1397   9.716   0.314   6.360  0.0561  0.1066  0.3045
 1398COC    COC 1398   9.590   0.435   6.114 -0.0218 -0.1504 -0.0184
 1399COC    COC 1399   9.594   0.229   5.875  0.1987 -0.1252  0.3554
 1400COC    COC 1400   9.534   0.298   5.552 -0.1290 -0.1688 -0.2549
 1401COC    COC 1401   9.753   0.218   5.354  0.1792 -0.1876 -0.2210
 1402COC    COC 1402   9.944  10.334   5.334 -0.2247 -0.0106 -0.0022
 1403COC    COC 1403  10.089  10.075   5.478 -0.4927 -0.2450  0.3056
 1404COC    COC 1404  10.059   9.970   5.749 -0.3745  0.1432  0.1803
 1405COC    COC 1405  10.063  10.057   6.039 -0.4699 -0.0164  0.1386
 1406COC    COC 1406   9.879  10.304   6.020 -0.0381 -0.1218 -0.2313
 1407COC    COC 1407   9.632  10.265   6.193 -0.0862 -0.2184 -0.2104
 1408COC    COC 1408   9.350   0.058   6.260  0.1848 -0.3909  0.1949
 1409COC    COC 1409   9.371   0.187   6.558 -0.1306 -0.1091  0.4394
 1410COC    COC 1410   9.603   0.226   6.816 -0.0980  0.0900 -0.1632
 1411COC    COC 1411   9.848   0.149   6.729 -0.2510 -0.2267 -0.1881
 1412COC    COC 1412  10.044   0.175   6.980  0.0694  0.0268  0.4398
 1413COC    COC 1413  10.224  10.298   6.884  0.0365  0.1774  0.2183
 1414COC    COC 1414   0.056  10.296   6.650 -0.2473  0.1260  0.2091
 1415COC    COC 1415   0.053  10.037   6.443  0.1559 -0.2511 -0.0489
 1416COC    COC 1416  10.284   9.776   6.524  0.1643  0.1712  0.0554
 1417COC    COC 1417  10.020   9.730   6.363  0.1512  0.0885 -0.0305
 1418COC    COC 1418   9.743   9.815   6.288 -0.0598  0.0102 -0.3155
 1419COC    COC 1419   9.719   9.776   5.994 -0.2103  0.3242 -0.0170
 1420COC    COC 1420   9.802   9.539   5.775  0.1589 -0.4817 -0.2171
 1421COC    COC 1421  10.069   9.454   5.633  0.3058  0.2200 -0.1376
 1422COC    COC 1422  10.044   9.171   5.533  0.2683 -0.4088  0.3785
 1423COC    COC 1423  10.190   8.990   5.734  0.1749  0.1481  0.3862
 1424COC    COC 1424  10.302   8.733   5.545  0.1648  0.2003  0.0726
 1425COC    COC 1425   0.078   8.888   5.341  0.0602  0.1662 -0.3852
 1426COH    COH 1426   0.166   9.127   5.419  0.0733  0.2100 -0.1583
 1427COH    COH 1427   3.325   3.518   7.435  0.3392  0.2001 -0.0505
 1428COC    COC 1428   3.407   3.752   7.501  0.0162  0.1653  0.0674
 1429COC    COC 1429   3.591   3.855   7.276 -0.0173 -0.1672  0.0249
 1430COC    COC 1430   3.785   3.609   7.340  0.0489  0.1494  0.2422
 1431COC    COC 1431   3.767   3.311   7.246 -0.6516  0.3500  0.2868
 1432COC    COC 1432   4.050   3.280   7.081 -0.1670 -0.1390 -0.0781
 1433COC    COC 1433   4.263   3.168   7.247 -0.0058  0.1575 -0.0570
 1434COC    COC 1434   4.305   2.865   7.327 -0.2071  0.0173 -0.0946
 1435COC    COC 1435   4.307   2.584   7.188  0.0097 -0.0513  0.0460
 1436COC    COC 1436   4.142   2.328   7.106 -0.2884 -0.4134  0.1634
 1437COC    COC 1437   3.864   2.370   6.965 -0.0684 -0.0811 -0.3632
 1438COC    COC 1438   3.756   2.140   6.753  0.2525 -0.0515  0.0919
 1439COC    COC 1439   3.630   2.276   6.506  0.1117  0.2043  0.2674
 1440COC    COC 1440   3.807   2.499   6.369  0.1346  0.1414  0.1773
 1441COC    COC 1441   3.656   2.731   6.253 -0.1246 -0.0986  0.0341
 1442COC    COC 1442   3.395   2.766   6.372  0.0487 -0.1574 -0.0945
 1443COC    COC 1443   3.267   2.499   6.318  0.2553 -0.4104  0.2480
 1444COC    COC 1444   3.101   2.516   6.050  0.1359 -0.1580 -0.0105
 1445COC    COC 1445   2.825   2.628   6.058 -0.0987 -0.0842  0.0260
 1446COC    COC 1446   2.802   2.730   5.774  0.0727 -0.0637 -0.2682
 1447COC    COC 1447   3.028   2.901   5.649  0.2161 -0.1646 -0.0270
 1448COC    COC 1448   3.098   3.055   5.403 -0.2800  0.0875  0.4808
 1449COC    COC 1449   2.957   3.324   5.332 -0.2790  0.0093 -0.4675
 1450COC    COC 1450   3.024   3.557   5.527 -0.2550 -0.1291  0.4919
 1451COC    COC 1451   2.927   3.804   5.421  0.2511  0.2448  0.2478
 1452COC    COC 1452   2.743   3.731   5.164 -0.0939  0.1439 -0.1213
 1453COC    COC 1453   2.530   3.557   5.223  0.0289 -0.2658  0.0273
 1454COC    COC 1454   2.416   3.481   5.467 -0.2325 -0.0583 -0.1730
 1455COC    COC 1455   2.209   3.601   5.695  0.3070 -0.2043 -0.0507
 1456COC    COC 1456   2.290   3.436   5.933  0.0937  0.0685 -0.2221
 1457COC    COC 1457   2.340   3.579   6.162 -0.1345  0.1822 -0.3787
 1458COC    COC 1458   2.461   3.374   6.326  0.5774  0.6432  0.0067
 1459COC    COC 1459   2.674   3.288   6.493  0.0767 -0.0649  0.3590
 1460COC    COC 1460   2.933   3.409   6.446 -0.0020 -0.3960  0.0369
 1461COC    COC 1461   2.970   3.734   6.483 -0.1258  0.2591 -0.0299
 1462COC    COC 1462   3.159   3.925   6.635 -0.3872  0.3795 -0.0727
 1463COC    COC 1463   3.448   3.915   6.692  0.1273 -0.1731  0.0179
 1464COC    COC 1464   3.631   3.934   6.484 -0.1103  0.0693 -0.2132
 1465COC    COC 1465   3.511   3.827   6.240  0.1831 -0.2296 -0.1234
 1466COC    COC 1466   3.637   3.575   6.115 -0.2432  0.1421  0.1559
 1467COC    COC 1467   3.882   3.463   6.218 -0.1698  0.0832 -0.1033
 1468COC    COC 1468   3.981   3.249   6.417  0.0614 -0.0296  0.3602
 1469COC    COC 1469   3.975   2.942   6.480  0.0008 -0.0444 -0.2324
 1470COC    COC 1470   4.078   2.744   6.705 -0.2278 -0.1349  0.0386
 1471COC    COC 1471   4.060   2.852   6.991  0.3193  0.1917  0.1633
 1472COH    COH 1472   3.868   2.730   7.135 -0.2986  0.1461 -0.1376
 1473COH    COH 1473   8.227   9.161   8.929  0.4733  0.4210 -0.1060
 1474COC    COC 1474   8.422   9.205   9.086  0.2328  0.0178  0.0464
 1475COC    COC 1475   8.678   9.398   9.082 -0.1330  0.0762 -0.5401
 1476COC    COC 1476   8.767   9.678   9.030 -0.0732 -0.2711  0.0836
 1477COC    COC 1477   8.586   9.871   9.198 -0.3823 -0.0029  0.3299
 1478COC    COC 1478   8.525   9.706   9.410  0.1386  0.1183 -0.0856
 1479COC    COC 1479   8.541   9.843   9.652  0.5010 -0.2082 -0.3969
 1480COC    COC 1480   8.359   9.973   9.867 -0.1914 -0.4284  0.0180
 1481COC    COC 1481   8.141  10.041  10.113 -0.7007  0.4220 -0.4365
 1482COC    COC 1482   7.980   9.813  10.169 -0.1081  0.6109 -0.0751
 1483COC    COC 1483   7.909   9.777   0.109 -0.1131 -0.1148  0.4297
 1484COC    COC 1484   7.690   9.899   0.245  0.1298 -0.3676 -0.2436
 1485COC    COC 1485   7.400   9.972   0.226 -0.3736  0.1582  0.2880
 1486COC    COC 1486   7.130   9.852   0.111 -0.4054  0.1189 -0.1234
 1487COC    COC 1487   7.052   9.778   0.415 -0.2169 -0.0143  0.1295
 1488COC    COC 1488   6.908   9.520   0.390 -0.0394 -0.1929  0.2398
 1489COC    COC 1489   6.624   9.443   0.248  0.1995 -0.3081 -0.2221
 1490COC    COC 1490   6.533   9.605  10.319  0.0215 -0.3570  0.2117
 1491COC    COC 1491   6.816   9.664  10.191  0.1310  0.0483 -0.2050
 1492COC    COC 1492   6.955   9.868  10.069 -0.0641 -0.4360 -0.1720
 1493COC    COC 1493   6.834  10.055   9.864 -0.3759 -0.1929  0.0472
 1494COC    COC 1494   6.939  10.254   9.652 -0.0995  0.0974 -0.0984
 1495COC    COC 1495   7.242   0.003   9.735  0.2222 -0.3069 -0.0049
 1496COC    COC 1496   7.493   0.025   9.548  0.1151 -0.1733  0.1048
 1497COC    COC 1497   7.338  10.326   9.273  0.0104 -0.0501 -0.0676
 1498COC    COC 1498   7.371   0.042   8.964 -0.0988 -0.3195 -0.1619
 1499COC    COC 1499   7.136   0.113   8.775  0.2140 -0.0158 -0.4321
 1500COC    COC 1500   6.873   0.241   8.910  0.1186 -0.0404  0.1594
 1501COC    COC 1501   6.978   0.358   9.161  0.2190 -0.0295  0.1244
 1502COC    COC 1502   7.038   0.268   9.430  0.1244  0.0057  0.0782
 1503COC    COC 1503   7.112   0.452   9.691  0.0014  0.4122  0.0936
 1504COC    COC 1504   7.383   0.523   9.724  0.3447 -0.3424 -0.3631
 1505COC    COC 1505   7.565   0.761   9.650  0.1812  0.1286 -0.3312
 1506COC    COC 1506   7.735   0.933   9.851 -0.3040  0.1798  0.0709
 1507COC    COC 1507   7.920   1.054  10.043 -0.2645 -0.1401  0.1175
 1508COC    COC 1508   8.117   0.899  10.190 -0.3149 -0.0920  0.0207
 1509COC    COC 1509   8.377   0.848  10.038  0.2296 -0.1523  0.0081
 1510COC    COC 1510   8.256   0.847   9.723  0.1104  0.0987  0.1996
 1511COC    COC 1511   8.328   1.014   9.472  0.1226  0.2517 -0.1084
 1512COC    COC 1512   8.594   1.006   9.367  0.3665 -0.3135 -0.3032
 1513COC    COC 1513   8.795   0.775   9.467 -0.2750 -0.0790 -0.0339
 1514COC    COC 1514   8.666   0.785   9.744 -0.3248 -0.3469  0.1851
 1515COC    COC 1515   8.739   0.547   9.854 -0.0474  0.0379 -0.0103
 1516COC    COC 1516   8.532   0.326   9.820 -0.2139 -0.2625 -0.2561
 1517COC    COC 1517   8.516   0.045   9.897  0.1334 -0.1113  0.2294
 1518COH    COH 1518   8.729  10.268   9.781 -0.3405  0.4423  0.0234
 1519COH    COH 1519   8.816   4.279   5.466 -0.7588 -0.0576  0.3706
 1520COC    COC 1520   9.086   4.259   5.467 -0.1588 -0.4384  0.2327
 1521COC    COC 1521   9.178   4.006   5.488 -0.6720 -0.1364 -0.1294
 1522COC    COC 1522   9.231   3.923   5.793 -0.3595 -0.2016 -0.2692
 1523COC    COC 1523   9.195   3.786   6.067 -0.2266 -0.4189 -0.3128
 1524COC    COC 1524   8.950   3.781   6.284 -0.1580 -0.3313 -0.2022
 1525COC    COC 1525   8.897   3.508   6.435  0.5744  0.2247  0.2832
 1526COC    COC 1526   8.664   3.334   6.457 -0.0722  0.2497 -0.3075
 1527COC    COC 1527   8.441   3.411   6.254  0.1751  0.3656  0.3772
 1528COC    COC 1528   8.402   3.337   5.975  0.0852  0.0197  0.0555
 1529COC    COC 1529   8.520   3.091   5.785  0.0352 -0.3940  0.3967
 1530COC    COC 1530   8.555   2.782   5.665 -0.0572  0.0583  0.4079
 1531COC    COC 1531   8.780   2.568   5.700 -0.3242  0.0340  0.0855
 1532COC    COC 1532   8.719   2.321   5.573  0.3228  0.2569 -0.0020
 1533COC    COC 1533   8.455   2.210   5.487 -0.1067  0.4033  0.0524
 1534COC    COC 1534   8.256   2.213   5.236  0.2836  0.1142 -0.0867
 1535COC    COC 1535   8.085   2.008   5.242 -0.1411  0.1305 -0.0718
 1536COC    COC 1536   8.153   1.761   5.053  0.1474  0.1276 -0.3373
 1537COC    COC 1537   8.432   1.767   4.912 -0.4262 -0.5203 -0.1095
 1538COC    COC 1538   8.519   2.069   4.968 -0.2712  0.6385 -0.0276
 1539COC    COC 1539   8.750   2.233   5.034  0.0480  0.0733 -0.1582
 1540COC    COC 1540   9.014   2.214   5.192  0.3828  0.2866 -0.3576
 1541COC    COC 1541   9.002   1.928   5.229 -0.1062  0.3019 -0.1156
 1542COC    COC 1542   8.849   1.777   4.991  0.2212 -0.2510  0.1375
 1543COC    COC 1543   8.976   1.924   4.760  0.1611  0.0892  0.0554
 1544COC    COC 1544   8.774   2.095   4.620 -0.2176 -0.0504 -0.1560
 1545COC    COC 1545   8.557   2.072   4.449  0.0788 -0.0518 -0.3910
 1546COC    COC 1546   8.293   1.948   4.516 -0.1990 -0.4405 -0.0768
 1547COC    COC 1547   8.100   2.098   4.678 -0.1030 -0.0303 -0.3022
 1548COC    COC 1548   7.910   2.302   4.571 -0.4394 -0.0520  0.2010
 1549COC    COC 1549   7.643   2.279   4.382 -0.0469  0.3028  0.2357
 1550COC    COC 1550   7.496   2.052   4.499  0.4442  0.2072  0.3066
 1551COC    COC 1551   7.565   2.094   4.814 -0.1583 -0.0474  0.1034
 1552COC    COC 1552   7.696   1.803   4.809  0.3950 -0.0021  0.2175
 1553COC    COC 1553   7.777   1.531   4.933 -0.0388  0.0953 -0.4525
 1554COC    COC 1554   7.748   1.407   5.194 -0.0017  0.0140 -0.1660
 1555COC    COC 1555   7.654   1.565   5.449  0.1617  0.3033  0.2169
 1556COC    COC 1556   7.648   1.540   5.750 -0.4687 -0.0846 -0.0838
 1557COC    COC 1557   7.528   1.310   5.916  0.0311 -0.3009 -0.0085
 1558COC    COC 1558   7.321   1.069   5.840  0.1525  0.0363 -0.4430
 1559COC    COC 1559   7.282   1.081   5.520 -0.1245  0.2555  0.1648
 1560COC    COC 1560   7.264   1.338   5.393  0.7637 -0.0845  0.0212
 1561COC    COC 1561   6.986   1.380   5.304 -0.1872 -0.2194 -0.1371
 1562COC    COC 1562   6.729   1.460   5.485  0.2364 -0.0524  0.3010
 1563COC    COC 1563   6.428   1.396   5.534  0.4439 -0.1626 -0.1377
 1564COH    COH 1564   6.446   1.299   5.792  0.6063  0.6338 -0.2549
 1565COH    COH 1565   8.834   5.891   4.670  0.1587 -0.0274 -0.5567
 1566COC    COC 1566   8.592   5.986   4.777  0.1012 -0.0588 -0.0180
 1567COC    COC 1567   8.703   6.224   4.849 -0.1487  0.0219  0.0612
 1568COC    COC 1568   8.631   6.435   4.654 -0.0551  0.2046  0.1626
 1569COC    COC 1569   8.325   6.392   4.543  0.4171 -0.0012 -0.1317
 1570COC    COC 1570   8.126   6.234   4.774  0.2577 -0.1311 -0.2198
 1571COC    COC 1571   8.018   5.994   4.927  0.3223  0.2281  0.1645
 1572COC    COC 1572   7.962   5.702   4.866  0.6201 -0.0396 -0.0737
 1573COC    COC 1573   7.721   5.627   4.677 -0.0070  0.0333 -0.0685
 1574COC    COC 1574   7.428   5.791   4.696 -0.3438  0.0685 -0.2332
 1575COC    COC 1575   7.124   5.714   4.695 -0.5401  0.1103 -0.3178
 1576COC    COC 1576   6.895   5.611   4.489 -0.0382 -0.1085 -0.0027
 1577COC    COC 1577   7.002   5.355   4.340  0.1865 -0.2342 -0.0859
 1578COC    COC 1578   6.875   5.083   4.379 -0.0541 -0.0046 -0.2288
 1579COC    COC 1579   6.759   4.927   4.143  0.3379  0.2417  0.2904
 1580COC    COC 1580   6.579   5.097   3.987 -0.2754 -0.6101 -0.1489
 1581COC    COC 1581   6.685   5.093   3.685  0.2882 -0.2028 -0.0881
 1582COC    COC 1582   6.666   4.940   3.434  0.0633 -0.0487  0.0675
 1583COC    COC 1583   6.699   4.969   3.143 -0.3934  0.1581 -0.3110
 1584COC    COC 1584   6.723   5.263   3.062  0.2186  0.2554 -0.2263
 1585COC    COC 1585   6.635   5.367   3.379 -0.2523  0.3333  0.3688
 1586COC    COC 1586   6.349   5.357   3.465  0.2782 -0.1035 -0.4427
 1587COC    COC 1587   6.195   5.501   3.234  0.0851 -0.2253  0.0871
 1588COC    COC 1588   6.050   5.781   3.160  0.2025 -0.1494  0.3328
 1589COC    COC 1589   6.224   6.026   3.203  0.2301  0.3036  0.0490
 1590COC    COC 1590   6.249   6.225   3.015  0.0925 -0.3957  0.2431
 1591COC    COC 1591   6.531   6.190   2.938 -0.2810 -0.2798 -0.0894
 1592COC    COC 1592   6.775   6.212   3.091 -0.1321 -0.3881 -0.3797
 1593COC    COC 1593   7.015   6.018   3.133  0.0183 -0.0407 -0.3509
 1594COC    COC 1594   7.304   6.068   3.248 -0.0633 -0.1213 -0.3982
 1595COC    COC 1595   7.439   5.827   3.370 -0.4247  0.0350  0.1902
 1596COC    COC 1596   7.331   5.825   3.645  0.3772 -0.2124 -0.0515
 1597COC    COC 1597   7.053   5.715   3.740 -0.0891  0.3248 -0.3371
 1598COC    COC 1598   6.974   5.428   3.674  0.2041 -0.0201  0.0350
 1599COC    COC 1599   7.020   5.187   3.885  0.1211  0.0546 -0.1147
 1600COC    COC 1600   7.042   4.901   3.733 -0.0411  0.1069 -0.1405
 1601COC    COC 1601   7.273   4.689   3.749  0.0647  0.0644 -0.0768
 1602COC    COC 1602   7.230   4.395   3.689  0.0670 -0.2448  0.2836
 1603COC    COC 1603   7.377   4.119   3.742  0.3142 -0.4731  0.2592
 1604COC    COC 1604   7.471   4.110   3.977 -0.2185  0.1048 -0.5777
 1605COC    COC 1605   7.422   3.869   4.250 -0.2454  0.0774  0.0084
 1606COC    COC 1606   7.180   3.704   4.159  0.4961 -0.1117  0.3853
 1607COC    COC 1607   6.931   3.749   4.339  0.0328  0.1564 -0.2100
 1608COC    COC 1608   7.008   3.920   4.557  0.1122  0.1300 -0.2502
 1609COC    COC 1609   6.924   4.189   4.623 -0.2311 -0.0599  0.2401
 1610COH    COH 1610   7.057   4.407   4.630  0.0434  0.1141  0.0929
 1611COH    COH 1611   8.664   0.473   7.088 -0.1108  0.3031  0.2719
 1612COC    COC 1612   8.806   0.422   7.321  0.0031 -0.3406  0.4329
 1613COC    COC 1613   8.797   0.339   7.631 -0.2917  0.1946  0.4210
 1614COC    COC 1614   8.695   0.596   7.766  0.1627 -0.1751  0.0425
 1615COC    COC 1615   8.639   0.833   7.602 -0.1139 -0.3898  0.2434
 1616COC    COC 1616   8.631   1.126   7.503 -0.1533  0.6121 -0.1118
 1617COC    COC 1617   8.621   1.359   7.658 -0.1487 -0.0194 -0.1842
 1618COC    COC 1618   8.369   1.348   7.871  0.1793 -0.3018  0.2351
 1619COC    COC 1619   8.274   1.452   8.169  0.1495 -0.0356 -0.2079
 1620COC    COC 1620   8.328   1.735   8.350 -0.2161  0.4045 -0.1824
 1621COC    COC 1621   8.595   1.785   8.467 -0.0942  0.0520  0.1804
 1622COC    COC 1622   8.747   1.969   8.287 -0.0656  0.5038 -0.1083
 1623COC    COC 1623   8.532   2.098   8.084 -0.2679  0.4803 -0.2507
 1624COC    COC 1624   8.715   2.180   7.846  0.1326 -0.3294 -0.0482
 1625COC    COC 1625   8.808   2.194   7.568  0.0135  0.0272  0.1185
 1626COC    COC 1626   8.900   1.931   7.507 -0.0648  0.0675  0.1416
 1627COC    COC 1627   8.679   1.740   7.534 -0.1980  0.0909  0.1556
 1628COC    COC 1628   8.555   1.753   7.805  0.1360  0.0117  0.0719
 1629COC    COC 1629   8.740   1.600   8.022 -0.0618 -0.4458 -0.1878
 1630COC    COC 1630   8.987   1.731   7.886  0.0230  0.3660  0.0200
 1631COC    COC 1631   9.279   1.644   7.942  0.1394 -0.2733  0.0151
 1632COC    COC 1632   9.379   1.367   7.944  0.2625  0.0157  0.1901
 1633COC    COC 1633   9.593   1.387   8.181  0.2722  0.1676  0.1517
 1634COC    COC 1634   9.634   1.483   8.470 -0.1873  0.0054  0.0248
 1635COC    COC 1635   9.383   1.527   8.671  0.0307  0.2031 -0.1473
 1636COC    COC 1636   9.387   1.811   8.764  0.2080 -0.1096 -0.0392
 1637COC    COC 1637   9.217   1.818   9.001  0.2453 -0.0807 -0.0127
 1638COC    COC 1638   9.177   1.666   9.274  0.0801 -0.2054 -0.0258
 1639COC    COC 1639   8.896   1.693   9.278 -0.0798 -0.0255  0.1896
 1640COC    COC 1640   8.719   1.854   9.089  0.0517  0.1612 -0.5813
 1641COC    COC 1641   8.449   1.902   8.970 -0.2672  0.1058  0.1129
 1642COC    COC 1642   8.181   1.886   8.809  0.3658 -0.0989  0.3650
 1643COC    COC 1643   8.061   1.693   9.047 -0.0567  0.3704 -0.5512
 1644COC    COC 1644   8.176   1.727   9.297  0.3751  0.0170 -0.1441
 1645COC    COC 1645   8.127   1.414   9.386 -0.0383  0.0646  0.0017
 1646COC    COC 1646   7.837   1.281   9.301 -0.1487 -0.0355 -0.0539
 1647COC    COC 1647   7.573   1.347   9.481  0.2296 -0.4882  0.1525
 1648COC    COC 1648   7.352   1.502   9.420  0.2218 -0.2524 -0.0550
 1649COC    COC 1649   7.375   1.555   9.130  0.1470 -0.1078 -0.1151
 1650COC    COC 1650   7.240   1.737   8.970 -0.1476 -0.1397  0.0190
 1651COC    COC 1651   6.937   1.798   9.000 -0.0950  0.2077 -0.1842
 1652COC    COC 1652   6.746   1.987   8.832  0.0398  0.2130  0.2151
 1653COC    COC 1653   6.929   2.216   8.667  0.0349 -0.0014  0.3721
 1654COC    COC 1654   6.791   2.527   8.684  0.1100  0.0411 -0.3099
 1655COC    COC 1655   6.581   2.698   8.526  0.2661  0.3454 -0.0791
 1656COH    COH 1656   6.350   2.811   8.533  0.0846 -0.1220  0.1620
 1657COH    COH 1657   6.876   9.549   3.786  0.0201  0.0862  0.2066
 1658COC    COC 1658   6.754   9.599   3.993  0.2641 -0.1765  0.3475
 1659COC    COC 1659   6.555   9.398   4.054 -0.1809 -0.1223 -0.1467
 1660COC    COC 1660   6.426   9.307   4.325 -0.0648 -0.2865 -0.0537
 1661COC    COC 1661   6.627   9.075   4.425 -0.3876  0.4569 -0.5288
 1662COC    COC 1662   6.590   8.763   4.436  0.0208  0.2096  0.3366
 1663COC    COC 1663   6.581   8.593   4.651 -0.0315 -0.0148  0.2017
 1664COC    COC 1664   6.550   8.246   4.708  0.0316 -0.0498  0.4357
 1665COC    COC 1665   6.596   8.030   4.943  0.1026  0.0704  0.4954
 1666COC    COC 1666   6.489   7.787   5.077  0.3695  0.0436  0.0964
 1667COC    COC 1667   6.674   7.566   5.154 -0.2191 -0.4315 -0.3293
 1668COC    COC 1668   6.796   7.321   5.058 -0.3301  0.0929 -0.0446
 1669COC    COC 1669   6.931   7.153   4.857 -0.2328  0.3974  0.2515
 1670COC    COC 1670   6.978   6.861   4.818 -0.3005  0.1507 -0.2053
 1671COC    COC 1671   6.843   6.605   4.793  0.0858 -0.0905 -0.0977
 1672COC    COC 1672   6.694   6.383   4.605  0.2319 -0.0953  0.5094
 1673COC    COC 1673   6.561   6.165   4.774 -0.0664  0.1213 -0.2933
 1674COC    COC 1674   6.367   6.242   5.011 -0.6932 -0.2721 -0.2826
 1675COC    COC 1675   6.395   6.490   5.211 -0.2406  0.0550  0.1239
 1676COC    COC 1676   6.295   6.402   5.462 -0.2226  0.2940  0.1513
 1677COC    COC 1677   6.285   6.590   5.715 -0.2324 -0.1190 -0.2532
 1678COC    COC 1678   6.184   6.873   5.685  0.0255  0.0033  0.0207
 1679COC    COC 1679   5.875   6.895   5.677 -0.1056 -0.2373 -0.0603
 1680COC    COC 1680   5.869   6.761   5.433 -0.1674  0.3286  0.0883
 1681COC    COC 1681   5.926   6.473   5.586 -0.0152  0.4707 -0.4202
 1682COC    COC 1682   5.857   6.201   5.538 -0.2534  0.0670  0.1113
 1683COC    COC 1683   5.681   6.204   5.284 -0.2156 -0.0060  0.1439
 1684COC    COC 1684   5.410   6.088   5.282 -0.7582 -0.0775 -0.1473
 1685COC    COC 1685   5.242   5.895   5.077  0.2987  0.0707 -0.1235
 1686COC    COC 1686   5.210   5.939   4.754  0.1337 -0.1433 -0.1478
 1687COC    COC 1687   5.362   6.127   4.545  0.1770  0.0424  0.1641
 1688COC    COC 1688   5.564   6.024   4.324 -0.4710 -0.2616 -0.0299
 1689COC    COC 1689   5.833   5.831   4.299  0.0190 -0.1202 -0.1251
 1690COC    COC 1690   5.851   5.543   4.197 -0.3641 -0.3953 -0.0607
 1691COC    COC 1691   5.937   5.261   4.096 -0.1321 -0.0380 -0.2759
 1692COC    COC 1692   6.202   5.324   4.089 -0.2238  0.1859 -0.3186
 1693COC    COC 1693   6.227   5.545   3.898  0.2542  0.0420  0.0443
 1694COC    COC 1694   6.216   5.814   4.058  0.1124 -0.1965 -0.0130
 1695COC    COC 1695   6.428   5.965   4.066  0.1231  0.3219  0.1355
 1696COC    COC 1696   6.666   6.081   4.238  0.3141  0.2610  0.1727
 1697COC    COC 1697   6.920   5.975   4.106 -0.3550  0.5032 -0.1398
 1698COC    COC 1698   7.184   6.062   3.966 -0.1682 -0.4755 -0.0595
 1699COC    COC 1699   7.365   6.227   3.738 -0.1125 -0.0713 -0.4034
 1700COC    COC 1700   7.257   6.477   3.691 -0.0042  0.2603  0.2014
 1701COC    COC 1701   7.076   6.551   3.932 -0.1202 -0.0210  0.1163
 1702COH    COH 1702   7.272   6.630   4.078 -0.3968  0.0429 -0.0341
 1703COH    COH 1703   1.399   4.676   1.807  0.5801 -0.2435 -0.4247
 1704COC    COC 1704   1.308   4.578   2.044  0.0379  0.4221  0.0597
 1705COC    COC 1705   1.019   4.486   2.001 -0.0171  0.4567  0.1563
 1706COC    COC 1706   0.794   4.278   2.107 -0.1384 -0.3808  0.2516
 1707COC    COC 1707   0.737   4.192   2.377 -0.1646  0.0114  0.2096
 1708COC    COC 1708   0.651   4.392   2.596 -0.0117  0.0119 -0.1185
 1709COC    COC 1709   0.865   4.380   2.806  0.0060 -0.2109 -0.1483
 1710COC    COC 1710   0.762   4.282   3.069 -0.2380 -0.1140 -0.0955
 1711COC    COC 1711   0.589   4.012   3.136 -0.3179  0.1293  0.1081
 1712COC    COC 1712   0.280   3.983   3.082 -0.0013  0.2405 -0.2887
 1713COC    COC 1713  10.330   3.905   3.160 -0.1479 -0.4630  0.0758
 1714COC    COC 1714  10.210   3.647   3.053 -0.1315  0.1521 -0.0737
 1715COC    COC 1715  10.083   3.515   3.295  0.2120  0.1841  0.0286
 1716COC    COC 1716   9.886   3.673   3.433  0.1828 -0.3092 -0.1673
 1717COC    COC 1717   9.644   3.499   3.542 -0.3901 -0.2829  0.2361
 1718COC    COC 1718   9.419   3.537   3.670  0.2818  0.1409 -0.1060
 1719COC    COC 1719   9.290   3.522   3.939 -0.0586  0.2015  0.1882
 1720COC    COC 1720   9.362   3.719   4.136  0.3289  0.1243  0.1759
 1721COC    COC 1721   9.592   3.603   4.287  0.3243  0.2944 -0.0511
 1722COC    COC 1722   9.613   3.322   4.273  0.4821 -0.0841 -0.2951
 1723COC    COC 1723   9.802   3.106   4.206  0.1849 -0.0925 -0.3891
 1724COC    COC 1724  10.100   3.129   4.106 -0.1504 -0.2437 -0.2408
 1725COC    COC 1725  10.277   2.991   4.334  0.1699  0.1439  0.1875
 1726COC    COC 1726  10.325   3.043   4.611  0.1390 -0.1223 -0.2539
 1727COC    COC 1727  10.314   3.276   4.789 -0.1982  0.3405  0.0823
 1728COC    COC 1728   0.198   3.501   4.819 -0.1661 -0.2655 -0.4400
 1729COC    COC 1729   0.165   3.749   4.624  0.1672  0.0140 -0.0830
 1730COC    COC 1730   0.409   3.844   4.447  0.0998 -0.2600 -0.3085
 1731COC    COC 1731   0.524   4.084   4.395  0.0307 -0.2063 -0.0577
 1732COC    COC 1732   0.375   4.271   4.549 -0.3878  0.1901 -0.0685
 1733COC    COC 1733   0.534   4.468   4.649  0.0213 -0.3001  0.1355
 1734COC    COC 1734   0.837   4.367   4.721 -0.1698 -0.2564 -0.3841
 1735COC    COC 1735   1.005   4.174   4.622 -0.0679  0.2045 -0.2301
 1736COC    COC 1736   0.926   3.866   4.539  0.0355 -0.1170 -0.4917
 1737COC    COC 1737   1.097   3.710   4.320 -0.0890  0.0928 -0.4901
 1738COC    COC 1738   1.309   3.953   4.257  0.1900 -0.1979 -0.1192
 1739COC    COC 1739   1.518   4.070   4.096  0.3404 -0.1924  0.0957
 1740COC    COC 1740   1.573   4.305   3.890 -0.2060  0.1800 -0.3384
 1741COC    COC 1741   1.767   4.474   4.083  0.0642  0.0409  0.0343
 1742COC    COC 1742   1.534   4.666   4.194 -0.4308  0.0001 -0.0848
 1743COC    COC 1743   1.313   4.513   4.269  0.1062  0.0517 -0.0333
 1744COC    COC 1744   1.085   4.697   4.284  0.3010  0.1672  0.2232
 1745COC    COC 1745   0.815   4.658   4.392 -0.1965  0.2895  0.1021
 1746COC    COC 1746   0.582   4.532   4.218 -0.1672 -0.3930 -0.0455
 1747COC    COC 1747   0.593   4.379   3.942  0.0746 -0.0258 -0.0430
 1748COH    COH 1748   0.541   4.139   4.005 -0.1312  0.0398  0.1370
 1749COH    COH 1749  10.210   4.984   3.087 -0.1436 -0.4709  0.1908
 1750COC    COC 1750   0.036   5.169   3.069  0.1351 -0.0817 -0.2655
 1751COC    COC 1751  10.279   5.472   3.062 -0.0681  0.4596  0.1144
 1752COC    COC 1752  10.036   5.651   3.102  0.2002 -0.4721 -0.2648
 1753COC    COC 1753  10.040   5.789   2.820  0.2841 -0.0561  0.2200
 1754COC    COC 1754  10.295   5.974   2.687  0.2159  0.0725  0.0082
 1755COC    COC 1755   0.000   6.264   2.829 -0.2762  0.0954 -0.1904
 1756COC    COC 1756   0.191   6.326   3.007  0.2225  0.1716  0.0365
 1757COC    COC 1757   0.123   6.541   3.207 -0.0139 -0.3029  0.1387
 1758COC    COC 1758  10.303   6.790   3.167  0.0693 -0.0995  0.0164
 1759COC    COC 1759  10.109   6.955   3.267  0.1080 -0.0747  0.0862
 1760COC    COC 1760  10.155   7.052   3.530 -0.1457  0.0923  0.2946
 1761COC    COC 1761   9.959   6.985   3.749 -0.0134 -0.1430  0.2894
 1762COC    COC 1762  10.040   6.766   3.944 -0.3510  0.0306  0.1951
 1763COC    COC 1763   9.766   6.712   4.048 -0.0225  0.2315 -0.2273
 1764COC    COC 1764   9.649   6.536   3.787  0.2044 -0.3446 -0.5108
 1765COC    COC 1765   9.771   6.249   3.855 -0.0577  0.0312  0.1585
 1766COC    COC 1766  10.077   6.190   3.806  0.0910 -0.0916 -0.0343
 1767COC    COC 1767  10.218   6.013   4.031 -0.1987  0.2063  0.2535
 1768COC    COC 1768   0.091   6.105   4.222  0.3487  0.2574 -0.3853
 1769COC    COC 1769   0.018   5.923   4.464 -0.4281  0.3038 -0.2405
 1770COC    COC 1770  10.290   5.627   4.355  0.0803  0.6523  0.1056
 1771COC    COC 1771  10.009   5.442   4.373 -0.3026 -0.2025 -0.0025
 1772COC    COC 1772   9.789   5.282   4.190  0.2576 -0.0165 -0.4102
 1773COC    COC 1773   9.729   5.009   4.281  0.1546 -0.0917  0.3024
 1774COC    COC 1774   9.513   4.942   4.128 -0.0681  0.1788  0.2831
 1775COC    COC 1775   9.268   4.952   3.960  0.2531  0.2652  0.4317
 1776COC    COC 1776   9.001   5.054   4.038  0.4316 -0.0853  0.5121
 1777COC    COC 1777   8.772   5.190   4.152 -0.2994  0.5534  0.0100
 1778COC    COC 1778   8.543   5.166   4.006  0.0604  0.3142 -0.1379
 1779COC    COC 1779   8.243   5.052   4.026  0.4149 -0.0575 -0.0562
 1780COC    COC 1780   7.951   5.001   3.917 -0.0228 -0.2246 -0.1218
 1781COC    COC 1781   7.809   5.260   3.852  0.0236 -0.2903  0.1848
 1782COC    COC 1782   7.701   5.476   4.010 -0.3301 -0.0311 -0.1868
 1783COC    COC 1783   7.801   5.406   4.289  0.0253  0.2007 -0.2410
 1784COC    COC 1784   8.063   5.386   4.396 -0.1544 -0.1141  0.1734
 1785COC    COC 1785   8.350   5.337   4.322 -0.2972  0.0893 -0.4044
 1786COC    COC 1786   8.597   5.446   4.474  0.1655 -0.3432  0.8446
 1787COC    COC 1787   8.710   5.657   4.348 -0.2195 -0.1463 -0.0313
 1788COC    COC 1788   8.604   5.710   4.100  0.3054 -0.2681 -0.0449
 1789COC    COC 1789   8.670   5.572   3.884 -0.3722 -0.0208 -0.0392
 1790COC    COC 1790   8.853   5.712   3.687  0.3670 -0.1573 -0.0960
 1791COC    COC 1791   8.889   6.019   3.741  0.0812 -0.1775 -0.1418
 1792COC    COC 1792   9.108   6.134   3.592 -0.1597 -0.0748  0.0847
 1793COC    COC 1793   9.365   6.169   3.685  0.0799  0.1586 -0.0017
 1794COH    COH 1794   9.450   6.095   3.920 -0.2323  0.2728 -0.0993
 1795COH    COH 1795   9.134   7.026   8.396  0.3523 -0.5344  0.3132
 1796COC    COC 1796   9.025   7.108   8.159 -0.3002 -0.2327  0.0286
 1797COC    COC 1797   9.123   7.339   7.965  0.1189  0.4388 -0.2620
 1798COC    COC 1798   8.960   7.369   7.695 -0.0506  0.4116  0.2461
 1799COC    COC 1799   8.836   7.248   7.429 -0.2921  0.1107  0.1008
 1800COC    COC 1800   8.574   7.150   7.299  0.0625  0.3079  0.0475
 1801COC    COC 1801   8.462   7.066   7.045 -0.1250  0.1057 -0.0167
 1802COC    COC 1802   8.429   7.318   6.896  0.0237  0.1195 -0.0385
 1803COC    COC 1803   8.338   7.477   6.653 -0.3458 -0.1140 -0.3227
 1804COC    COC 1804   8.193   7.715   6.761 -0.0853  0.0192  0.0944
 1805COC    COC 1805   8.284   7.999   6.804  0.0207  0.2562 -0.1947
 1806COC    COC 1806   8.118   8.191   6.664 -0.0633  0.2938 -0.3778
 1807COC    COC 1807   7.832   8.180   6.676 -0.0949  0.0617  0.2376
 1808COC    COC 1808   7.744   8.008   6.920 -0.7300  0.1444 -0.3947
 1809COC    COC 1809   7.774   7.993   7.222  0.3596 -0.4928  0.0907
 1810COC    COC 1810   7.850   7.790   7.394  0.2890  0.1023  0.0944
 1811COC    COC 1811   8.130   7.741   7.505  0.0416  0.0683  0.0010
 1812COC    COC 1812   8.231   7.539   7.333 -0.0947 -0.1274  0.1566
 1813COC    COC 1813   8.058   7.448   7.130  0.1945  0.1779  0.3192
 1814COC    COC 1814   7.754   7.532   7.071  0.1143  0.4528 -0.0597
 1815COC    COC 1815   7.645   7.307   7.226 -0.2294 -0.3693 -0.5095
 1816COC    COC 1816   7.497   7.061   7.097  0.0853 -0.0354  0.0729
 1817COC    COC 1817   7.300   6.844   7.190  0.2722 -0.1750  0.1709
 1818COC    COC 1818   7.104   6.655   7.034 -0.2708  0.1793  0.5583
 1819COC    COC 1819   7.256   6.386   6.939 -0.0891 -0.1867 -0.0621
 1820COC    COC 1820   7.418   6.210   6.709 -0.1628  0.3676  0.2654
 1821COC    COC 1821   7.254   6.124   6.472  0.2671 -0.0014 -0.1600
 1822COC    COC 1822   7.133   5.891   6.320 -0.2477 -0.0548 -0.2697
 1823COC    COC 1823   7.233   5.869   6.042 -0.0564 -0.3691  0.2225
 1824COC    COC 1824   7.450   5.926   5.835 -0.0593  0.0264  0.1860
 1825COC    COC 1825   7.754   5.914   5.878 -0.1143  0.2589  0.0225
 1826COC    COC 1826   7.788   6.181   5.936  0.2849 -0.4255 -0.0839
 1827COC    COC 1827   7.955   6.319   5.757 -0.0066  0.0675 -0.2074
 1828COC    COC 1828   8.285   6.302   5.797  0.0272  0.2935 -0.4029
 1829COC    COC 1829   8.388   6.498   5.565  0.2019 -0.1168 -0.0933
 1830COC    COC 1830   8.503   6.767   5.649 -0.0620 -0.2843  0.4440
 1831COC    COC 1831   8.345   6.780   5.943 -0.2885  0.5860  0.5113
 1832COC    COC 1832   8.321   6.994   6.152  0.3125  0.1077  0.2027
 1833COC    COC 1833   8.042   7.044   6.232  0.3495  0.0630  0.2103
 1834COC    COC 1834   7.826   6.841   6.386  0.3036  0.0862  0.2911
 1835COC    COC 1835   7.984   6.626   6.540  0.0195 -0.2078 -0.1808
 1836COC    COC 1836   8.290   6.631   6.560  0.1781 -0.4687 -0.0815
 1837COC    COC 1837   8.463   6.822   6.693 -0.0491  0.1739 -0.1571
 1838COC    COC 1838   8.747   6.730   6.688  0.1329  0.2636 -0.1102
 1839COC    COC 1839   8.688   6.410   6.697 -0.2311 -0.0822  0.0516
 1840COH    COH 1840   8.447   6.263   6.712 -0.0988 -0.0528 -0.1505
 1841COH    COH 1841   9.016  10.105   7.557  0.0603  0.1610 -0.1334
 1842COC    COC 1842   8.910  10.047   7.786  0.4267  0.3527 -0.2660
 1843COC    COC 1843   8.704  10.283   7.845  0.0471  0.0971 -0.2224
 1844COC    COC 1844   8.458  10.213   7.647 -0.3310 -0.1027  0.0139
 1845COC    COC 1845   8.189  10.125   7.697 -0.0020 -0.1468  0.3599
 1846COC    COC 1846   8.012  10.118   7.930  0.0200  0.1851  0.1907
 1847COC    COC 1847   8.074   9.987   8.190 -0.2043 -0.1345  0.4037
 1848COC    COC 1848   8.357   9.925   8.180  0.2584 -0.2423  0.1407
 1849COC    COC 1849   8.541   9.869   7.945  0.3524 -0.0354 -0.0446
 1850COC    COC 1850   8.648   9.683   7.783  0.3420 -0.0780  0.3577
 1851COC    COC 1851   8.723   9.401   7.858 -0.2697 -0.1607 -0.0223
 1852COC    COC 1852   8.531   9.201   7.799  0.0168 -0.0626  0.1982
 1853COC    COC 1853   8.509   8.983   8.000 -0.2884 -0.1749 -0.2671
 1854COC    COC 1854   8.711   9.056   8.179 -0.1226  0.2349  0.0914
 1855COC    COC 1855   8.815   9.037   8.429  0.3421 -0.2915  0.2236
 1856COC    COC 1856   8.975   8.727   8.455  0.1389  0.0303  0.0687
 1857COC    COC 1857   9.124   8.483   8.405 -0.0577 -0.0388  0.3791
 1858COC    COC 1858   9.376   8.641   8.476 -0.1998  0.3403  0.3818
 1859COC    COC 1859   9.363   8.936   8.450 -0.1533  0.1947 -0.1339
 1860COC    COC 1860   9.480   9.049   8.231  0.1886  0.5474 -0.0632
 1861COC    COC 1861   9.770   9.120   8.221 -0.3023  0.0768 -0.2724
 1862COC    COC 1862   9.898   9.048   7.976  0.1177 -0.0074  0.6279
 1863COC    COC 1863   9.948   9.243   7.724  0.4926  0.1608  0.0018
 1864COC    COC 1864  10.026   9.485   7.544  0.1092  0.3988  0.1848
 1865COC    COC 1865  10.230   9.368   7.323  0.6870  0.0026  0.3290
 1866COC    COC 1866  10.263   9.521   7.090 -0.4254  0.3306 -0.4552
 1867COC    COC 1867  10.133   9.742   6.970  0.4978  0.2038  0.2571
 1868COC    COC 1868   9.903   9.885   7.054  0.0971 -0.2827 -0.1914
 1869COC    COC 1869   9.893  10.153   7.182  0.1537 -0.0911 -0.0354
 1870COC    COC 1870   9.685  10.117   7.391 -0.2360  0.1847  0.2571
 1871COC    COC 1871   9.746   9.837   7.510 -0.2497  0.1756  0.2764
 1872COC    COC 1872   9.559   9.563   7.612 -0.0034  0.1078  0.1911
 1873COC    COC 1873   9.481   9.496   7.888  0.0736 -0.2278 -0.2098
 1874COC    COC 1874   9.463   9.678   8.126  0.2288 -0.1387 -0.2009
 1875COC    COC 1875   9.228   9.860   8.184  0.3960  0.1131  0.5204
 1876COC    COC 1876   9.153   9.973   8.456  0.2043 -0.4232  0.0044
 1877COC    COC 1877   9.265  10.200   8.612 -0.0824 -0.2318  0.3026
 1878COC    COC 1878   9.406   0.052   8.387  0.2425 -0.1584 -0.2936
 1879COC    COC 1879   9.655   0.192   8.519 -0.2698  0.3665  0.0839
 1880COC    COC 1880   9.964   0.159   8.353  0.2108 -0.6866 -0.2332
 1881COC    COC 1881  10.173   0.100   8.119  0.1320  0.1328  0.3413
 1882COC    COC 1882   0.019   0.197   7.887  0.2162  0.1774  0.2412
 1883COC    COC 1883   0.167  10.284   7.858 -0.4638  0.3217  0.2832
 1884COC    COC 1884   0.252  10.277   8.174 -0.3319  0.2997  0.0476
 1885COC    COC 1885   0.449  10.010   8.159  0.0685  0.1020  0.1214
 1886COH    COH 1886   0.661  10.022   8.291  0.2823 -0.0691 -0.2440
 1887COH    COH 1887   3.795   4.682   9.022 -0.2718  0.0135 -0.0872
 1888COC    COC 1888   4.059   4.629   9.091  0.0371  0.3296  0.0864
 1889COC    COC 1889   4.304   4.783   8.977 -0.1044  0.0464  0.0959
 1890COC    COC 1890   4.423   4.607   8.796 -0.2328 -0.1255 -0.2218
 1891COC    COC 1891   4.704   4.730   8.711  0.3290 -0.3172 -0.2337
 1892COC    COC 1892   4.756   5.055   8.642 -0.0171  0.0947 -0.0034
 1893COC    COC 1893   4.746   5.135   8.311 -0.3039  0.4435  0.2546
 1894COC    COC 1894   4.925   5.351   8.250 -0.2230  0.0556 -0.2199
 1895COC    COC 1895   4.979   5.566   8.480 -0.1568 -0.1082 -0.3176
 1896COC    COC 1896   4.876   5.782   8.673 -0.0135 -0.0879 -0.0077
 1897COC    COC 1897   4.619   5.981   8.597 -0.2597 -0.2051  0.2982
 1898COC    COC 1898   4.584   6.135   8.341  0.5149 -0.0765  0.0375
 1899COC    COC 1899   4.773   6.309   8.206 -0.2764 -0.3048 -0.0745
 1900COC    COC 1900   4.824   6.210   7.956 -0.3412 -0.5537 -0.1457
 1901COC    COC 1901   4.554   6.058   7.877  0.1546  0.2777  0.0962
 1902COC    COC 1902   4.469   5.827   8.076 -0.0885 -0.2811  0.1885
 1903COC    COC 1903   4.563   5.523   8.134  0.0912 -0.3043 -0.0883
 1904COC    COC 1904   4.329   5.324   8.185 -0.0463  0.2851 -0.0774
 1905COC    COC 1905   4.348   5.017   8.099 -0.0006 -0.3626 -0.0478
 1906COC    COC 1906   4.555   4.816   8.139 -0.2588  0.0197  0.1846
 1907COC    COC 1907   4.553   4.556   8.276  0.0768  0.1026  0.1290
 1908COC    COC 1908   4.313   4.379   8.340  0.1375  0.1672  0.4192
 1909COC    COC 1909   4.098   4.230   8.251 -0.1224  0.2960  0.2810
 1910COC    COC 1910   4.208   3.961   8.169  0.7547 -0.0559  0.0968
 1911COC    COC 1911   4.217   3.812   7.952  0.1056  0.2210 -0.2927
 1912COC    COC 1912   4.256   3.532   7.810  0.4860  0.2149  0.3083
 1913COC    COC 1913   4.250   3.613   7.499 -0.1660  0.3679 -0.1705
 1914COC    COC 1914   4.553   3.668   7.444  0.1974  0.3432 -0.1053
 1915COC    COC 1915   4.650   3.654   7.755 -0.1450  0.0032  0.0958
 1916COC    COC 1916   4.604   3.540   8.040  0.0493 -0.0643  0.3950
 1917COC    COC 1917   4.504   3.314   8.182 -0.2352  0.0932  0.1981
 1918COC    COC 1918   4.524   3.439   8.461  0.3682  0.5791  0.0530
 1919COC    COC 1919   4.294   3.328   8.645  0.4293  0.1079  0.3959
 1920COC    COC 1920   4.342   3.116   8.862  0.1004  0.2037  0.1040
 1921COC    COC 1921   4.530   2.893   8.868  0.5606 -0.2109 -0.0976
 1922COC    COC 1922   4.787   2.875   8.789  0.0116 -0.0228 -0.0246
 1923COC    COC 1923   4.834   2.584   8.747  0.0268  0.4044  0.4109
 1924COC    COC 1924   4.684   2.376   8.951  0.3543 -0.1349  0.0603
 1925COC    COC 1925   4.408   2.355   8.870 -0.2303 -0.4997 -0.0495
 1926COC    COC 1926   4.394   2.564   8.619  0.1098  0.0987  0.2898
 1927COC    COC 1927   4.189   2.657   8.405  0.4969  0.0075 -0.1528
 1928COC    COC 1928   4.078   2.437   8.222  0.0482  0.1344 -0.0744
 1929COC    COC 1929   4.110   2.096   8.225  0.1302  0.1225 -0.1407
 1930COC    COC 1930   4.264   2.064   8.476  0.0947 -0.0545  0.2103
 1931COC    COC 1931   4.422   1.823   8.558 -0.1085 -0.0537 -0.1319
 1932COH    COH 1932   4.322   1.642   8.432 -0.0843  0.5034  0.2088
 1933COH    COH 1933   9.121   5.705   7.961  0.0358 -0.0939  0.2010
 1934COC    COC 1934   9.290   5.909   7.923  0.1724 -0.3259  0.1399
 1935COC    COC 1935   9.480   5.979   8.135  0.0380 -0.2924 -0.3961
 1936COC    COC 1936   9.725   6.009   7.977 -0.2714 -0.0754  0.1448
 1937COC    COC 1937   9.910   5.848   7.763 -0.0312 -0.0498 -0.1839
 1938COC    COC 1938  10.106   5.606   7.826 -0.1661  0.0273  0.2178
 1939COC    COC 1939  10.295   5.676   7.562  0.2339 -0.0671 -0.2379
 1940COC    COC 1940  10.148   5.792   7.331 -0.0387 -0.3727 -0.2165
 1941COC    COC 1941   0.052   5.949   7.270  0.0642 -0.5198 -0.1297
 1942COC    COC 1942   0.308   5.893   7.408  0.1779 -0.1681  0.0377
 1943COC    COC 1943   0.449   5.934   7.655 -0.0016 -0.2752 -0.1424
 1944COC    COC 1944   0.367   5.920   7.926  0.3068  0.3203 -0.2112
 1945COC    COC 1945   0.558   5.885   8.157 -0.4230 -0.3748 -0.3589
 1946COC    COC 1946   0.718   6.140   8.229 -0.4581 -0.1188 -0.2227
 1947COC    COC 1947   0.705   6.100   8.515  0.0995  0.0429 -0.2470
 1948COC    COC 1948   0.942   6.109   8.680 -0.1993  0.2750 -0.2760
 1949COC    COC 1949   1.239   6.041   8.742  0.0807  0.3245 -0.3299
 1950COC    COC 1950   1.380   5.848   8.523  0.1701  0.1786 -0.0545
 1951COC    COC 1951   1.395   5.545   8.500  0.2663  0.3969  0.1196
 1952COC    COC 1952   1.539   5.419   8.228  0.1589  0.2850  0.0784
 1953COC    COC 1953   1.472   5.182   8.083  0.0204 -0.1507 -0.6010
 1954COC    COC 1954   1.665   5.055   7.925  0.0065  0.2312  0.0512
 1955COC    COC 1955   1.839   4.889   8.054 -0.1710 -0.0309 -0.3162
 1956COC    COC 1956   1.906   4.599   8.180  0.1396 -0.0982  0.0807
 1957COC    COC 1957   2.134   4.611   8.375  0.3524 -0.2117  0.1232
 1958COC    COC 1958   2.122   4.355   8.547  0.2098  0.2150  0.1637
 1959COC    COC 1959   1.890   4.221   8.466  0.1684  0.4562  0.0713
 1960COC    COC 1960   1.648   4.410   8.537  0.0443 -0.2787  0.0454
 1961COC    COC 1961   1.487   4.442   8.824  0.1466 -0.2387  0.1921
 1962COC    COC 1962   1.496   4.715   8.956  0.0800 -0.0324  0.4385
 1963COC    COC 1963   1.443   4.842   9.209  0.2835 -0.1950  0.2759
 1964COC    COC 1964   1.347   4.598   9.341  0.1899 -0.2383 -0.0835
 1965COC    COC 1965   1.389   4.329   9.393  0.2297  0.3763  0.2956
 1966COC    COC 1966   1.289   4.159   9.127 -0.2492  0.1392 -0.1049
 1967COC    COC 1967   1.014   4.130   9.109  0.0815  0.1418  0.0564
 1968COC    COC 1968   0.958   4.396   9.272 -0.0085  0.3212  0.1669
 1969COC    COC 1969   0.777   4.450   9.477  0.0644 -0.0466 -0.0699
 1970COC    COC 1970   0.893   4.327   9.753  0.7123  0.1459  0.0970
 1971COC    COC 1971   1.036   4.564   9.848  0.0780  0.3074 -0.1950
 1972COC    COC 1972   1.010   4.766  10.056 -0.0378 -0.4695  0.0533
 1973COC    COC 1973   1.052   5.072  10.003 -0.1642  0.1193 -0.1818
 1974COC    COC 1974   1.102   5.336   9.911 -0.2151  0.2739 -0.0567
 1975COC    COC 1975   0.935   5.428   9.661  0.2526  0.6026  0.3232
 1976COC    COC 1976   1.135   5.428   9.443  0.2734  0.0830  0.1469
 1977COC    COC 1977   0.980   5.220   9.249 -0.2735 -0.1197  0.0661
 1978COH    COH 1978   0.790   5.101   9.296  0.1040  0.0095  0.1348
 1979COH    COH 1979   6.014   0.065   2.576  0.0398  0.2015 -0.0696
 1980COC    COC 1980   6.077   0.206   2.350  0.2352 -0.3955 -0.0247
 1981COC    COC 1981   6.260   0.047   2.116  0.0074  0.3486 -0.2838
 1982COC    COC 1982   6.219   0.019   1.848 -0.0095 -0.2704 -0.0850
 1983COC    COC 1983   6.038  10.133   1.796  0.3285 -0.2560  0.1232
 1984COC    COC 1984   5.949   9.910   1.604  0.0384 -0.0810  0.1260
 1985COC    COC 1985   6.157   9.791   1.383 -0.2109 -0.1103 -0.1604
 1986COC    COC 1986   6.421   9.693   1.417 -0.1310  0.3312 -0.1376
 1987COC    COC 1987   6.646   9.870   1.404  0.4202 -0.2135  0.0533
 1988COC    COC 1988   6.901   9.977   1.528  0.3496  0.2243 -0.5126
 1989COC    COC 1989   6.886  10.079   1.811  0.1413 -0.0363 -0.3880
 1990COC    COC 1990   6.962   0.012   1.735 -0.0845  0.0404  0.0408
 1991COC    COC 1991   7.256   0.039   1.636 -0.3376 -0.1414  0.3749
 1992COC    COC 1992   7.342   0.306   1.644  0.0856 -0.2521  0.5168
 1993COC    COC 1993   7.416   0.598   1.636  0.1412 -0.4075  0.1493
 1994COC    COC 1994   7.275   0.782   1.451 -0.7526 -0.0079 -0.0916
 1995COC    COC 1995   7.415   1.065   1.369 -0.2185 -0.0967  0.4030
 1996COC    COC 1996   7.640   1.186   1.169  0.0871 -0.0549  0.1239
 1997COC    COC 1997   7.728   1.003   0.954 -0.2976  0.2843 -0.2230
 1998COC    COC 1998   7.580   0.719   1.049  0.1483  0.1831  0.3893
 1999COC    COC 1999   7.736   0.462   1.158  0.2093  0.2466  0.1393
 2000COC    COC 2000   7.941   0.429   0.968 -0.0795 -0.1786 -0.2752
 2001COC    COC 2001   7.898   0.452   0.658  0.2023 -0.0717 -0.0715
 2002COC    COC 2002   8.060   0.237   0.548  0.2467 -0.0584  0.4592
 2003COC    COC 2003   8.319   0.121   0.517 -0.0291 -0.3210 -0.2138
 2004COC    COC 2004   8.500   0.073   0.766  0.2593 -0.0106 -0.2304
 2005COC    COC 2005   8.803   0.031   0.806 -0.2408 -0.2224 -0.1279
 2006COC    COC 2006   8.859  10.104   0.844  0.1274  0.1995 -0.5911
 2007COC    COC 2007   8.735   9.835   0.934 -0.0818 -0.0500  0.0791
 2008COC    COC 2008   8.613   9.674   0.687 -0.0856 -0.1267  0.0763
 2009COC    COC 2009   8.823   9.713   0.527 -0.0123  0.3557  0.5444
 2010COC    COC 2010   9.040   9.920   0.539  0.1253  0.1878 -0.0064
 2011COC    COC 2011   9.304   9.949   0.429 -0.2794  0.5539  0.2171
 2012COC    COC 2012   9.498  10.132   0.565  0.1023 -0.0882 -0.1041
 2013COC    COC 2013   9.589  10.280   0.327  0.2373 -0.1578  0.2912
 2014COC    COC 2014   9.448  10.334   0.050  0.0309 -0.1057  0.0838
 2015COC    COC 2015   9.495   0.214  10.216 -0.0702 -0.0213  0.2714
 2016COC    COC 2016   9.798   0.260  10.340  0.2092 -0.0682  0.2545
 2017COC    COC 2017   9.973   0.369   0.212 -0.0903  0.2823  0.6358
 2018COC    COC 2018  10.040   0.669   0.177  0.2484 -0.2040 -0.2426
 2019COC    COC 2019  10.270   0.682   0.013  0.1003 -0.4042  0.3225
 2020COC    COC 2020   0.178   0.545  10.292  0.2464 -0.0662  0.2382
 2021COC    COC 2021   0.255   0.314   0.098  0.0190 -0.1022  0.3763
 2022COC    COC 2022   0.483   0.151  10.290  0.4696 -0.1788 -0.5043
 2023COC    COC 2023   0.758   0.198  10.222 -0.0780 -0.1458 -0.1040
 2024COH    COH 2024   0.904  10.303  10.296  0.2085  0.4653  0.5486
 2025COH    COH 2025   7.383   1.761   0.956 -0.1868  0.1350  0.1173
 2026COC    COC 2026   7.472   1.928   1.101  0.1535  0.1774 -0.1587
 2027COC    COC 2027   7.248   1.980   1.269 -0.0329 -0.3828  0.0883
 2028COC    COC 2028   6.964   1.861   1.229 -0.2152  0.1224  0.1339
 2029COC    COC 2029   6.786   1.927   1.455 -0.0257 -0.2615  0.1972
 2030COC    COC 2030   6.524   1.822   1.418  0.2441 -0.1877  0.2521
 2031COC    COC 2031   6.516   1.542   1.367 -0.0885 -0.1719 -0.1863
 2032COC    COC 2032   6.735   1.347   1.479 -0.0606 -0.1649  0.0223
 2033COC    COC 2033   6.987   1.423   1.339  0.2351 -0.0387  0.1501
 2034COC    COC 2034   7.144   1.239   1.122 -0.0659  0.1670 -0.6844
 2035COC    COC 2035   7.056   1.000   0.961  0.0109  0.4489 -0.0308
 2036COC    COC 2036   7.188   0.769   0.726 -0.1003  0.1327 -0.2450
 2037COC    COC 2037   7.123   0.802   0.441  0.3760  0.2395 -0.1354
 2038COC    COC 2038   7.246   0.796   0.169  0.1789  0.0364  0.0261
 2039COC    COC 2039   7.209   0.526   0.044 -0.0018 -0.0366 -0.5027
 2040COC    COC 2040   7.216   0.419  10.138  0.3827  0.2942 -0.0197
 2041COC    COC 2041   7.283   0.132  10.160  0.2368 -0.3154  0.0336
 2042COC    COC 2042   7.380   0.038   0.102  0.3022  0.1288 -0.0879
 2043COC    COC 2043   7.218   0.038   0.389  0.3127 -0.2399 -0.3441
 2044COC    COC 2044   7.006   0.274   0.393 -0.0794  0.2817  0.1358
 2045COC    COC 2045   6.871   0.346   0.677  0.0450 -0.1525  0.2325
 2046COC    COC 2046   6.699   0.072   0.749 -0.1270 -0.0771 -0.0394
 2047COC    COC 2047   6.758  10.188   0.550 -0.3013 -0.1431 -0.0391
 2048COC    COC 2048   6.648   9.996   0.306 -0.2222  0.2937  0.2058
 2049COC    COC 2049   6.620  10.027  10.342  0.5117  0.5671  0.2738
 2050COC    COC 2050   6.459  10.167  10.110  0.1329 -0.0255  0.1195
 2051COC    COC 2051   6.458   0.134  10.174 -0.0026  0.0315  0.0249
 2052COC    COC 2052   6.522   0.401  10.237  0.2902  0.1839  0.2305
 2053COC    COC 2053   6.415   0.673  10.136  0.0576 -0.0364  0.0878
 2054COC    COC 2054   6.170   0.848  10.243 -0.2169 -0.1787 -0.1377
 2055COC    COC 2055   5.859   0.922  10.167 -0.0163 -0.3323 -0.0817
 2056COC    COC 2056   5.666   0.725  10.266  0.0272 -0.0790  0.0236
 2057COC    COC 2057   5.649   0.622   0.219 -0.1623  0.1177  0.2211
 2058COC    COC 2058   5.529   0.700   0.495  0.1490 -0.2172  0.4327
 2059COC    COC 2059   5.456   0.541   0.721 -0.1690  0.0561 -0.0177
 2060COC    COC 2060   5.698   0.517   0.908 -0.0647  0.1419  0.1535
 2061COC    COC 2061   5.539   0.389   1.167  0.4941 -0.3736 -0.0737
 2062COC    COC 2062   5.326   0.192   1.186 -0.1941 -0.1119 -0.3092
 2063COC    COC 2063   5.231  10.288   1.245  0.4490 -0.1471 -0.3031
 2064COC    COC 2064   5.496  10.163   1.361  0.2897 -0.0103 -0.5376
 2065COC    COC 2065   5.762  10.328   1.321 -0.2027  0.1322 -0.0983
 2066COC    COC 2066   5.979  10.148   1.200 -0.0381 -0.0630 -0.0577
 2067COC    COC 2067   6.298  10.208   1.175 -0.1878  0.1378  0.1248
 2068COC    COC 2068   6.416   9.925   1.047 -0.1665 -0.0178  0.1643
 2069COC    COC 2069   6.436   9.844   0.721  0.3859 -0.1690 -0.0028
 2070COH    COH 2070   6.545   9.626   0.593  0.2893  0.2752 -0.0847
 2071COH    COH 2071   5.463   5.170   4.884  0.0172 -0.4601  0.3157
 2072COC    COC 2072   5.304   5.132   5.104  0.1081  0.1587 -0.1069
 2073COC    COC 2073   5.402   5.254   5.325 -0.0335  0.1017  0.3691
 2074COC    COC 2074   5.433   5.544   5.282  0.1843  0.0146 -0.3181
 2075COC    COC 2075   5.734   5.653   5.292  0.0655 -0.2619  0.0987
 2076COC    COC 2076   5.847   5.681   5.573 -0.3821  0.0829 -0.1900
 2077COC    COC 2077   6.156   5.799   5.584  0.2178  0.1318  0.0058
 2078COC    COC 2078   6.400   5.614   5.777  0.3804 -0.2763  0.1556
 2079COC    COC 2079   6.550   5.786   5.969 -0.0699 -0.1917  0.5378
 2080COC    COC 2080   6.814   5.741   6.015 -0.1086  0.1786 -0.1159
 2081COC    COC 2081   6.906   5.554   5.754 -0.5515 -0.2652 -0.5064
 2082COC    COC 2082   7.178   5.419   5.844 -0.0676 -0.0381 -0.2299
 2083COC    COC 2083   7.176   5.120   5.774  0.0841  0.5896 -0.0327
 2084COC    COC 2084   7.159   4.885   6.033 -0.0361 -0.0673  0.1313
 2085COC    COC 2085   6.884   4.788   5.913  0.4112  0.1614  0.2166
 2086COC    COC 2086   6.658   4.514   5.838  0.0697  0.1254 -0.2105
 2087COC    COC 2087   6.501   4.492   5.626  0.5066  0.2350  0.1828
 2088COC    COC 2088   6.541   4.754   5.461 -0.1092  0.0919 -0.3369
 2089COC    COC 2089   6.740   4.858   5.242  0.1717  0.1931 -0.1714
 2090COC    COC 2090   6.547   5.063   5.100 -0.0444  0.1549 -0.0473
 2091COC    COC 2091   6.291   5.050   5.234  0.1185  0.1832  0.1466
 2092COC    COC 2092   6.211   4.768   5.140 -0.1161 -0.2402 -0.2554
 2093COC    COC 2093   5.921   4.710   5.211 -0.0623  0.2565  0.0517
 2094COC    COC 2094   5.826   5.001   5.239  0.0826  0.1671  0.0430
 2095COC    COC 2095   5.739   5.094   5.504  0.4316 -0.1676  0.1639
 2096COC    COC 2096   5.653   5.300   5.673  0.3139 -0.0955  0.1842
 2097COC    COC 2097   5.471   5.233   5.946 -0.3726 -0.0551  0.1432
 2098COC    COC 2098   5.497   5.228   6.225  0.0427 -0.2974 -0.0098
 2099COC    COC 2099   5.664   5.354   6.430 -0.0245 -0.0407  0.1753
 2100COC    COC 2100   5.757   5.188   6.676  0.1535 -0.1841 -0.2471
 2101COC    COC 2101   5.978   4.973   6.688  0.2776  0.1851 -0.6069
 2102COC    COC 2102   6.107   5.014   6.448 -0.1862 -0.0870 -0.4967
 2103COC    COC 2103   6.032   5.160   6.215  0.1747 -0.1840  0.4656
 2104COC    COC 2104   5.871   4.973   6.019 -0.0203 -0.1510  0.2870
 2105COC    COC 2105   5.881   4.673   6.096  0.3096  0.0319 -0.1923
 2106COC    COC 2106   5.800   4.733   6.376 -0.1265  0.1846 -0.0527
 2107COC    COC 2107   5.534   4.830   6.531  0.0819 -0.4109 -0.2127
 2108COC    COC 2108   5.341   4.609   6.527  0.0263 -0.0327  0.2478
 2109COC    COC 2109   5.392   4.425   6.750 -0.5887 -0.3109  0.0185
 2110COC    COC 2110   5.554   4.156   6.830  0.1668 -0.4316  0.0992
 2111COC    COC 2111   5.366   3.880   6.903  0.0901 -0.1081  0.1718
 2112COC    COC 2112   5.465   3.623   7.028  0.0149 -0.2566  0.1387
 2113COC    COC 2113   5.489   3.432   7.265 -0.2853 -0.1877  0.0605
 2114COC    COC 2114   5.431   3.366   7.563 -0.1728 -0.0628  0.0337
 2115COC    COC 2115   5.404   3.534   7.793  0.5448  0.0433 -0.3655
 2116COH    COH 2116   5.602   3.510   7.942  0.4367  0.1458 -0.1134
 2117COH    COH 2117   0.124   2.495   8.277 -0.2158  0.1274 -0.0411
 2118COC    COC 2118  10.253   2.400   8.144 -0.1195 -0.1533 -0.0796
 2119COC    COC 2119  10.139   2.551   7.895 -0.2481  0.4755 -0.0163
 2120COC    COC 2120   9.950   2.380   7.766  0.3049  0.0975  0.3308
 2121COC    COC 2121   9.661   2.424   7.813 -0.1540 -0.1877  0.2436
 2122COC    COC 2122   9.757   2.639   8.047 -0.1595  0.0873  0.3605
 2123COC    COC 2123   9.848   2.815   8.233 -0.1231 -0.1844  0.0737
 2124COC    COC 2124  10.086   2.926   8.175 -0.1573  0.1695 -0.4271
 2125COC    COC 2125  10.329   2.833   8.408  0.2464  0.1317 -0.2336
 2126COC    COC 2126  10.335   2.921   8.674 -0.4277  0.4857 -0.1464
 2127COC    COC 2127   0.285   2.947   8.776 -0.2864  0.0107  0.2374
 2128COC    COC 2128   0.489   3.107   8.639  0.2197 -0.1929 -0.6811
 2129COC    COC 2129   0.715   3.076   8.460 -0.1754 -0.1074  0.4244
 2130COC    COC 2130   0.748   3.135   8.153  0.0858 -0.2420 -0.3206
 2131COC    COC 2131   0.689   2.913   7.975 -0.1386  0.3369 -0.2073
 2132COC    COC 2132   0.479   3.014   7.754 -0.2498  0.1881 -0.0539
 2133COC    COC 2133   0.434   3.294   7.766 -0.0358 -0.3931 -0.6918
 2134COC    COC 2134   0.626   3.563   7.741 -0.3514  0.4433 -0.1495
 2135COC    COC 2135   0.691   3.831   7.821 -0.0979 -0.0381  0.2481
 2136COC    COC 2136   0.672   3.989   8.087 -0.0074  0.0521  0.3660
 2137COC    COC 2137   0.463   4.132   8.186  0.1465 -0.4233 -0.0965
 2138COC    COC 2138   0.296   4.304   8.400  0.1154 -0.1363 -0.0251
 2139COC    COC 2139   0.198   4.193   8.665 -0.0639  0.1976  0.3002
 2140COC    COC 2140   0.194   4.324   8.913 -0.1271  0.1217  0.2313
 2141COC    COC 2141   0.019   4.230   9.152 -0.2497  0.0995  0.4311
 2142COC    COC 2142   0.069   3.941   9.194 -0.0303  0.2472 -0.1933
 2143COC    COC 2143   0.037   3.731   9.418 -0.0139  0.0654 -0.3486
 2144COC    COC 2144   0.328   3.642   9.413 -0.0729 -0.0273 -0.2028
 2145COC    COC 2145   0.334   3.469   9.149 -0.1441  0.4246 -0.4893
 2146COC    COC 2146   0.106   3.496   8.977  0.0751 -0.0084  0.1405
 2147COC    COC 2147   0.133   3.373   8.729  0.2539  0.0254  0.1766
 2148COC    COC 2148  10.307   3.283   8.460 -0.2849 -0.1267 -0.0738
 2149COC    COC 2149  10.272   3.524   8.303  0.0446 -0.2765  0.3139
 2150COC    COC 2150  10.041   3.682   8.123  0.0323  0.5997  0.2764
 2151COC    COC 2151   9.759   3.594   8.286 -0.0524 -0.2766 -0.4760
 2152COC    COC 2152   9.820   3.366   8.459 -0.3545 -0.1467 -0.0978
 2153COC    COC 2153   9.927   3.400   8.763  0.1209  0.1621  0.2053
 2154COC    COC 2154  10.090   3.616   8.682  0.2860 -0.1760  0.1100
 2155COC    COC 2155  10.144   3.889   8.671  0.0762  0.1804  0.3475
 2156COC    COC 2156  10.035   4.177   8.736 -0.2539 -0.0596  0.1848
 2157COC    COC 2157   9.796   4.315   8.886  0.0191  0.2390 -0.3287
 2158COC    COC 2158   9.536   4.343   8.782  0.0675  0.0336  0.1240
 2159COC    COC 2159   9.382   4.274   8.498  0.0555  0.3265  0.1376
 2160COC    COC 2160   9.439   4.502   8.322  0.3462 -0.1625  0.2337
 2161COC    COC 2161   9.723   4.577   8.351 -0.0662  0.2177 -0.2637
 2162COH    COH 2162   9.810   4.670   8.130 -0.2508 -0.1068 -0.3393
 2163COH    COH 2163   4.591   3.187   5.608 -0.0290 -0.6889  0.0697
 2164COC    COC 2164   4.666   3.428   5.725 -0.3071  0.1266  0.0097
 2165COC    COC 2165   4.847   3.610   5.552 -0.4743 -0.0882 -0.0919
 2166COC    COC 2166   4.953   3.795   5.830  0.4091 -0.3638  0.1826
 2167COC    COC 2167   4.895   4.041   5.895 -0.1669  0.0363  0.0976
 2168COC    COC 2168   4.810   4.171   6.146  0.3205 -0.1973 -0.3440
 2169COC    COC 2169   4.518   4.115   6.181 -0.0385  0.2564 -0.2216
 2170COC    COC 2170   4.426   3.903   6.350  0.1506  0.0760  0.1772
 2171COC    COC 2171   4.278   3.672   6.485 -0.2602  0.2197 -0.0035
 2172COC    COC 2172   4.252   3.579   6.776 -0.0207  0.0628  0.1371
 2173COC    COC 2173   4.342   3.738   7.037  0.0485 -0.0182 -0.1640
 2174COC    COC 2174   4.136   3.871   7.205 -0.4435  0.0014 -0.1399
 2175COC    COC 2175   4.042   4.116   7.306  0.0052 -0.3217 -0.4110
 2176COC    COC 2176   4.106   4.358   7.145 -0.2287 -0.2964 -0.1606
 2177COC    COC 2177   4.349   4.433   7.302 -0.2783 -0.0442 -0.2160
 2178COC    COC 2178   4.653   4.459   7.321 -0.2387 -0.1944 -0.1920
 2179COC    COC 2179   4.765   4.204   7.430 -0.0377 -0.1251  0.2699
 2180COC    COC 2180   5.043   4.219   7.440 -0.1819 -0.0666  0.5244
 2181COC    COC 2181   5.100   4.520   7.381 -0.0767  0.1241 -0.0685
 2182COC    COC 2182   5.024   4.762   7.514  0.4001  0.4219  0.0767
 2183COC    COC 2183   4.849   4.960   7.379 -0.0853 -0.4208  0.2612
 2184COC    COC 2184   4.759   5.248   7.388 -0.3146  0.1908  0.0839
 2185COC    COC 2185   4.488   5.238   7.234  0.2221  0.1632 -0.0331
 2186COC    COC 2186   4.349   5.475   7.316  0.3667  0.1595 -0.2214
 2187COC    COC 2187   4.101   5.667   7.241  0.1180 -0.1859  0.1224
 2188COC    COC 2188   3.966   5.877   7.364  0.0847 -0.3651 -0.2541
 2189COC    COC 2189   4.047   5.795   7.658 -0.2721 -0.4847 -0.2065
 2190COC    COC 2190   4.351   5.728   7.630  0.1986 -0.1322 -0.1854
 2191COC    COC 2191   4.631   5.841   7.516 -0.0203 -0.0338  0.1358
 2192COC    COC 2192   4.535   6.111   7.377 -0.1337  0.0924 -0.1872
 2193COC    COC 2193   4.498   6.349   7.562 -0.0967 -0.0961 -0.3937
 2194COC    COC 2194   4.344   6.615   7.486 -0.4663  0.2196 -0.1745
 2195COC    COC 2195   4.417   6.782   7.234 -0.2278  0.1087 -0.2638
 2196COC    COC 2196   4.355   7.061   7.223 -0.0198  0.1941  0.1511
 2197COC    COC 2197   4.425   7.303   7.361 -0.0232 -0.2310 -0.2638
 2198COC    COC 2198   4.372   7.614   7.277 -0.2250  0.1370  0.3073
 2199COC    COC 2199   4.495   7.882   7.295 -0.1496  0.2079  0.1721
 2200COC    COC 2200   4.498   8.062   7.523  0.0167 -0.1669 -0.0452
 2201COC    COC 2201   4.286   8.054   7.739 -0.0227 -0.1369 -0.3160
 2202COC    COC 2202   4.177   7.803   7.855 -0.0828 -0.2426  0.0628
 2203COC    COC 2203   4.116   7.530   7.706  0.1662 -0.2960 -0.2039
 2204COC    COC 2204   3.992   7.316   7.870  0.2556  0.4638  0.4925
 2205COC    COC 2205   3.910   7.470   8.070  0.2025  0.3139  0.1012
 2206COC    COC 2206   3.880   7.418   8.373  0.1254 -0.0645  0.0436
 2207COC    COC 2207   3.777   7.163   8.359  0.1224  0.2126 -0.3095
 2208COH    COH 2208   3.585   7.214   8.539  0.3283 -0.2711 -0.1888
 2209COH    COH 2209   6.338   1.735   3.756 -0.3659 -0.3713  0.2696
 2210COC    COC 2210   6.582   1.765   3.852  0.3091 -0.1446  0.1282
 2211COC    COC 2211   6.685   1.776   3.596 -0.2343 -0.2958  0.1591
 2212COC    COC 2212   6.839   2.063   3.550 -0.3507 -0.0146  0.2337
 2213COC    COC 2213   6.882   2.211   3.306 -0.5384  0.3691  0.1391
 2214COC    COC 2214   7.067   2.453   3.254 -0.2140 -0.1537 -0.1014
 2215COC    COC 2215   7.095   2.704   3.154 -0.1338 -0.0937  0.0657
 2216COC    COC 2216   7.341   2.912   3.084 -0.1268 -0.0216 -0.4354
 2217COC    COC 2217   7.590   2.756   2.935 -0.2701  0.1780 -0.3378
 2218COC    COC 2218   7.889   2.633   2.920  0.0000  0.4473 -0.7030
 2219COC    COC 2219   8.165   2.555   2.892  0.0319 -0.0634 -0.3232
 2220COC    COC 2220   8.450   2.667   2.912  0.2782  0.1596  0.3013
 2221COC    COC 2221   8.530   2.892   2.721  0.0789  0.0593 -0.2026
 2222COC    COC 2222   8.375   3.184   2.715 -0.0512 -0.1784 -0.1231
 2223COC    COC 2223   8.566   3.426   2.767  0.0062 -0.2413  0.2364
 2224COC    COC 2224   8.465   3.697   2.877  0.1182  0.3235  0.0762
 2225COC    COC 2225   8.654   3.871   2.726 -0.1495 -0.1594 -0.1324
 2226COC    COC 2226   8.708   4.166   2.802 -0.0831 -0.1315 -0.0869
 2227COC    COC 2227   8.684   4.358   2.558 -0.0561 -0.2418 -0.0596
 2228COC    COC 2228   8.929   4.522   2.647  0.3069 -0.2973  0.1873
 2229COC    COC 2229   8.741   4.728   2.835 -0.3181  0.1733 -0.2225
 2230COC    COC 2230   8.649   4.487   3.015 -0.3490  0.0148 -0.0724
 2231COC    COC 2231   8.737   4.567   3.313 -0.1454  0.2557  0.2616
 2232COC    COC 2232   8.411   4.641   3.426 -0.1523 -0.1034  0.2545
 2233COC    COC 2233   8.180   4.588   3.226  0.1384 -0.4753 -0.1910
 2234COC    COC 2234   8.246   4.394   3.050  0.0786 -0.0630  0.3552
 2235COC    COC 2235   8.241   4.467   2.748  0.3024  0.2768 -0.1382
 2236COC    COC 2236   8.250   4.775   2.708 -0.2107  0.3309  0.1204
 2237COC    COC 2237   8.379   5.043   2.655  0.0895  0.2040  0.0634
 2238COC    COC 2238   8.402   5.148   2.365 -0.2306  0.4894  0.3399
 2239COC    COC 2239   8.192   4.947   2.229  0.2785 -0.2961 -0.2099
 2240COC    COC 2240   8.162   4.936   1.941 -0.2449  0.0402 -0.0951
 2241COC    COC 2241   8.301   4.663   1.778  0.3489 -0.5723 -0.1587
 2242COC    COC 2242   8.508   4.417   1.819 -0.3312  0.0596 -0.2533
 2243COC    COC 2243   8.460   4.154   1.692 -0.0727  0.1925 -0.1790
 2244COC    COC 2244   8.266   3.886   1.753 -0.0887 -0.2888 -0.0938
 2245COC    COC 2245   8.212   3.595   1.648  0.3214  0.2145  0.0522
 2246COC    COC 2246   8.154   3.697   1.350  0.0226 -0.0138 -0.1615
 2247COC    COC 2247   8.108   3.468   1.156 -0.0260 -0.6049 -0.0879
 2248COC    COC 2248   7.812   3.349   1.213 -0.0741  0.3692  0.1045
 2249COC    COC 2249   7.721   3.117   1.117 -0.0972  0.1160  0.0797
 2250COC    COC 2250   7.615   2.888   1.356 -0.2467  0.2472 -0.2503
 2251COC    COC 2251   7.825   2.678   1.440  0.0049  0.1597 -0.0747
 2252COC    COC 2252   7.949   2.479   1.256 -0.0605  0.4901  0.1166
 2253COC    COC 2253   8.230   2.426   1.231 -0.1436 -0.1278  0.1618
 2254COH    COH 2254   8.223   2.169   1.262 -0.1536  0.0888 -0.4241
 2255COH    COH 2255   6.646   6.948   0.511 -0.0340 -0.1474 -0.0122
 2256COC    COC 2256   6.828   6.890   0.315  0.0599 -0.3153 -0.3874
 2257COC    COC 2257   6.877   6.951   0.032  0.0665 -0.0747 -0.4221
 2258COC    COC 2258   6.794   7.240  10.345  0.0037  0.3596 -0.1090
 2259COC    COC 2259   6.573   7.425  10.321 -0.1709  0.0601  0.0006
 2260COC    COC 2260   6.411   7.316  10.122  0.1281 -0.0021  0.1427
 2261COC    COC 2261   6.427   7.418   9.833 -0.0926 -0.5447  0.0572
 2262COC    COC 2262   6.392   7.156   9.668  0.0037 -0.0149  0.5137
 2263COC    COC 2263   6.213   6.921   9.586 -0.0252  0.2588  0.0679
 2264COC    COC 2264   5.872   6.922   9.653 -0.5546  0.0194 -0.0319
 2265COC    COC 2265   5.578   7.055   9.639 -0.0892  0.4079  0.2397
 2266COC    COC 2266   5.505   7.253   9.413 -0.1051  0.6719 -0.5212
 2267COC    COC 2267   5.390   7.491   9.474 -0.0810  0.2218 -0.3232
 2268COC    COC 2268   5.279   7.731   9.382  0.2493  0.0765 -0.2660
 2269COC    COC 2269   5.371   7.795   9.106  0.2162  0.1409  0.1190
 2270COC    COC 2270   5.572   8.065   9.093 -0.2964  0.1892 -0.4740
 2271COC    COC 2271   5.676   8.271   9.313  0.0856  0.0209  0.0375
 2272COC    COC 2272   5.955   8.363   9.353  0.0140 -0.1902 -0.0397
 2273COC    COC 2273   6.013   8.618   9.456  0.2300  0.0928 -0.3140
 2274COC    COC 2274   6.006   8.918   9.484 -0.2461 -0.0657  0.0106
 2275COC    COC 2275   6.001   9.070   9.227 -0.2319  0.3020  0.0560
 2276COC    COC 2276   6.174   9.112   8.997 -0.4350  0.1516  0.2383
 2277COC    COC 2277   6.406   8.966   8.844 -0.1196  0.1208 -0.0404
 2278COC    COC 2278   6.554   9.089   8.587 -0.0095 -0.1695  0.4254
 2279COC    COC 2279   6.461   8.965   8.306 -0.3544  0.2581 -0.0863
 2280COC    COC 2280   6.246   9.090   8.167  0.1814  0.0091 -0.0055
 2281COC    COC 2281   5.974   9.227   8.278  0.2122  0.0639  0.2582
 2282COC    COC 2282   5.698   9.157   8.166 -0.2488  0.2739  0.1515
 2283COC    COC 2283   5.487   9.258   7.983 -0.1017 -0.0733  0.2174
 2284COC    COC 2284   5.243   9.277   7.807  0.1356 -0.0232 -0.0351
 2285COC    COC 2285   5.048   9.287   7.570 -0.3880  0.7116 -0.1233
 2286COC    COC 2286   5.117   9.478   7.328  0.2649 -0.0682  0.1583
 2287COC    COC 2287   5.388   9.473   7.185 -0.8389  0.0631  0.5304
 2288COC    COC 2288   5.565   9.332   7.462  0.0852  0.0445  0.0057
 2289COC    COC 2289   5.581   9.050   7.606 -0.3761  0.2333  0.1570
 2290COC    COC 2290   5.335   8.910   7.640 -0.2761  0.1411 -0.0499
 2291COC    COC 2291   5.303   8.609   7.528 -0.2309 -0.0165  0.1005
 2292COC    COC 2292   5.465   8.635   7.271  0.2509 -0.0263 -0.2285
 2293COC    COC 2293   5.693   8.830   7.222  0.2767 -0.5127 -0.3844
 2294COC    COC 2294   5.826   8.926   6.952 -0.1530 -0.0621  0.2578
 2295COC    COC 2295   6.125   8.812   6.898  0.1043  0.1102 -0.0303
 2296COC    COC 2296   6.348   8.992   6.880 -0.2700 -0.1724 -0.0089
 2297COC    COC 2297   6.272   9.254   6.963 -0.3762  0.1348  0.2834
 2298COC    COC 2298   6.548   9.437   6.948 -0.5190  0.2386  0.0090
 2299COC    COC 2299   6.651   9.506   7.192 -0.3513 -0.4687 -0.2958
 2300COH    COH 2300   6.898   9.459   7.288  0.0983  0.0497 -0.0727
 2301COH    COH 2301   9.832  10.291   1.317 -0.2306  0.0232 -0.2355
 2302COC    COC 2302  10.004   0.064   1.165 -0.1236 -0.2481 -0.1330
 2303COC    COC 2303  10.309  10.340   1.121  0.2427  0.1004  0.1491
 2304COC    COC 2304   0.064  10.280   0.860  0.2026  0.1083 -0.0188
 2305COC    COC 2305   0.200   0.127   0.650 -0.2375 -0.3437 -0.0892
 2306COC    COC 2306   0.494   0.186   0.738 -0.2420 -0.4123  0.1201
 2307COC    COC 2307   0.702  10.331   0.828  0.2771 -0.2370  0.2370
 2308COC    COC 2308   1.017  10.334   0.820  0.3012 -0.0610 -0.1250
 2309COC    COC 2309   1.106  10.108   0.617  0.2145  0.0024 -0.3734
 2310COC    COC 2310   0.982   9.954   0.391 -0.1645 -0.0947 -0.0121
 2311COC    COC 2311   1.160  10.012   0.136  0.0904 -0.0939 -0.2131
 2312COC    COC 2312   1.329  10.257   0.090  0.2201  0.0093 -0.2206
 2313COC    COC 2313   1.632  10.344   0.067  0.2499  0.2268  0.2476
 2314COC    COC 2314   1.746  10.231  10.180 -0.0442 -0.2114 -0.3987
 2315COC    COC 2315   1.899  10.294   9.987 -0.3257  0.2753  0.0979
 2316COC    COC 2316   1.753  10.109   9.769 -0.0018  0.0491  0.6711
 2317COC    COC 2317   1.505   9.987   9.632 -0.0653  0.2884 -0.0248
 2318COC    COC 2318   1.232  10.098   9.607 -0.1237  0.0867 -0.3390
 2319COC    COC 2319   1.149   9.811   9.480 -0.0820  0.0003  0.0794
 2320COC    COC 2320   1.327   9.545   9.487 -0.2520  0.1945 -0.8042
 2321COC    COC 2321   1.201   9.292   9.618 -0.2908  0.1727  0.0345
 2322COC    COC 2322   1.275   9.020   9.516 -0.0283  0.0412  0.1578
 2323COC    COC 2323   1.580   9.041   9.464 -0.2589 -0.3511  0.6262
 2324COC    COC 2324   1.851   9.117   9.504 -0.1345 -0.0939 -0.3246
 2325COC    COC 2325   2.092   8.931   9.550  0.0296 -0.0555 -0.1259
 2326COC    COC 2326   2.383   9.010   9.603  0.2321  0.0801 -0.2212
 2327COC    COC 2327   2.430   9.018   9.888  0.4403 -0.1579  0.2557
 2328COC    COC 2328   2.558   9.258   9.992 -0.2086 -0.1054 -0.2419
 2329COC    COC 2329   2.675   9.501   9.990  0.1008 -0.0487 -0.0528
 2330COC    COC 2330   2.541   9.629  10.283  0.1667 -0.1602  0.3495
 2331COC    COC 2331   2.265   9.528  10.316  0.1675  0.0288  0.4051
 2332COC    COC 2332   2.295   9.457   0.261 -0.0723  0.3999  0.1034
 2333COC    COC 2333   2.117   9.354   0.472  0.1551  0.1222  0.0772
 2334COC    COC 2334   2.171   9.068   0.584 -0.3344 -0.5865 -0.0573
 2335COC    COC 2335   2.343   8.908   0.416  0.1541 -0.1364 -0.5496
 2336COC    COC 2336   2.327   8.596   0.442 -0.1599 -0.0086 -0.2355
 2337COC    COC 2337   2.485   8.402   0.275  0.0117 -0.1300  0.1787
 2338COC    COC 2338   2.761   8.323   0.401 -0.1384  0.1916  0.1945
 2339COC    COC 2339   2.727   8.057   0.567  0.1918 -0.1997 -0.0231
 2340COC    COC 2340   2.834   7.784   0.448  0.1602 -0.4900  0.4061
 2341COC    COC 2341   3.071   7.646   0.577  0.1989  0.0596  0.1340
 2342COC    COC 2342   3.318   7.741   0.720  0.3240 -0.2958  0.2084
 2343COC    COC 2343   3.181   7.889   0.938 -0.0587 -0.1078 -0.0573
 2344COC    COC 2344   3.241   7.825   1.225 -0.3155 -0.0935 -0.4192
 2345COC    COC 2345   3.146   7.916   1.466  0.4034 -0.0040 -0.3728
 2346COH    COH 2346   3.091   7.807   1.719  0.1068 -0.3343  0.1192
 2347COH    COH 2347   3.272   9.210  10.272  0.0325 -0.2939 -0.0518
 2348COC    COC 2348   3.512   9.247   0.002 -0.1560 -0.2497  0.0053
 2349COC    COC 2349   3.686   9.411  10.150 -0.1625 -0.0770 -0.1746
 2350COC    COC 2350   3.982   9.462  10.300 -0.0767  0.3162 -0.1117
 2351COC    COC 2351   3.972   9.680   0.153 -0.0114 -0.2701  0.3270
 2352COC    COC 2352   4.151   9.629   0.376 -0.1785 -0.5181 -0.2890
 2353COC    COC 2353   3.981   9.428   0.536  0.0952 -0.0479 -0.3128
 2354COC    COC 2354   3.923   9.195   0.340  0.0461  0.1062  0.2426
 2355COC    COC 2355   4.112   8.938   0.333 -0.0196  0.1400  0.0994
 2356COC    COC 2356   3.937   8.701   0.447  0.0980  0.0246 -0.1757
 2357COC    COC 2357   4.056   8.492   0.613  0.3893 -0.3753 -0.0720
 2358COC    COC 2358   4.338   8.469   0.710 -0.2013  0.1266 -0.0877
 2359COC    COC 2359   4.399   8.611   0.957 -0.0544 -0.2040  0.2169
 2360COC    COC 2360   4.273   8.818   1.125 -0.0337  0.3778 -0.0520
 2361COC    COC 2361   4.091   8.804   1.346  0.1251  0.1693  0.1860
 2362COC    COC 2362   4.017   9.040   1.557  0.5958 -0.0968  0.0207
 2363COC    COC 2363   3.743   9.011   1.679  0.2169  0.1032 -0.1018
 2364COC    COC 2364   3.475   9.046   1.542  0.1383 -0.0537  0.2287
 2365COC    COC 2365   3.361   8.894   1.305  0.0316  0.2909 -0.3196
 2366COC    COC 2366   3.591   8.751   1.233  0.0429 -0.5424  0.0479
 2367COC    COC 2367   3.669   8.593   1.476  0.5087 -0.0697  0.2246
 2368COC    COC 2368   3.933   8.492   1.565 -0.1938 -0.0211  0.0462
 2369COC    COC 2369   4.073   8.665   1.766 -0.0136  0.2951 -0.0598
 2370COC    COC 2370   4.313   8.617   1.961  0.0365 -0.1843  0.0797
 2371COC    COC 2371   4.516   8.821   2.076  0.0999  0.2350 -0.2336
 2372COC    COC 2372   4.499   9.109   2.032 -0.0217  0.0920 -0.1556
 2373COC    COC 2373   4.794   9.284   2.018  0.1955  0.6890 -0.1820
 2374COC    COC 2374   5.059   9.178   2.156  0.1971  0.3445 -0.3046
 2375COC    COC 2375   5.082   9.230   2.484  0.0356 -0.0615  0.2709
 2376COC    COC 2376   5.143   9.492   2.632 -0.3061 -0.2765 -0.0713
 2377COC    COC 2377   5.155   9.735   2.839  0.1520 -0.2560 -0.2681
 2378COC    COC 2378   4.938   9.962   2.839 -0.0840 -0.0480 -0.2183
 2379COC    COC 2379   5.039  10.256   2.823 -0.2427 -0.0597 -0.0370
 2380COC    COC 2380   4.865   0.071   2.996  0.1962  0.2031 -0.0750
 2381COC    COC 2381   4.929   0.361   3.129  0.1144  0.0282 -0.1000
 2382COC    COC 2382   5.248   0.400   3.091  0.1899 -0.0575  0.0701
 2383COC    COC 2383   5.398   0.267   2.855 -0.1386  0.3482  0.1386
 2384COC    COC 2384   5.418   0.029   2.674 -0.1821 -0.0154  0.4827
 2385COC    COC 2385   5.485   0.178   2.411 -0.0088 -0.1946  0.0468
 2386COC    COC 2386   5.722   0.341   2.490  0.0482 -0.1248  0.4032
 2387COC    COC 2387   5.867   0.605   2.388 -0.3855  0.1869  0.3363
 2388COC    COC 2388   5.827   0.894   2.472  0.0783  0.0246 -0.0980
 2389COC    COC 2389   5.617   1.087   2.350 -0.3455 -0.2667  0.1995
 2390COC    COC 2390   5.416   0.961   2.131 -0.0753 -0.4501  0.3014
 2391COC    COC 2391   5.110   0.875   2.012 -0.4652  0.0561 -0.0198
 2392COH    COH 2392   5.050   0.753   1.754 -0.1395 -0.0292 -0.1207
 2393COH    COH 2393   8.913   3.385   0.172  0.3732  0.1533 -0.2296
 2394COC    COC 2394   8.682   3.350   0.289  0.1568 -0.2315  0.0769
 2395COC    COC 2395   8.750   3.369   0.596 -0.1851  0.4626  0.0245
 2396COC    COC 2396   8.777   3.686   0.603 -0.3005 -0.0296 -0.2334
 2397COC    COC 2397   8.667   3.741   0.865  0.3506  0.0638  0.1440
 2398COC    COC 2398   8.453   3.956   0.807  0.0442 -0.0173 -0.0882
 2399COC    COC 2399   8.213   3.964   1.013 -0.0807  0.0951 -0.1854
 2400COC    COC 2400   7.943   3.911   0.976  0.1411 -0.0559  0.2503
 2401COC    COC 2401   7.895   3.826   0.705 -0.3234 -0.0110  0.1652
 2402COC    COC 2402   7.755   3.709   0.480 -0.0517 -0.2502 -0.1084
 2403COC    COC 2403   7.519   3.481   0.355 -0.2079  0.0190 -0.0401
 2404COC    COC 2404   7.318   3.568   0.536 -0.0573  0.1951  0.1262
 2405COC    COC 2405   7.145   3.744   0.371 -0.0659 -0.2420  0.1355
 2406COC    COC 2406   6.913   3.907   0.441  0.4047 -0.0914 -0.5509
 2407COC    COC 2407   6.703   3.922   0.225 -0.1541 -0.2266 -0.1953
 2408COC    COC 2408   6.510   3.999   0.021 -0.1042 -0.2301  0.0764
 2409COC    COC 2409   6.240   4.127   0.013  0.0787  0.0148  0.2429
 2410COC    COC 2410   6.085   4.173   0.275  0.3282  0.2841  0.1224
 2411COC    COC 2411   5.837   4.381   0.240 -0.3176 -0.0075 -0.0766
 2412COC    COC 2412   5.656   4.333  10.327 -0.1196  0.1399  0.4761
 2413COC    COC 2413   5.480   4.094  10.245  0.0964  0.0237 -0.2808
 2414COC    COC 2414   5.516   4.033   9.955 -0.0956  0.3148  0.0539
 2415COC    COC 2415   5.707   3.767   9.958  0.1599 -0.0378  0.2966
 2416COC    COC 2416   5.547   3.565  10.132  0.0207 -0.0772  0.2757
 2417COC    COC 2417   5.262   3.527  10.124  0.1016 -0.1906 -0.3774
 2418COC    COC 2418   5.141   3.830  10.112  0.2126 -0.2352  0.3614
 2419COC    COC 2419   4.981   4.070  10.268 -0.0261 -0.1377  0.2687
 2420COC    COC 2420   5.124   4.286   0.124 -0.1852  0.1677 -0.2254
 2421COC    COC 2421   5.326   4.504   0.228  0.2176 -0.4855 -0.1330
 2422COC    COC 2422   5.289   4.764   0.027  0.1233  0.1674  0.1694
 2423COC    COC 2423   5.047   4.935  10.309  0.4541 -0.2606  0.2427
 2424COC    COC 2424   4.855   4.944  10.077  0.2055  0.2598 -0.1164
 2425COC    COC 2425   4.588   5.058  10.179  0.0788 -0.0950 -0.2277
 2426COC    COC 2426   4.699   5.272   0.002  0.0713 -0.0591  0.1685
 2427COC    COC 2427   4.527   5.475   0.055  0.2313  0.2600  0.3213
 2428COC    COC 2428   4.661   5.781   0.052 -0.3590  0.3965 -0.2795
 2429COC    COC 2429   4.979   5.772   0.003 -0.2350  0.0360  0.0467
 2430COC    COC 2430   5.134   6.021   0.110  0.0624 -0.1118 -0.4545
 2431COC    COC 2431   5.446   6.061   0.185  0.1325 -0.4018 -0.1120
 2432COC    COC 2432   5.487   6.115   0.465  0.2210 -0.0216 -0.1993
 2433COC    COC 2433   5.465   5.849   0.702 -0.5191 -0.0282  0.1486
 2434COC    COC 2434   5.310   5.624   0.830  0.1878 -0.0062  0.0443
 2435COC    COC 2435   5.467   5.369   0.895  0.0479  0.0228 -0.2422
 2436COC    COC 2436   5.530   5.160   0.671  0.0367  0.2213  0.0179
 2437COC    COC 2437   5.768   5.207   0.520 -0.0581  0.0028  0.2170
 2438COH    COH 2438   5.975   5.058   0.603  0.2652  0.1798 -0.0877
 2439COH    COH 2439   9.511   7.454   1.094 -0.0844 -0.3934 -0.2695
 2440COC    COC 2440   9.797   7.425   1.107  0.2939 -0.1998 -0.1294
 2441COC    COC 2441   9.914   7.173   0.992 -0.3742 -0.2074 -0.2275
 2442COC    COC 2442   9.736   6.959   0.850  0.2464  0.1717  0.3210
 2443COC    COC 2443   9.618   6.668   0.868  0.0004 -0.2595 -0.0511
 2444COC    COC 2444   9.852   6.499   0.966 -0.0662 -0.1756 -0.0024
 2445COC    COC 2445   9.846   6.198   0.924  0.1183 -0.1957  0.0278
 2446COC    COC 2446  10.018   6.085   0.685 -0.0235 -0.2371 -0.2941
 2447COC    COC 2447  10.195   5.864   0.707 -0.2879  0.0071 -0.2789
 2448COC    COC 2448   0.002   5.699   0.497  0.1420  0.1412 -0.0312
 2449COC    COC 2449   0.051   5.434   0.637  0.1462  0.0269 -0.0050
 2450COC    COC 2450   0.265   5.381   0.837  0.1765 -0.5300  0.1400
 2451COC    COC 2451   0.275   5.323   1.109  0.0340  0.2053 -0.1143
 2452COC    COC 2452   0.106   5.489   1.306 -0.2374  0.1572  0.0177
 2453COC    COC 2453   0.116   5.547   1.601 -0.3143  0.0013 -0.0952
 2454COC    COC 2454  10.185   5.542   1.657 -0.1650 -0.0165  0.2898
 2455COC    COC 2455  10.057   5.737   1.804 -0.4635  0.1678  0.2962
 2456COC    COC 2456   9.901   5.967   1.632  0.5845 -0.3026 -0.3861
 2457COC    COC 2457   9.853   5.944   1.332  0.0294 -0.5385 -0.3948
 2458COC    COC 2458  10.009   5.807   1.094  0.3245 -0.1239 -0.4950
 2459COC    COC 2459  10.113   5.558   0.971  0.0664 -0.2356 -0.0158
 2460COC    COC 2460   9.927   5.438   0.779 -0.2465  0.2639 -0.1140
 2461COC    COC 2461   9.873   5.635   0.588 -0.1205 -0.1109 -0.4101
 2462COC    COC 2462   9.686   5.867   0.672 -0.2144  0.0019  0.4319
 2463COC    COC 2463   9.514   5.923   0.436 -0.1650  0.1897  0.6647
 2464COC    COC 2464   9.205   5.925   0.379  0.0550  0.2368  0.0708
 2465COC    COC 2465   9.080   6.186   0.373 -0.0442 -0.0918 -0.1407
 2466COC    COC 2466   9.225   6.478   0.453  0.4136  0.1950  0.1002
 2467COC    COC 2467   9.138   6.780   0.553 -0.0655 -0.0462 -0.3566
 2468COC    COC 2468   8.867   6.914   0.446 -0.0437  0.3644  0.0802
 2469COC    COC 2469   8.722   7.187   0.437  0.1088 -0.0419  0.1753
 2470COC    COC 2470   9.029   7.324   0.443  0.1234 -0.2963  0.1827
 2471COC    COC 2471   9.276   7.193   0.293  0.2739 -0.0745  0.1774
 2472COC    COC 2472   9.237   7.339   0.053  0.0075  0.0797 -0.0408
 2473COC    COC 2473   9.124   7.556  10.278  0.3831  0.2033  0.1531
 2474COC    COC 2474   8.951   7.727   0.090 -0.2785  0.0909 -0.2155
 2475COC    COC 2475   8.948   7.966   0.292  0.0271  0.1277  0.1790
 2476COC    COC 2476   9.064   7.901   0.536  0.2473 -0.2040 -0.2590
 2477COC    COC 2477   8.943   7.912   0.840  0.3759  0.0073  0.1159
 2478COC    COC 2478   8.811   8.192   0.959  0.3757  0.3557 -0.0445
 2479COC    COC 2479   8.989   8.402   1.055  0.5641 -0.3277  0.3696
 2480COC    COC 2480   9.001   8.554   0.798  0.1344 -0.5205  0.3665
 2481COC    COC 2481   9.038   8.441   0.555  0.2930  0.1377 -0.0424
 2482COC    COC 2482   9.131   8.590   0.321 -0.3773 -0.0498 -0.1082
 2483COC    COC 2483   9.307   8.806   0.271 -0.0349 -0.4815 -0.1545
 2484COH    COH 2484   9.565   8.863   0.367 -0.0125 -0.4477 -0.0104
 2485COH    COH 2485   1.873   3.779   1.083 -0.3720  0.3923  0.4828
 2486COC    COC 2486   1.673   3.712   1.227 -0.1844 -0.1538  0.2033
 2487COC    COC 2487   1.648   3.621   1.489 -0.0944 -0.0359 -0.0521
 2488COC    COC 2488   1.600   3.894   1.625 -0.1172  0.4836 -0.1900
 2489COC    COC 2489   1.528   3.997   1.890 -0.0343  0.0626  0.2598
 2490COC    COC 2490   1.618   4.101   2.144  0.1867 -0.3327  0.3913
 2491COC    COC 2491   1.881   4.092   2.304  0.2324  0.0494  0.2081
 2492COC    COC 2492   2.151   4.249   2.252  0.2648 -0.0197 -0.1505
 2493COC    COC 2493   2.099   4.501   2.150  0.0948  0.0277  0.0701
 2494COC    COC 2494   2.332   4.548   1.961 -0.3026  0.3354  0.0110
 2495COC    COC 2495   2.405   4.284   1.867  0.3561  0.4176  0.0769
 2496COC    COC 2496   2.254   4.006   1.867  0.2309  0.1244  0.1993
 2497COC    COC 2497   2.017   3.824   1.930  0.1328 -0.2322 -0.3022
 2498COC    COC 2498   1.803   3.611   1.921  0.0334  0.2741 -0.1991
 2499COC    COC 2499   1.670   3.359   1.835 -0.2054 -0.1027 -0.2222
 2500COC    COC 2500   1.476   3.248   2.023  0.1597 -0.0305  0.4772
 2501COC    COC 2501   1.299   2.980   2.005 -0.2284  0.2320  0.0308
 2502COC    COC 2502   1.283   2.795   2.240  0.2219 -0.2320 -0.0177
 2503COC    COC 2503   1.539   2.833   2.377  0.0545  0.0780  0.4182
 2504COC    COC 2504   1.565   3.137   2.510 -0.1081  0.0911  0.3909
 2505COC    COC 2505   1.734   3.254   2.724  0.0095  0.1119  0.1603
 2506COC    COC 2506   1.602   3.278   2.962 -0.5755  0.3175 -0.1863
 2507COC    COC 2507   1.542   3.243   3.247 -0.1089  0.1419 -0.1558
 2508COC    COC 2508   1.798   3.090   3.398 -0.2128 -0.0765  0.1566
 2509COC    COC 2509   1.747   2.805   3.384 -0.1952 -0.1742 -0.2994
 2510COC    COC 2510   1.646   2.747   3.688 -0.0563 -0.1515  0.0225
 2511COC    COC 2511   1.811   2.788   3.912 -0.1208 -0.3545 -0.0733
 2512COC    COC 2512   2.026   2.965   3.899  0.2765 -0.3242  0.3432
 2513COC    COC 2513   2.162   3.034   4.184  0.7266 -0.1796 -0.3860
 2514COC    COC 2514   2.144   2.929   4.491 -0.1448  0.0198  0.3836
 2515COC    COC 2515   2.104   2.673   4.691 -0.0216  0.0448  0.2326
 2516COC    COC 2516   1.925   2.675   4.868  0.0273  0.0338  0.1567
 2517COC    COC 2517   1.637   2.555   4.903  0.0775 -0.1155  0.5207
 2518COC    COC 2518   1.448   2.602   5.141  0.2055 -0.0812 -0.2708
 2519COC    COC 2519   1.265   2.720   5.352  0.4040 -0.4385  0.1745
 2520COC    COC 2520   1.162   3.047   5.304  0.0988  0.6019 -0.0478
 2521COC    COC 2521   0.889   3.190   5.419  0.1545  0.2145  0.3954
 2522COC    COC 2522   0.869   3.488   5.341  0.1401 -0.0126  0.2939
 2523COC    COC 2523   0.632   3.543   5.136 -0.1095 -0.1289 -0.0301
 2524COC    COC 2524   0.616   3.482   4.833  0.1563  0.1950  0.0014
 2525COC    COC 2525   0.705   3.507   4.517  0.2087 -0.2718  0.0957
 2526COC    COC 2526   0.755   3.296   4.306 -0.0863  0.2768  0.1535
 2527COC    COC 2527   0.569   3.251   4.028  0.2802 -0.2533  0.1739
 2528COC    COC 2528   0.624   3.044   3.825 -0.0837  0.0725  0.3445
 2529COC    COC 2529   0.877   2.859   3.807 -0.1763  0.3672 -0.1773
 2530COH    COH 2530   0.782   2.644   3.966  0.2018  0.1095  0.0985
 2531COH    COH 2531   2.946   4.669   2.265  0.2429 -0.2503 -0.3295
 2532COC    COC 2532   3.008   4.932   2.328  0.0147 -0.0684 -0.0048
 2533COC    COC 2533   3.234   4.970   2.507 -0.4964  0.5081  0.0193
 2534COC    COC 2534   3.096   5.095   2.764  0.0627  0.2881  0.2190
 2535COC    COC 2535   3.092   5.401   2.729 -0.6298 -0.1047  0.0457
 2536COC    COC 2536   2.826   5.518   2.647 -0.2408 -0.4620 -0.0387
 2537COC    COC 2537   2.837   5.645   2.408  0.1352  0.2396  0.0258
 2538COC    COC 2538   2.593   5.835   2.404 -0.0224  0.3046  0.4870
 2539COC    COC 2539   2.517   6.052   2.590 -0.0877 -0.0561  0.3717
 2540COC    COC 2540   2.672   6.011   2.857 -0.0605  0.1592 -0.1627
 2541COC    COC 2541   2.736   6.241   3.021 -0.0279  0.5399 -0.2783
 2542COC    COC 2542   2.977   6.394   3.042  0.0207  0.3178 -0.0401
 2543COC    COC 2543   2.919   6.686   3.094 -0.1280  0.0807 -0.0339
 2544COC    COC 2544   2.839   6.860   2.868  0.1995  0.1009 -0.1515
 2545COC    COC 2545   2.724   7.137   2.951 -0.4119  0.0249  0.1191
 2546COC    COC 2546   2.821   7.335   3.183 -0.0492  0.0837 -0.2802
 2547COC    COC 2547   3.032   7.546   3.099  0.0536 -0.0936  0.0825
 2548COC    COC 2548   3.228   7.355   2.945 -0.0746  0.1063 -0.0299
 2549COC    COC 2549   3.273   7.322   2.634  0.1082  0.1341 -0.1378
 2550COC    COC 2550   3.584   7.280   2.632  0.2308  0.1249 -0.0338
 2551COC    COC 2551   3.823   7.457   2.727  0.1655 -0.6229 -0.3142
 2552COC    COC 2552   3.886   7.451   3.023  0.2119  0.4654  0.2773
 2553COC    COC 2553   4.153   7.611   3.027 -0.0041  0.0330  0.4453
 2554COC    COC 2554   4.301   7.427   3.205  0.2093  0.2382 -0.3628
 2555COC    COC 2555   4.256   7.177   3.062 -0.1637 -0.0480 -0.3619
 2556COC    COC 2556   4.312   7.243   2.794  0.2720  0.4444  0.2023
 2557COC    COC 2557   4.249   7.492   2.609  0.0887  0.3860  0.0634
 2558COC    COC 2558   4.234   7.476   2.308  0.0395  0.0078  0.2033
 2559COC    COC 2559   4.325   7.244   2.147 -0.0565  0.0978 -0.3993
 2560COC    COC 2560   4.572   7.011   2.241  0.2365 -0.1640  0.1683
 2561COC    COC 2561   4.732   6.852   2.465 -0.1552 -0.2866 -0.4648
 2562COC    COC 2562   4.788   6.926   2.763  0.0169  0.3357  0.2378
 2563COC    COC 2563   4.697   6.900   3.064  0.0846 -0.0829 -0.3363
 2564COC    COC 2564   4.781   7.067   3.301  0.0922 -0.4658 -0.0504
 2565COC    COC 2565   4.847   6.985   3.576  0.2294 -0.2655  0.0121
 2566COC    COC 2566   5.079   7.216   3.597 -0.0999 -0.1082  0.0766
 2567COC    COC 2567   5.195   7.434   3.420 -0.0608 -0.6096  0.0114
 2568COC    COC 2568   5.143   7.715   3.460  0.1816 -0.0493  0.2006
 2569COC    COC 2569   5.273   7.961   3.548  0.0816 -0.1785  0.0995
 2570COC    COC 2570   5.581   7.883   3.643  0.0458  0.0610 -0.2406
 2571COC    COC 2571   5.788   7.836   3.842 -0.5242 -0.0314 -0.1102
 2572COC    COC 2572   5.714   7.662   4.082 -0.1771 -0.1988 -0.0304
 2573COC    COC 2573   5.445   7.750   4.219  0.2343  0.2192 -0.5119
 2574COC    COC 2574   5.493   7.494   4.364 -0.0076  0.0625  0.0463
 2575COC    COC 2575   5.539   7.277   4.138  0.3231 -0.2826  0.0042
 2576COH    COH 2576   5.480   7.205   3.893  0.0101  0.3562 -0.1865
 2577COH    COH 2577   3.299   1.326   7.912  0.7061  0.0029 -0.1860
 2578COC    COC 2578   3.344   1.590   7.928 -0.0713 -0.1635 -0.1104
 2579COC    COC 2579   3.467   1.656   8.228 -0.1903 -0.0637 -0.0430
 2580COC    COC 2580   3.226   1.625   8.351  0.2064  0.1665  0.3707
 2581COC    COC 2581   3.111   1.579   8.632  0.1425 -0.1398 -0.4892
 2582COC    COC 2582   2.927   1.377   8.581  0.5209  0.0884 -0.0911
 2583COC    COC 2583   2.955   1.103   8.478 -0.3022 -0.0456  0.0953
 2584COC    COC 2584   3.095   0.856   8.544  0.1935 -0.0430  0.1761
 2585COC    COC 2585   3.174   0.754   8.823  0.1243 -0.0049 -0.2331
 2586COC    COC 2586   3.105   0.683   9.106 -0.2325 -0.0462 -0.2746
 2587COC    COC 2587   3.074   0.908   9.328 -0.0331  0.0445 -0.1448
 2588COC    COC 2588   2.877   0.862   9.624  0.0841  0.0698  0.0704
 2589COC    COC 2589   2.570   0.824   9.534 -0.2332 -0.2271  0.2329
 2590COC    COC 2590   2.677   0.687   9.279  0.3216 -0.1317 -0.0717
 2591COC    COC 2591   2.397   0.669   9.114 -0.2339  0.4046 -0.3101
 2592COC    COC 2592   2.212   0.851   8.923  0.1122 -0.0992 -0.3864
 2593COC    COC 2593   1.931   0.793   9.019 -0.2475 -0.1499 -0.0478
 2594COC    COC 2594   1.864   1.038   9.227  0.1776 -0.1423  0.1626
 2595COC    COC 2595   2.160   0.989   9.366  0.0525  0.4106 -0.0301
 2596COC    COC 2596   2.223   0.960   9.642 -0.0864  0.1869 -0.0825
 2597COC    COC 2597   2.254   0.783   9.904 -0.4764  0.2181  0.2666
 2598COC    COC 2598   2.548   0.615   9.906 -0.0170  0.3714  0.1980
 2599COC    COC 2599   2.658   0.606  10.188  0.1933 -0.0117 -0.3612
 2600COC    COC 2600   2.404   0.595   0.018 -0.0656  0.1393 -0.0450
 2601COC    COC 2601   2.367   0.617   0.310 -0.1016  0.1834 -0.2049
 2602COC    COC 2602   2.148   0.443   0.392 -0.2695  0.2198 -0.0220
 2603COC    COC 2603   1.902   0.244   0.433 -0.2149 -0.2282  0.0602
 2604COC    COC 2604   1.852  10.307   0.530  0.0015  0.1926  0.1669
 2605COC    COC 2605   1.743   0.043   0.772 -0.1649 -0.2523  0.1141
 2606COC    COC 2606   1.903   0.217   0.971  0.0929 -0.4578 -0.1469
 2607COC    COC 2607   2.121   0.341   0.857  0.1524 -0.1287 -0.1537
 2608COC    COC 2608   2.238   0.599   0.811  0.0493 -0.1485 -0.0828
 2609COC    COC 2609   2.250   0.906   0.908 -0.1817 -0.1917  0.2815
 2610COC    COC 2610   1.945   0.959   1.016  0.0403  0.1525  0.0589
 2611COC    COC 2611   1.667   1.080   0.891 -0.3478 -0.0904  0.2153
 2612COC    COC 2612   1.667   1.080   0.619 -0.0124 -0.0814  0.0750
 2613COC    COC 2613   1.665   1.355   0.460 -0.0277 -0.3028  0.3140
 2614COC    COC 2614   1.471   1.510   0.339 -0.0963  0.0962  0.2006
 2615COC    COC 2615   1.509   1.637   0.069  0.5462  0.1280 -0.1560
 2616COC    COC 2616   1.736   1.661  10.223 -0.2277 -0.0169 -0.0261
 2617COC    COC 2617   1.990   1.808  10.199 -0.0857  0.0760 -0.2548
 2618COC    COC 2618   2.132   2.030  10.040  0.1940 -0.3984  0.3333
 2619COC    COC 2619   1.972   2.262   9.865 -0.1735  0.4656  0.4971
 2620COC    COC 2620   2.156   2.489   9.845 -0.2092  0.1936  0.4877
 2621COC    COC 2621   2.142   2.701   9.565 -0.3080 -0.0760 -0.8529
 2622COH    COH 2622   2.247   2.922   9.691 -0.4871  0.3349 -0.1316
 2623COH    COH 2623   4.788   8.669   4.514 -0.0272  0.0537 -0.4034
 2624COC    COC 2624   4.812   8.911   4.485  0.0314  0.0391  0.1856
 2625COC    COC 2625   4.707   9.133   4.693  0.0738  0.4677 -0.0905
 2626COC    COC 2626   4.679   9.117   5.002 -0.1314 -0.7126  0.2514
 2627COC    COC 2627   4.741   9.372   5.202 -0.0477 -0.0482  0.0438
 2628COC    COC 2628   4.470   9.496   5.315 -0.0373 -0.1707  0.1806
 2629COC    COC 2629   4.231   9.420   5.114  0.1228  0.1232  0.2388
 2630COC    COC 2630   4.132   9.205   4.900  0.2270  0.0529 -0.0206
 2631COC    COC 2631   3.856   9.304   4.804 -0.2167  0.3230  0.0806
 2632COC    COC 2632   3.717   9.507   4.660  0.1214  0.2247  0.1760
 2633COC    COC 2633   3.537   9.707   4.812  0.2023  0.3562 -0.1893
 2634COC    COC 2634   3.647   9.685   5.109  0.3534  0.3828 -0.0108
 2635COC    COC 2635   3.663   9.831   5.386 -0.2134 -0.1783 -0.1954
 2636COC    COC 2636   3.671   9.763   5.717 -0.2924 -0.2594  0.2330
 2637COC    COC 2637   3.546   9.675   5.965 -0.0378  0.2919 -0.4104
 2638COC    COC 2638   3.737   9.745   6.223 -0.0045  0.2078  0.2536
 2639COC    COC 2639   4.012   9.833   6.127  0.0898 -0.0808 -0.0221
 2640COC    COC 2640   4.071   9.809   5.820 -0.0679 -0.0971  0.3163
 2641COC    COC 2641   4.274   9.666   5.669 -0.3269  0.2541 -0.2094
 2642COC    COC 2642   4.527   9.819   5.607 -0.0809 -0.0013 -0.1839
 2643COC    COC 2643   4.628   9.939   5.324 -0.3879  0.0894 -0.3013
 2644COC    COC 2644   4.415   9.905   5.056 -0.3117  0.1599  0.1860
 2645COC    COC 2645   4.669   9.790   4.879 -0.2319 -0.1270  0.0594
 2646COC    COC 2646   4.595   9.874   4.578 -0.2533 -0.0711  0.0416
 2647COC    COC 2647   4.876   9.967   4.557 -0.1029 -0.2944  0.0388
 2648COC    COC 2648   4.928  10.179   4.791 -0.7710  0.1991 -0.1931
 2649COC    COC 2649   4.817  10.182   5.026 -0.1781 -0.1783 -0.3528
 2650COC    COC 2650   4.997  10.281   5.241 -0.2525 -0.3146 -0.1676
 2651COC    COC 2651   4.922  10.257   5.527 -0.3334 -0.2588 -0.2149
 2652COC    COC 2652   4.887  10.025   5.675 -0.2634  0.1353 -0.5272
 2653COC    COC 2653   5.040   9.807   5.537  0.1288 -0.2370 -0.1316
 2654COC    COC 2654   5.347   9.961   5.496  0.1032  0.0410 -0.2157
 2655COC    COC 2655   5.452  10.045   5.768  0.2246  0.1899 -0.0782
 2656COC    COC 2656   5.555  10.258   5.968 -0.0030 -0.0562  0.1280
 2657COC    COC 2657   5.595   0.222   5.979  0.4800  0.3579 -0.2585
 2658COC    COC 2658   5.566   0.316   6.245 -0.4644 -0.1830 -0.3721
 2659COC    COC 2659   5.441   0.141   6.424 -0.2246  0.1007 -0.2505
 2660COC    COC 2660   5.284  10.238   6.350 -0.3849 -0.0091 -0.3329
 2661COC    COC 2661   5.113  10.169   6.612  0.0628 -0.0128 -0.1244
 2662COC    COC 2662   4.856  10.018   6.634  0.5109 -0.0481  0.1493
 2663COC    COC 2663   4.668  10.240   6.616 -0.1217  0.1130 -0.0615
 2664COC    COC 2664   4.691   0.115   6.449  0.0479 -0.3010  0.0600
 2665COC    COC 2665   4.967   0.203   6.423  0.6040 -0.0122  0.2281
 2666COC    COC 2666   5.034   0.511   6.477  0.1512 -0.3905  0.2520
 2667COC    COC 2667   4.926   0.734   6.627  0.1279  0.2301 -0.2034
 2668COH    COH 2668   4.981   0.907   6.463  0.0400  0.1933  0.1070
 2669COH    COH 2669   6.802   1.481   3.972 -0.0142  0.1786 -0.6044
 2670COC    COC 2670   6.818   1.362   4.195  0.1731  0.1694 -0.3639
 2671COC    COC 2671   7.049   1.368   4.397 -0.3739 -0.1521  0.2539
 2672COC    COC 2672   7.053   1.603   4.623  0.3458 -0.2238  0.1652
 2673COC    COC 2673   7.292   1.633   4.794  0.1079  0.0337  0.0885
 2674COC    COC 2674   7.358   1.587   5.074  0.0446 -0.1764  0.2086
 2675COC    COC 2675   7.197   1.810   5.186 -0.1861 -0.0493 -0.0724
 2676COC    COC 2676   7.234   2.093   5.241 -0.0432 -0.1379 -0.1874
 2677COC    COC 2677   7.105   2.390   5.207  0.4006  0.1318  0.1469
 2678COC    COC 2678   7.034   2.497   4.910 -0.0495 -0.2941  0.0405
 2679COC    COC 2679   7.261   2.469   4.750  0.1133 -0.4548  0.0862
 2680COC    COC 2680   7.340   2.672   4.530 -0.1538  0.0975  0.1326
 2681COC    COC 2681   7.339   2.545   4.263 -0.2548 -0.0701 -0.4224
 2682COC    COC 2682   7.177   2.695   4.125  0.0455 -0.0887  0.3770
 2683COC    COC 2683   6.870   2.617   4.116 -0.0285 -0.2886  0.3095
 2684COC    COC 2684   6.790   2.815   4.363 -0.0575  0.1892  0.3947
 2685COC    COC 2685   6.912   3.081   4.331  0.4089 -0.2567 -0.0569
 2686COC    COC 2686   7.210   3.109   4.365  0.0858 -0.4516 -0.1082
 2687COC    COC 2687   7.364   3.370   4.347 -0.1077 -0.1078  0.1011
 2688COC    COC 2688   7.672   3.347   4.361 -0.2743  0.2370  0.2169
 2689COC    COC 2689   7.791   3.534   4.539 -0.1499  0.1962  0.3454
 2690COC    COC 2690   8.066   3.598   4.530  0.1989  0.0025 -0.2838
 2691COC    COC 2691   8.376   3.632   4.569  0.1377  0.0948  0.0963
 2692COC    COC 2692   8.623   3.528   4.450  0.2137  0.2117  0.0033
 2693COC    COC 2693   8.536   3.367   4.186 -0.0482  0.0913 -0.3803
 2694COC    COC 2694   8.713   3.134   4.130 -0.2778 -0.2330  0.3019
 2695COC    COC 2695   8.704   2.877   4.038  0.0044  0.0804  0.1288
 2696COC    COC 2696   8.412   2.827   4.001  0.1807  0.0537  0.0054
 2697COC    COC 2697   8.349   2.609   3.795 -0.3401  0.1184  0.1369
 2698COC    COC 2698   8.057   2.547   3.772 -0.0950  0.0962  0.0401
 2699COC    COC 2699   7.927   2.596   4.026  0.4191  0.0402  0.1542
 2700COC    COC 2700   8.015   2.689   4.299  0.1185  0.1919 -0.3670
 2701COC    COC 2701   7.804   2.743   4.528 -0.1835 -0.1769 -0.0147
 2702COC    COC 2702   7.834   2.764   4.835 -0.1858 -0.2132  0.0790
 2703COC    COC 2703   7.985   2.955   4.988  0.1101  0.1146  0.2477
 2704COC    COC 2704   7.887   3.026   5.263  0.0784  0.1625 -0.2264
 2705COC    COC 2705   7.665   3.205   5.357  0.2895 -0.0745 -0.0541
 2706COC    COC 2706   7.650   3.323   5.598 -0.2687  0.1244  0.6101
 2707COC    COC 2707   7.491   3.322   5.848 -0.0951  0.2005 -0.4985
 2708COC    COC 2708   7.279   3.403   6.121 -0.3988  0.3706 -0.2301
 2709COC    COC 2709   7.508   3.461   6.314 -0.1890  0.0642 -0.1572
 2710COC    COC 2710   7.643   3.204   6.536 -0.1929  0.0015  0.2793
 2711COC    COC 2711   7.863   2.993   6.415  0.0244 -0.3938 -0.0988
 2712COC    COC 2712   7.761   3.007   6.108 -0.3413 -0.1525  0.0784
 2713COC    COC 2713   7.533   2.827   6.100 -0.0294  0.0361  0.0085
 2714COH    COH 2714   7.471   2.669   5.881  0.0685  0.0887 -0.0777
 2715COH    COH 2715   4.987   2.319   2.472 -0.2874  0.3501  0.1187
 2716COC    COC 2716   5.119   2.465   2.624 -0.2201 -0.1044 -0.1734
 2717COC    COC 2717   5.231   2.675   2.505 -0.0959  0.3242  0.1780
 2718COC    COC 2718   5.059   2.766   2.271 -0.2165  0.3014 -0.1873
 2719COC    COC 2719   5.139   3.002   2.107  0.2177 -0.1152 -0.0590
 2720COC    COC 2720   5.319   3.212   2.186 -0.2879  0.0692  0.2662
 2721COC    COC 2721   5.428   3.038   2.401  0.1964 -0.0319 -0.2662
 2722COC    COC 2722   5.382   3.196   2.658 -0.3142  0.2215 -0.0605
 2723COC    COC 2723   5.261   3.178   2.954 -0.3115 -0.1301  0.1767
 2724COC    COC 2724   5.320   3.454   3.111 -0.0944  0.1987 -0.1602
 2725COC    COC 2725   5.229   3.717   2.954  0.2025 -0.0817 -0.2194
 2726COC    COC 2726   4.998   3.867   3.087 -0.2721  0.1785  0.1457
 2727COC    COC 2727   4.789   4.037   2.980  0.1457  0.0436  0.4172
 2728COC    COC 2728   4.641   4.273   3.037 -0.0032  0.1390  0.0881
 2729COC    COC 2729   4.373   4.351   2.870  0.0851 -0.3360 -0.0896
 2730COC    COC 2730   4.241   4.077   2.909  0.0669  0.3892  0.2050
 2731COC    COC 2731   4.414   3.880   2.802  0.4493  0.0060 -0.3649
 2732COC    COC 2732   4.424   3.670   3.028  0.0989  0.4942  0.1377
 2733COC    COC 2733   4.627   3.550   3.236 -0.0974 -0.0183  0.4266
 2734COC    COC 2734   4.570   3.325   3.389  0.1189 -0.0116  0.1699
 2735COC    COC 2735   4.491   3.042   3.282 -0.4860 -0.0236 -0.1961
 2736COC    COC 2736   4.329   2.898   3.471 -0.5951 -0.0810  0.1704
 2737COC    COC 2737   4.397   2.762   3.744 -0.2492  0.0063  0.2227
 2738COC    COC 2738   4.389   2.905   4.008  0.1652  0.2105 -0.0046
 2739COC    COC 2739   4.569   2.772   4.207  0.0786  0.0749 -0.1095
 2740COC    COC 2740   4.651   2.835   4.490 -0.2482  0.1310 -0.1697
 2741COC    COC 2741   4.934   2.832   4.492 -0.0975 -0.1150  0.1347
 2742COC    COC 2742   5.133   2.881   4.662  0.0195 -0.0720 -0.3718
 2743COC    COC 2743   5.233   3.176   4.716  0.3090  0.5504  0.0051
 2744COC    COC 2744   5.175   3.323   4.941 -0.3308  0.1066 -0.1779
 2745COC    COC 2745   5.231   3.604   5.070 -0.0126  0.1186 -0.0482
 2746COC    COC 2746   5.177   3.738   5.318  0.1599 -0.4484 -0.1204
 2747COC    COC 2747   5.300   3.935   5.555 -0.0297 -0.1954 -0.0058
 2748COC    COC 2748   5.097   4.201   5.538  0.1042  0.0432 -0.0151
 2749COC    COC 2749   5.320   4.414   5.462  0.0465  0.2227 -0.0778
 2750COC    COC 2750   5.601   4.399   5.309  0.0904  0.1283 -0.0532
 2751COC    COC 2751   5.723   4.132   5.191  0.2051 -0.1749  0.1314
 2752COC    COC 2752   5.644   3.866   5.176  0.2601 -0.0748 -0.0733
 2753COC    COC 2753   5.642   3.595   5.332  0.3662 -0.1651 -0.0146
 2754COC    COC 2754   5.517   3.323   5.283 -0.3466  0.0332  0.2752
 2755COC    COC 2755   5.433   3.055   5.417 -0.0532  0.2186 -0.0650
 2756COC    COC 2756   5.454   2.910   5.723 -0.2124 -0.4768 -0.0157
 2757COC    COC 2757   5.705   2.754   5.695  0.1293  0.2350  0.0437
 2758COC    COC 2758   6.023   2.849   5.676  0.2937 -0.3342 -0.0656
 2759COC    COC 2759   6.225   2.731   5.889  0.0581  0.2978 -0.2853
 2760COH    COH 2760   6.212   2.459   5.852 -0.5220 -0.5535 -0.2533
 2761NCO    NCO 2761   3.244   8.729   8.527 -0.1708 -0.1242 -0.2198
 2762CC1    CC1 2762   3.365   8.548   8.748 -0.0348 -0.1649 -0.1808
 2763CC1    CC1 2763   3.429   8.362   8.630 -0.2527 -0.0372 -0.0939
 2764NCC    NCC 2764   3.571   8.126   8.637 -0.1705  0.0666  0.2347
 2765CONH  CONH 2765   3.540   7.792   8.709  0.0101  0.3078 -0.0933
 2766CC1    CC1 2766   3.686   7.631   8.625 -0.2140 -0.3956  0.5612
 2767CC1    CC1 2767   3.897   7.689   8.605  0.1094  0.2462  0.1948
 2768CC1    CC1 2768   4.111   7.793   8.563  0.4695  0.0045 -0.2341
 2769NCO    NCO 2769   4.193   7.846   8.321  0.2514  0.2198 -0.4673
 2770CONH  CONH 2770   3.808   8.076   8.452  0.0969  0.0910  0.2672
 2771CC1    CC1 2771   3.825   7.869   8.298 -0.0995  0.1659  0.1268
 2772CC1    CC1 2772   3.811   7.841   8.057 -0.0432  0.0232  0.2532
 2773CC1    CC1 2773   3.783   7.845   7.787  0.3382 -0.3605  0.1932
 2774NCO    NCO 2774   3.640   8.071   7.661 -0.0675  0.3185  0.3136
 2775NCO    NCO 2775   4.791   6.772  10.013  0.3190  0.1490  0.2413
 2776CC1    CC1 2776   4.899   6.949  10.206 -0.4641 -0.4637 -0.6809
 2777CC1    CC1 2777   5.111   6.845  10.285  0.2053  0.1479 -0.5490
 2778NCC    NCC 2778   5.296   6.857   0.140 -0.1852  0.3389 -0.0266
 2779CONH  CONH 2779   5.272   6.796   0.448  0.1282 -0.1113  0.1870
 2780CC1    CC1 2780   5.010   6.746   0.537  0.2486 -0.0497 -0.6560
 2781CC1    CC1 2781   4.902   6.855   0.715 -0.2070 -0.4319 -0.2860
 2782CC1    CC1 2782   4.735   6.997   0.838  0.5429 -0.0268  0.1438
 2783NCO    NCO 2783   4.745   7.262   0.767 -0.0519 -0.2129 -0.2731
 2784CONH  CONH 2784   5.459   7.116   0.203  0.2399  0.2095  0.0167
 2785CC1    CC1 2785   5.756   7.095   0.226  0.3550 -0.1590 -0.2577
 2786CC1    CC1 2786   5.872   6.903   0.366  0.1147  0.3373 -0.3633
 2787CC1    CC1 2787   6.056   6.771   0.521  0.4625  0.6493 -0.3750
 2788NCO    NCO 2788   6.376   6.802   0.521  0.0577  0.0136 -0.1775
 2789NCO    NCO 2789   8.474   4.519   1.388  0.2294  0.1367  0.2469
 2790CC1    CC1 2790   8.718   4.716   1.454 -0.3902 -0.1252  0.4359
 2791CC1    CC1 2791   8.788   4.726   1.657  0.2162  0.1691 -0.5155
 2792NCC    NCC 2792   8.909   4.628   1.844  0.2252  0.0151 -0.3749
 2793CONH  CONH 2793   9.142   4.718   2.032  0.3685  0.0504  0.3179
 2794CC1    CC1 2794   9.119   4.663   2.288 -0.1557  0.5366  0.1930
 2795CC1    CC1 2795   9.292   4.521   2.468 -0.3428 -0.4962  0.3032
 2796CC1    CC1 2796   9.361   4.486   2.651 -0.2946  0.0538 -0.0021
 2797NCO    NCO 2797   9.527   4.262   2.702 -0.0724  0.1352 -0.0274
 2798CONH  CONH 2798   8.911   4.364   1.976 -0.0361  0.1503 -0.0480
 2799CC1    CC1 2799   8.951   4.325   2.244  0.0306 -0.1117 -0.4857
 2800CC1    CC1 2800   9.147   4.237   2.334  0.5068 -0.0101  0.2526
 2801CC1    CC1 2801   9.366   4.184   2.364  0.7183 -0.1111 -0.0338
 2802NCO    NCO 2802   9.332   3.887   2.260 -0.2950 -0.1646  0.0706
 2803NCO    NCO 2803   0.784  10.037  10.342 -0.2870 -0.2762 -0.1392
 2804CC1    CC1 2804   0.810   9.780  10.268  0.3724 -0.2496  0.0211
 2805CC1    CC1 2805   0.619   9.613   0.006  0.2004  0.0153 -0.0067
 2806NCC    NCC 2806   0.321   9.520   0.075 -0.1903 -0.0571 -0.0844
 2807CONH  CONH 2807   0.029   9.641   0.179  0.0738 -0.0647  0.3070
 2808CC1    CC1 2808  10.265   9.523   0.420 -0.6916 -0.3693 -0.3894
 2809CC1    CC1 2809  10.064   9.421   0.349 -0.0727 -0.0793 -0.1949
 2810CC1    CC1 2810   9.834   9.303   0.263  0.5347 -0.3242 -0.0265
 2811NCO    NCO 2811   9.614   9.175   0.410  0.2397  0.0793  0.0094
 2812CONH  CONH 2812   0.162   9.229   0.164 -0.2269 -0.0325 -0.2981
 2813CC1    CC1 2813  10.217   9.207   0.136  0.1458 -0.1129  0.2159
 2814CC1    CC1 2814  10.103   9.081   0.273 -0.4161  0.3976 -0.1316
 2815CC1    CC1 2815  10.042   9.011   0.507  0.1045  0.0482 -0.4938
 2816NCO    NCO 2816  10.103   8.715   0.600  0.0514 -0.1656  0.0809
 2817NCO    NCO 2817   9.211   4.385   1.319  0.0679  0.4708 -0.1078
 2818CC1    CC1 2818   9.186   4.418   1.628  0.5276 -0.2903  0.1948
 2819CC1    CC1 2819   9.365   4.527   1.718  0.3315  0.0299  0.5093
 2820NCC    NCC 2820   9.608   4.565   1.869 -0.2561 -0.2480  0.3535
 2821CONH  CONH 2821   9.720   4.843   1.972  0.0572 -0.1473  0.1269
 2822CC1    CC1 2822   9.620   4.966   2.181 -0.4876 -0.3286 -0.2068
 2823CC1    CC1 2823   9.462   5.139   2.152  0.0097 -0.0239 -0.7017
 2824CC1    CC1 2824   9.316   5.309   2.277 -0.3273  0.4392  0.3790
 2825NCO    NCO 2825   9.433   5.328   2.579 -0.1023 -0.0651 -0.0456
 2826CONH  CONH 2826   9.759   4.462   2.123 -0.1453 -0.1716 -0.4595
 2827CC1    CC1 2827   9.680   4.487   2.344 -0.2803 -0.0390  0.5231
 2828CC1    CC1 2828   9.686   4.626   2.520 -0.0463 -0.1254  0.2610
 2829CC1    CC1 2829   9.707   4.771   2.735 -0.2156 -0.1867 -0.3113
 2830NCO    NCO 2830  10.003   4.933   2.867 -0.5445  0.0538 -0.2388
 2831NCO    NCO 2831   6.423   0.089   8.921 -0.0422  0.2087  0.2556
 2832CC1    CC1 2832   6.272  10.281   8.695 -0.4572 -0.1394 -0.1050
 2833CC1    CC1 2833   6.099  10.278   8.736  0.0929  0.7463 -0.1163
 2834NCC    NCC 2834   5.876  10.251   8.899  0.1536  0.0273 -0.1987
 2835CONH  CONH 2835   5.579  10.236   8.777 -0.2808  0.3004  0.0383
 2836CC1    CC1 2836   5.383   0.076   8.818  0.2798 -0.2540  0.4987
 2837CC1    CC1 2837   5.385   0.211   8.651  0.5288  0.2389  0.1449
 2838CC1    CC1 2838   5.286   0.385   8.532  0.3938 -0.5798  0.0543
 2839NCO    NCO 2839   5.014   0.509   8.587 -0.1867  0.6412  0.0953
 2840CONH  CONH 2840   5.739   0.073   9.112  0.1514 -0.1722 -0.0797
 2841CC1    CC1 2841   5.843   0.153   9.374 -0.1679 -0.1200  0.3131
 2842CC1    CC1 2842   5.646   0.261   9.504 -0.0419  0.3652 -0.2919
 2843CC1    CC1 2843   5.544   0.416   9.649  0.5479 -0.3400 -0.6274
 2844NCO    NCO 2844   5.445   0.673   9.528 -0.3306  0.1386 -0.1373
 2845NCO    NCO 2845   3.016   3.008   7.357  0.0498  0.0471 -0.0445
 2846CC1    CC1 2846   3.152   2.809   7.527 -0.1065  0.1126  0.4744
 2847CC1    CC1 2847   3.080   2.645   7.655 -0.0204 -0.4215 -0.0294
 2848NCC    NCC 2848   2.990   2.393   7.681 -0.5099  0.0899 -0.5323
 2849CONH  CONH 2849   2.707   2.208   7.654 -0.1804  0.1871  0.4019
 2850CC1    CC1 2850   2.619   2.100   7.396  0.1212  0.2664 -0.2830
 2851CC1    CC1 2851   2.471   1.946   7.379 -0.3061  0.3968 -0.0220
 2852CC1    CC1 2852   2.397   1.714   7.344  0.0616 -0.0848 -0.2822
 2853NCO    NCO 2853   2.169   1.742   7.184 -0.2904  0.1664  0.1776
 2854CONH  CONH 2854   3.147   2.117   7.600  0.0955 -0.6174  0.6246
 2855CC1    CC1 2855   3.390   2.044   7.754  0.2257  0.2141  0.0646
 2856CC1    CC1 2856   3.433   2.037   8.033  0.1189  0.2530 -0.3179
 2857CC1    CC1 2857   3.440   2.123   8.265 -0.3939  0.1660  0.2856
 2858NCO    NCO 2858   3.683   2.302   8.352 -0.0798  0.0161  0.0944
 2859NCO    NCO 2859   3.483   3.289   7.545  0.0291  0.2540 -0.0004
 2860CC1    CC1 2860   3.420   3.005   7.645 -0.0468  0.3027 -0.1562
 2861CC1    CC1 2861   3.574   2.904   7.771  0.0101 -0.9183 -0.0615
 2862NCC    NCC 2862   3.804   2.713   7.815 -0.1161 -0.0420  0.2365
 2863CONH  CONH 2863   4.141   2.671   7.851 -0.3454 -0.1293 -0.4957
 2864CC1    CC1 2864   4.359   2.859   7.738 -0.3763 -0.1298  0.1130
 2865CC1    CC1 2865   4.524   2.944   7.861 -0.0694 -0.0073 -0.5056
 2866CC1    CC1 2866   4.664   3.019   8.016 -0.0145 -0.3204 -0.4275
 2867NCO    NCO 2867   4.886   3.174   7.912  0.1428  0.0560 -0.2010
 2868CONH  CONH 2868   3.815   2.372   7.916 -0.2775 -0.2448  0.1428
 2869CC1    CC1 2869   3.688   2.188   7.723 -0.1174  0.3143 -0.3329
 2870CC1    CC1 2870   3.811   2.048   7.566 -0.0827 -0.0023  0.1192
 2871CC1    CC1 2871   3.812   1.950   7.360 -0.1247  0.2585  0.2258
 2872NCO    NCO 2872   3.922   1.952   7.088  0.5288  0.0994  0.0364
 2873NCO    NCO 2873   8.137   9.999   1.320 -0.1295 -0.1599  0.2859
 2874CC1    CC1 2874   8.309  10.102   1.562  0.4800 -0.4885 -0.0544
 2875CC1    CC1 2875   8.518  10.049   1.601  0.1502  0.0328 -0.4227
 2876NCC    NCC 2876   8.678   9.849   1.737 -0.0583  0.0426  0.2476
 2877CONH  CONH 2877   8.737   9.516   1.670 -0.3675  0.4742  0.0490
 2878CC1    CC1 2878   8.850   9.422   1.468 -0.6343 -0.1664 -0.1055
 2879CC1    CC1 2879   9.053   9.378   1.487  0.2923 -0.1835  0.0804
 2880CC1    CC1 2880   9.280   9.401   1.390  0.0977  0.1138 -0.5082
 2881NCO    NCO 2881   9.295   9.272   1.094 -0.2325 -0.0886 -0.4550
 2882CONH  CONH 2882   8.705   9.766   2.027  0.0690  0.0343  0.1677
 2883CC1    CC1 2883   8.496   9.676   2.168  0.3663  0.5528  0.1818
 2884CC1    CC1 2884   8.265   9.667   2.061  0.1011 -0.6664 -0.0775
 2885CC1    CC1 2885   8.017   9.586   2.027  0.0432 -0.0271  0.4391
 2886NCO    NCO 2886   7.846   9.510   2.228  0.1076 -0.0225  0.0577
 2887NCO    NCO 2887   2.624   6.069   9.734 -0.2547  0.2937  0.2930
 2888CC1    CC1 2888   2.498   6.216   9.933 -0.0200  0.2297 -0.4634
 2889CC1    CC1 2889   2.458   6.392   9.809  0.1623  0.0074 -0.0619
 2890NCC    NCC 2890   2.457   6.642   9.737 -0.1220 -0.2437  0.1115
 2891CONH  CONH 2891   2.711   6.850   9.696 -0.1427  0.3560  0.2178
 2892CC1    CC1 2892   2.651   7.074   9.697 -0.2394  0.7548  0.1820
 2893CC1    CC1 2893   2.666   7.230   9.530 -0.1609  0.0539  0.2071
 2894CC1    CC1 2894   2.572   7.413   9.386  0.4468 -0.1922 -0.1751
 2895NCO    NCO 2895   2.482   7.469   9.138 -0.0417 -0.0614 -0.1707
 2896CONH  CONH 2896   2.274   6.810   9.542  0.2288 -0.0745 -0.1509
 2897CC1    CC1 2897   2.336   7.058   9.462 -0.0928  0.2535  0.7751
 2898CC1    CC1 2898   2.239   7.168   9.304  0.4177  0.1900 -0.0289
 2899CC1    CC1 2899   2.038   7.226   9.131  0.4980 -0.0577  0.1176
 2900NCO    NCO 2900   1.817   7.052   9.244  0.4015  0.2641  0.1713
 2901NCO    NCO 2901   8.434   8.650   6.470  0.1172  0.2069  0.0575
 2902CC1    CC1 2902   8.338   8.733   6.706  0.1494  0.5729 -0.1880
 2903CC1    CC1 2903   8.299   8.531   6.828 -0.5795 -0.1605 -0.1407
 2904NCC    NCC 2904   8.342   8.388   7.028  0.1541  0.2419 -0.3328
 2905CONH  CONH 2905   8.160   8.150   7.216 -0.0098 -0.1043  0.0929
 2906CC1    CC1 2906   8.207   7.869   7.191 -0.1711 -0.1239  0.3152
 2907CC1    CC1 2907   8.385   7.795   7.084 -0.0371 -0.4388 -0.0653
 2908CC1    CC1 2908   8.574   7.633   7.069  0.5360 -0.2016 -0.3911
 2909NCO    NCO 2909   8.825   7.679   7.213 -0.4320 -0.0900 -0.3112
 2910CONH  CONH 2910   8.455   8.484   7.342  0.0786  0.2485 -0.2660
 2911CC1    CC1 2911   8.596   8.305   7.476  0.3639 -0.3057 -0.1196
 2912CC1    CC1 2912   8.462   8.206   7.637  0.1081  0.2790  0.3983
 2913CC1    CC1 2913   8.443   8.125   7.856 -0.2358 -0.1730  0.1603
 2914NCO    NCO 2914   8.603   8.202   8.022 -0.0823  0.2316 -0.2955
 2915NCO    NCO 2915   3.874   2.482   8.804  0.4982 -0.0292 -0.2160
 2916CC1    CC1 2916   3.995   2.322   8.683 -0.0320  0.7090 -0.3452
 2917CC1    CC1 2917   3.890   2.110   8.646 -0.1737 -0.2502  0.3106
 2918NCC    NCC 2918   3.783   1.884   8.522  0.1667  0.0995  0.5187
 2919CONH  CONH 2919   3.899   1.594   8.493 -0.0572 -0.4155  0.1420
 2920CC1    CC1 2920   3.762   1.387   8.477 -0.4649 -0.1221  0.2461
 2921CC1    CC1 2921   3.533   1.279   8.453 -0.2852  0.1148 -0.0192
 2922CC1    CC1 2922   3.293   1.291   8.491 -0.3862  0.2973  0.0521
 2923NCO    NCO 2923   3.234   1.209   8.185  0.0559 -0.2769 -0.0113
 2924CONH  CONH 2924   3.533   1.725   8.634  0.4500  0.3122 -0.0829
 2925CC1    CC1 2925   3.578   1.538   8.827  0.9107  0.2772 -0.0187
 2926CC1    CC1 2926   3.680   1.339   8.793 -0.3474 -0.1081  0.2262
 2927CC1    CC1 2927   3.705   1.105   8.791 -0.3630 -0.2266  0.2206
 2928NCO    NCO 2928   3.493   0.946   8.676  0.0996 -0.0208  0.0611
 2929NCO    NCO 2929   3.793   7.350   1.996 -0.3398 -0.0064 -0.0456
 2930CC1    CC1 2930   4.043   7.512   1.903 -0.0327 -0.5160 -0.1200
 2931CC1    CC1 2931   4.244   7.393   1.824  0.3210 -0.1906 -0.1804
 2932NCC    NCC 2932   4.399   7.156   1.725  0.0326 -0.1711 -0.0729
 2933CONH  CONH 2933   4.701   7.148   1.629 -0.3790 -0.1675  0.3461
 2934CC1    CC1 2934   4.927   7.184   1.811  0.0686  0.1093  0.0652
 2935CC1    CC1 2935   5.103   6.990   1.894  0.1327 -0.3280 -0.0444
 2936CC1    CC1 2936   5.211   6.859   2.076 -0.2731 -0.3705  0.1041
 2937NCO    NCO 2937   5.043   6.658   2.186  0.2109  0.1618  0.4527
 2938CONH  CONH 2938   4.385   6.905   1.550  0.1557  0.2372 -0.0838
 2939CC1    CC1 2939   4.194   6.902   1.320 -0.3219 -0.2733 -0.3882
 2940CC1    CC1 2940   4.247   6.736   1.170 -0.3073 -0.0857 -0.1361
 2941CC1    CC1 2941   4.356   6.539   1.107  0.4046  0.0724  0.4836
 2942NCO    NCO 2942   4.324   6.270   1.201 -0.5977 -0.5726 -0.0646
 2943NCO    NCO 2943   8.638   6.005   0.196  0.3197 -0.2625  0.4020
 2944CC1    CC1 2944   8.510   5.775   0.144  0.1979  0.1223  0.0372
 2945CC1    CC1 2945   8.457   5.671   0.350 -0.1636  0.0361 -0.0847
 2946NCC    NCC 2946   8.516   5.598   0.600  0.0964 -0.3024 -0.0379
 2947CONH  CONH 2947   8.318   5.570   0.871 -0.0371 -0.3558  0.2704
 2948CC1    CC1 2948   8.072   5.472   0.819  0.4003  0.1747 -0.4130
 2949CC1    CC1 2949   7.845   5.465   0.955  0.1820  0.1438  0.2200
 2950CC1    CC1 2950   7.654   5.416   1.074 -0.5772  0.0731 -0.1724
 2951NCO    NCO 2951   7.612   5.100   1.125 -0.3421  0.4060  0.0478
 2952CONH  CONH 2952   8.667   5.351   0.734 -0.4182  0.0286  0.1970
 2953CC1    CC1 2953   8.816   5.153   0.628  0.2370 -0.2701 -0.2509
 2954CC1    CC1 2954   8.964   5.052   0.787 -0.2431 -0.1161 -0.2024
 2955CC1    CC1 2955   9.147   4.875   0.856 -0.2571  0.0441 -0.2715
 2956NCO    NCO 2956   9.332   4.979   1.099 -0.3832  0.2059  0.0114
 2957NCO    NCO 2957   5.097   1.838   9.663  0.2602 -0.5705  0.2231
 2958CC1    CC1 2958   4.931   1.664   9.633 -0.0308  0.2879  0.8102
 2959CC1    CC1 2959   4.911   1.569   9.406  0.4285 -0.4711  0.3131
 2960NCC    NCC 2960   4.810   1.399   9.254 -0.1811 -0.0447  0.1233
 2961CONH  CONH 2961   4.767   1.086   9.358 -0.3176  0.1060 -0.2827
 2962CC1    CC1 2962   4.731   1.012   9.632 -0.2757  0.1359 -0.1801
 2963CC1    CC1 2963   4.604   0.831   9.662  0.4673 -0.1995  0.2607
 2964CC1    CC1 2964   4.404   0.743   9.717 -0.0619  0.1754 -0.0642
 2965NCO    NCO 2965   4.425   0.531   9.843  0.1588  0.0494 -0.0185
 2966CONH  CONH 2966   4.487   1.348   9.188  0.0259 -0.1323 -0.0608
 2967CC1    CC1 2967   4.434   1.199   9.002 -0.3159  0.1102 -0.2606
 2968CC1    CC1 2968   4.627   1.042   8.985  0.3145  0.1942  0.7446
 2969CC1    CC1 2969   4.838   0.991   8.943  0.1349 -0.0637 -0.2175
 2970NCO    NCO 2970   5.053   1.190   8.921  0.4901 -0.0694 -0.0323
 2971NCO    NCO 2971   3.738   0.977   8.210 -0.0716  0.2984  0.1609
 2972CC1    CC1 2972   4.033   1.062   8.333 -0.3062 -0.1241  0.2850
 2973CC1    CC1 2973   4.079   1.250   8.199 -0.0039 -0.2695  0.1167
 2974NCC    NCC 2974   4.073   1.496   8.067  0.1551  0.3622 -0.0496
 2975CONH  CONH 2975   4.148   1.568   7.745  0.0810 -0.3665 -0.2049
 2976CC1    CC1 2976   3.936   1.558   7.547 -0.1150  0.4434 -0.0507
 2977CC1    CC1 2977   3.949   1.453   7.375  0.0111  0.1894 -0.0179
 2978CC1    CC1 2978   3.989   1.386   7.156 -0.0468  0.0788  0.5314
 2979NCO    NCO 2979   4.239   1.364   7.000  0.0902 -0.0822 -0.0597
 2980CONH  CONH 2980   3.873   1.743   8.095  0.2971  0.0219  0.2900
 2981CC1    CC1 2981   3.764   1.836   7.877 -0.3336 -0.1604  0.1169
 2982CC1    CC1 2982   3.630   1.750   7.697 -0.4093  0.2728  0.7495
 2983CC1    CC1 2983   3.551   1.638   7.490  0.4035  0.0332 -0.2324
 2984NCO    NCO 2984   3.266   1.653   7.536 -0.5806 -0.3763  0.4012
 2985NCO    NCO 2985   3.344   7.415   8.579  0.0793  0.0377  0.0712
 2986CC1    CC1 2986   3.018   7.386   8.499 -0.5382  0.0658  0.4908
 2987CC1    CC1 2987   2.930   7.505   8.655  0.0369  0.3239  0.2211
 2988NCC    NCC 2988   2.811   7.647   8.850  0.3381  0.3272 -0.1919
 2989CONH  CONH 2989   2.874   7.684   9.168 -0.2523 -0.2041  0.0242
 2990CC1    CC1 2990   2.675   7.779   9.339  0.0862 -0.1744  0.0419
 2991CC1    CC1 2991   2.706   7.663   9.557  0.3092 -0.3087  0.0204
 2992CC1    CC1 2992   2.749   7.531   9.764 -0.1351 -0.2488  0.5966
 2993NCO    NCO 2993   2.695   7.743   9.955  0.2270 -0.2139  0.1773
 2994CONH  CONH 2994   2.748   7.947   8.893  0.0371 -0.2031  0.3611
 2995CC1    CC1 2995   2.839   8.132   8.701  0.2789 -0.0273  0.4724
 2996CC1    CC1 2996   2.973   8.296   8.767 -0.0962  0.5188  0.0537
 2997CC1    CC1 2997   3.109   8.365   8.948  0.3546 -0.2101  0.4520
 2998NCO    NCO 2998   3.263   8.100   9.015 -0.2124 -0.2870 -0.0550
 2999NCO    NCO 2999   0.273   5.240   2.401 -0.0299  0.4044  0.1330
 3000CC1    CC1 3000   0.272   5.135   2.634 -0.0447  0.4328  0.5959
 3001CC1    CC1 3001   0.127   4.905   2.681  0.1672 -0.0999 -0.1262
 3002NCC    NCC 3002   0.017   4.645   2.762 -0.0044 -0.1300  0.3146
 3003CONH  CONH 3003  10.175   4.468   2.628  0.2103  0.1714 -0.6519
 3004CC1    CC1 3004  10.036   4.514   2.407 -0.1027  0.1655 -0.7256
 3005CC1    CC1 3005   9.981   4.768   2.390 -0.1185  0.0350 -0.3802
 3006CC1    CC1 3006  10.003   4.985   2.314  0.1282 -0.5251  0.3734
 3007NCO    NCO 3007  10.015   5.221   2.436  0.0449  0.0976 -0.1099
 3008CONH  CONH 3008  10.243   4.540   3.026  0.3014  0.3268 -0.1278
 3009CC1    CC1 3009   0.052   4.441   3.253 -0.0720  0.1632  0.2754
 3010CC1    CC1 3010   0.179   4.264   3.367 -0.5751 -0.2115  0.1622
 3011CC1    CC1 3011   0.218   4.098   3.569  0.2440 -0.2476 -0.0778
 3012NCO    NCO 3012   0.311   4.060   3.849 -0.0311 -0.2447  0.1589
 3013NCO    NCO 3013   8.050   0.204   1.869 -0.0001  0.1837 -0.2659
 3014CC1    CC1 3014   8.158   0.121   1.677  0.1057  0.4937 -0.2062
 3015CC1    CC1 3015   8.389   0.130   1.571  0.1572 -0.0516  0.1848
 3016NCC    NCC 3016   8.616   0.041   1.491  0.0078 -0.2597  0.0203
 3017CONH  CONH 3017   8.866  10.298   1.662  0.0248  0.0150 -0.1308
 3018CC1    CC1 3018   8.961  10.041   1.611  0.3703 -0.4404 -0.1008
 3019CC1    CC1 3019   9.053   9.881   1.719 -0.4516  0.2457  0.1979
 3020CC1    CC1 3020   9.157   9.738   1.874 -0.5347  0.3318  0.0884
 3021NCO    NCO 3021   9.163   9.721   2.126  0.0924  0.1226 -0.2895
 3022CONH  CONH 3022   8.696  10.196   1.245  0.1615 -0.1462 -0.0399
 3023CC1    CC1 3023   8.957  10.116   1.222 -0.1196  0.0777  0.0129
 3024CC1    CC1 3024   9.116  10.250   1.316  0.1467 -0.4176 -0.3459
 3025CC1    CC1 3025   9.268  10.285   1.470 -0.2657 -0.3416 -0.2940
 3026NCO    NCO 3026   9.548   0.011   1.339  0.0016  0.1523  0.1371
 3027NCO    NCO 3027   4.722   0.597   0.250  0.2107  0.5316 -0.3737
 3028CC1    CC1 3028   4.540   0.671   0.032  0.5028 -0.1444 -0.0971
 3029CC1    CC1 3029   4.307   0.606  10.276  0.1217 -0.2050  0.1582
 3030NCC    NCC 3030   4.095   0.664  10.119 -0.3668 -0.3517 -0.4233
 3031CONH  CONH 3031   3.803   0.540  10.093 -0.0907  0.0957  0.6042
 3032CC1    CC1 3032   3.721   0.393   9.851  0.1988 -0.4266  0.1819
 3033CC1    CC1 3033   3.785   0.310   9.650  0.0455  0.5602  0.1210
 3034CC1    CC1 3034   3.842   0.194   9.461  0.3311  0.0636  0.2477
 3035NCO    NCO 3035   3.953  10.294   9.422  0.3265 -0.4193  0.0604
 3036CONH  CONH 3036   3.995   0.895   9.937 -0.1758  0.1447 -0.5387
 3037CC1    CC1 3037   3.938   0.852   9.689 -0.2100  0.2305 -0.2243
 3038CC1    CC1 3038   3.737   0.889   9.588 -0.3384  0.2880 -0.2428
 3039CC1    CC1 3039   3.529   0.963   9.585 -0.0433 -0.1611  0.4593
 3040NCO    NCO 3040   3.431   1.225   9.613 -0.1844 -0.0085 -0.2688
 3041NCO    NCO 3041   2.364   7.342   9.839  0.2276  0.2045 -0.1739
 3042CC1    CC1 3042   2.248   7.441   9.597 -0.4981  0.2286 -0.1720
 3043CC1    CC1 3043   2.314   7.639   9.519 -0.1626 -0.1054  0.0538
 3044NCC    NCC 3044   2.375   7.875   9.585 -0.4463 -0.2554  0.2194
 3045CONH  CONH 3045   2.569   8.137   9.477  0.2844  0.1892 -0.1978
 3046CC1    CC1 3046   2.508   8.286   9.253 -0.1841 -0.2963  0.4108
 3047CC1    CC1 3047   2.636   8.431   9.158 -0.2352  0.2400  0.0180
 3048CC1    CC1 3048   2.769   8.509   8.980 -0.5750  0.0279  0.4058
 3049NCO    NCO 3049   2.693   8.759   8.808  0.2834 -0.3283 -0.3511
 3050CONH  CONH 3050   2.298   8.056   9.870  0.0906  0.5107  0.2199
 3051CC1    CC1 3051   2.295   7.961  10.093 -0.0715  0.3746 -0.2002
 3052CC1    CC1 3052   2.379   7.721  10.146  0.5276 -0.2978 -0.2100
 3053CC1    CC1 3053   2.495   7.563  10.297 -0.0586  0.2004  0.1510
 3054NCO    NCO 3054   2.687   7.378  10.175 -0.3079 -0.1520 -0.8800
 3055NCO    NCO 3055   2.838   1.892   8.490 -0.1929 -0.1998 -0.1539
 3056CC1    CC1 3056   3.161   2.000   8.463  0.4937 -0.0872  0.2658
 3057CC1    CC1 3057   3.081   2.199   8.340  0.0771 -0.3900 -0.1793
 3058NCC    NCC 3058   3.163   2.435   8.240 -0.0395  0.1233  0.0921
 3059CONH  CONH 3059   3.150   2.719   8.333 -0.0697 -0.0855  0.2234
 3060CC1    CC1 3060   3.381   2.895   8.397 -0.1190 -0.2816 -0.1792
 3061CC1    CC1 3061   3.408   3.032   8.621 -0.1112 -0.1349  0.6527
 3062CC1    CC1 3062   3.481   3.018   8.848 -0.1459 -0.5689 -0.6224
 3063NCO    NCO 3063   3.388   3.286   8.985  0.2178  0.4947 -0.2434
 3064CONH  CONH 3064   3.357   2.553   8.022 -0.1618  0.1581  0.1394
 3065CC1    CC1 3065   3.372   2.472   7.744  0.3422  0.3704 -0.4411
 3066CC1    CC1 3066   3.458   2.588   7.548  0.2587  0.2092  0.4144
 3067CC1    CC1 3067   3.419   2.688   7.335  0.0101 -0.3448 -0.0943
 3068NCO    NCO 3068   3.648   2.850   7.262  0.1515  0.1993  0.2831
 3069NCO    NCO 3069   7.264   6.139   5.022  0.2908  0.1256 -0.0782
 3070CC1    CC1 3070   7.119   5.928   5.179 -0.0799  0.3145 -0.1601
 3071CC1    CC1 3071   6.962   5.805   5.077  0.1535  0.5248  0.2800
 3072NCC    NCC 3072   6.707   5.746   4.931 -0.2247 -0.2182  0.0676
 3073CONH  CONH 3073   6.618   5.450   4.840  0.2766  0.5772  0.2210
 3074CC1    CC1 3074   6.615   5.380   4.564 -0.0856 -0.0339  0.3929
 3075CC1    CC1 3075   6.433   5.256   4.458  0.1622  0.0150 -0.5731
 3076CC1    CC1 3076   6.249   5.078   4.366 -0.4079  0.1323 -0.2721
 3077NCO    NCO 3077   6.091   4.884   4.186  0.1491  0.0365 -0.1677
 3078CONH  CONH 3078   6.403   5.785   4.959  0.3154  0.4218 -0.0862
 3079CC1    CC1 3079   6.244   5.567   4.991  0.2940  0.1141 -0.0630
 3080CC1    CC1 3080   6.040   5.536   5.105  0.1278 -0.1622 -0.1927
 3081CC1    CC1 3081   5.891   5.398   5.167  0.2387  0.0536  0.2670
 3082NCO    NCO 3082   5.662   5.402   4.935  0.2160  0.1690 -0.2656
 3083NCO    NCO 3083   4.914   1.174   6.534 -0.0440 -0.1970 -0.4299
 3084CC1    CC1 3084   4.951   1.341   6.783 -0.0266  0.0027 -0.0260
 3085CC1    CC1 3085   4.796   1.387   6.983  0.4993 -0.4967  0.3463
 3086NCC    NCC 3086   4.617   1.544   7.134  0.0012  0.2346  0.1252
 3087CONH  CONH 3087   4.533   1.859   7.134  0.2203  0.0009 -0.0719
 3088CC1    CC1 3088   4.285   1.899   7.253  0.2268 -0.0035  0.3096
 3089CC1    CC1 3089   4.265   2.058   7.399  0.4485 -0.0612  0.3952
 3090CC1    CC1 3090   4.183   2.257   7.475 -0.3387 -0.3963  0.1544
 3091NCO    NCO 3091   4.414   2.411   7.613 -0.2210 -0.1765  0.2769
 3092CONH  CONH 3092   4.429   1.516   7.377 -0.1268 -0.0941  0.0539
 3093CC1    CC1 3093   4.320   1.245   7.436 -0.0680 -0.2934  0.0481
 3094CC1    CC1 3094   4.149   1.239   7.558 -0.2405  0.4757  0.3191
 3095CC1    CC1 3095   3.941   1.126   7.631 -0.0726 -0.2656  0.0148
 3096NCO    NCO 3096   3.649   1.227   7.496  0.1170 -0.2316 -0.0716
 3097NCO    NCO 3097   5.858   9.917   3.978  0.3491  0.1652 -0.9248
 3098CC1    CC1 3098   6.039  10.100   3.806  0.0782  0.1550 -0.0668
 3099CC1    CC1 3099   5.895  10.035   3.608 -0.4662 -0.6865  0.2108
 3100NCC    NCC 3100   5.713   9.928   3.396  0.3604 -0.3086 -0.0585
 3101CONH  CONH 3101   5.691   9.991   3.093  0.2015 -0.4932  0.2258
 3102CC1    CC1 3102   5.580  10.219   3.002  0.0954 -0.0489  0.3620
 3103CC1    CC1 3103   5.719   0.034   2.934 -0.2970  0.2278 -0.2012
 3104CC1    CC1 3104   5.744   0.216   2.899 -0.0196 -0.1089  0.2036
 3105NCO    NCO 3105   5.769   0.411   3.066 -0.0818 -0.2654 -0.1755
 3106CONH  CONH 3106   5.642   9.620   3.308 -0.2893  0.1945 -0.5238
 3107CC1    CC1 3107   5.478   9.602   3.078  0.2589  0.1813 -0.2111
 3108CC1    CC1 3108   5.280   9.473   3.098  0.0017 -0.2339 -0.0589
 3109CC1    CC1 3109   5.116   9.334   3.131  0.2634  0.0461 -0.0727
 3110NCO    NCO 3110   4.931   9.487   3.316 -0.0514  0.3081  0.1165
 3111NCO    NCO 3111   7.246   5.673   5.432 -0.2717  0.2586  0.4391
 3112CC1    CC1 3112   7.516   5.796   5.516 -0.1965 -0.2940 -0.3393
 3113CC1    CC1 3113   7.655   5.657   5.599  0.2000 -0.0936  0.1946
 3114NCC    NCC 3114   7.895   5.551   5.711 -0.0018  0.2571 -0.4478
 3115CONH  CONH 3115   8.137   5.672   5.918 -0.0528  0.1384 -0.2305
 3116CC1    CC1 3116   8.199   5.931   5.910  0.2610 -0.5305 -0.1215
 3117CC1    CC1 3117   8.197   6.038   6.113  0.1361 -0.1990 -0.2252
 3118CC1    CC1 3118   8.114   6.124   6.275 -0.1271 -0.1309  0.0754
 3119NCO    NCO 3119   8.344   6.164   6.459 -0.1542 -0.2814  0.2606
 3120CONH  CONH 3120   8.044   5.276   5.789 -0.4529  0.0458 -0.0296
 3121CC1    CC1 3121   8.226   5.184   5.616 -0.2508 -0.3821 -0.1954
 3122CC1    CC1 3122   8.352   5.024   5.670 -0.2248 -0.0033 -0.0885
 3123CC1    CC1 3123   8.398   4.831   5.798 -0.1564 -0.0464 -0.6481
 3124NCO    NCO 3124   8.456   4.911   6.059  0.0781 -0.2479 -0.1518
 3125NCO    NCO 3125   8.339   6.428   1.127 -0.0277  0.0084 -0.3003
 3126CC1    CC1 3126   8.592   6.429   1.326 -0.3390  0.3332 -0.4557
 3127CC1    CC1 3127   8.619   6.202   1.421  0.2673  0.2215 -0.3308
 3128NCC    NCC 3128   8.772   5.963   1.369  0.1386  0.1476  0.2179
 3129CONH  CONH 3129   8.688   5.697   1.135  0.6621  0.0081  0.0250
 3130CC1    CC1 3130   8.534   5.452   1.211 -0.4147 -0.3673 -0.1218
 3131CC1    CC1 3131   8.616   5.290   1.206  0.4585 -0.3518  0.3629
 3132CC1    CC1 3132   8.680   5.110   1.097  0.1468  0.4148  0.1224
 3133NCO    NCO 3133   8.481   4.953   0.993  0.1136 -0.1222  0.1134
 3134CONH  CONH 3134   9.053   5.957   1.197 -0.0140  0.2795  0.1438
 3135CC1    CC1 3135   9.100   5.777   0.950  0.2712 -0.5693  0.1191
 3136CC1    CC1 3136   9.223   5.939   0.800  0.1454 -0.0980  0.2227
 3137CC1    CC1 3137   9.421   6.079   0.778  0.0765 -0.2326 -0.0042
 3138NCO    NCO 3138   9.418   6.221   1.057 -0.0351 -0.3963  0.1365
 3139NCO    NCO 3139   5.015   0.665   9.598 -0.1309 -0.1876 -0.3902
 3140CC1    CC1 3140   4.978   0.716   9.306 -0.0984 -0.1718 -0.3378
 3141CC1    CC1 3141   4.784   0.651   9.277 -0.0911 -0.1793 -0.2301
 3142NCC    NCC 3142   4.503   0.707   9.234  0.0729 -0.2896  0.1107
 3143CONH  CONH 3143   4.292   0.938   9.336  0.3008  0.0594  0.2887
 3144CC1    CC1 3144   4.329   1.077   9.559 -0.2906  0.3143  0.2362
 3145CC1    CC1 3145   4.347   1.267   9.575 -0.6013 -0.0784  0.2000
 3146CC1    CC1 3146   4.490   1.451   9.655 -0.0828  0.0380 -0.2198
 3147NCO    NCO 3147   4.361   1.569   9.882  0.1909 -0.0655  0.1764
 3148CONH  CONH 3148   4.250   0.691   9.019 -0.1434  0.2028 -0.0592
 3149CC1    CC1 3149   4.068   0.882   8.974 -0.1671  0.0530 -0.1816
 3150CC1    CC1 3150   4.058   1.035   8.790 -0.3365 -0.1250  0.0582
 3151CC1    CC1 3151   4.022   1.202   8.672 -0.6775 -0.3680 -0.2380
 3152NCO    NCO 3152   4.261   1.399   8.599 -0.2306 -0.1263 -0.3690
 3153NCO    NCO 3153   9.466   4.635   0.421 -0.1724 -0.3689  0.1379
 3154CC1    CC1 3154   9.300   4.832   0.575 -0.1004  0.0149 -0.0477
 3155CC1    CC1 3155   9.232   5.043   0.517 -0.4171  0.3110 -0.3013
 3156NCC    NCC 3156   9.169   5.316   0.556 -0.1217  0.3158 -0.1551
 3157CONH  CONH 3157   9.346   5.559   0.648 -0.3623  0.2025 -0.2832
 3158CC1    CC1 3158   9.483   5.566   0.874 -0.4344 -0.3637 -0.2011
 3159CC1    CC1 3159   9.593   5.424   1.040 -0.1381 -0.1418  0.0063
 3160CC1    CC1 3160   9.609   5.309   1.226  0.5482  0.0868  0.3334
 3161NCO    NCO 3161   9.353   5.325   1.425 -0.1501 -0.0696 -0.3333
 3162CONH  CONH 3162   8.975   5.555   0.453  0.0658 -0.2669 -0.0416
 3163CC1    CC1 3163   8.852   5.775   0.609 -0.0033 -0.0619  0.7121
 3164CC1    CC1 3164   8.694   5.966   0.586  0.0442 -0.3486 -0.0616
 3165CC1    CC1 3165   8.492   6.083   0.656  0.6358  0.2526 -0.4212
 3166NCO    NCO 3166   8.402   6.028   0.878 -0.0336 -0.0247 -0.1539
 3167NCO    NCO 3167   3.087   4.574   2.010 -0.1098  0.3366 -0.1221
 3168CC1    CC1 3168   3.161   4.731   1.833  0.5491  0.0021  0.1130
 3169CC1    CC1 3169   3.001   4.888   1.805  0.5249  0.0135 -0.0505
 3170NCC    NCC 3170   2.820   5.076   1.893 -0.1936  0.3049 -0.2139
 3171CONH  CONH 3171   2.861   5.400   1.905 -0.1946  0.1179 -0.1011
 3172CC1    CC1 3172   2.680   5.565   2.034 -0.1730  0.1835  0.1186
 3173CC1    CC1 3173   2.651   5.392   2.227 -0.0955  0.1019 -0.5265
 3174CC1    CC1 3174   2.703   5.210   2.385 -0.6304  0.1719  0.3919
 3175NCO    NCO 3175   2.594   5.127   2.606 -0.3336  0.1303  0.0007
 3176CONH  CONH 3176   2.490   5.104   1.835  0.3355  0.3476 -0.3313
 3177CC1    CC1 3177   2.274   4.912   1.973 -0.1688  0.1326 -0.0241
 3178CC1    CC1 3178   2.066   4.841   1.898  0.1687 -0.7642  0.1945
 3179CC1    CC1 3179   1.915   4.677   1.802  0.4082  0.4037 -0.1769
 3180NCO    NCO 3180   1.694   4.709   1.831  0.0776  0.2194  0.1891
 3181NCO    NCO 3181   5.285   1.675   8.884  0.2394  0.0777  0.1748
 3182CC1    CC1 3182   5.282   1.693   9.156  0.5401  0.0062 -0.5655
 3183CC1    CC1 3183   5.405   1.519   9.286 -0.6981  0.0544 -0.3216
 3184NCC    NCC 3184   5.426   1.248   9.334  0.1857 -0.4370  0.1128
 3185CONH  CONH 3185   5.180   1.050   9.426  0.2114  0.0288 -0.2663
 3186CC1    CC1 3186   5.140   1.001   9.683 -0.1310  0.8214  0.4340
 3187CC1    CC1 3187   4.991   1.074   9.841  0.0014  0.3564 -0.0824
 3188CC1    CC1 3188   4.892   1.070  10.037  0.3678 -0.1027 -0.2920
 3189NCO    NCO 3189   4.742   1.271  10.035  0.0856 -0.2330 -0.1615
 3190CONH  CONH 3190   5.633   1.071   9.493 -0.1851 -0.0870 -0.1560
 3191CC1    CC1 3191   5.872   0.983   9.371 -0.2447  0.0253 -0.1202
 3192CC1    CC1 3192   5.933   1.071   9.170 -0.1447 -0.5264  0.1034
 3193CC1    CC1 3193   5.937   1.157   8.965  0.0822 -0.4237 -0.0186
 3194NCO    NCO 3194   6.189   1.327   8.975 -0.0085 -0.1735  0.0714
 3195NCO    NCO 3195   6.323   0.894   8.648  0.2946  0.1682 -0.1189
 3196CC1    CC1 3196   6.203   0.686   8.880 -0.3386  0.3095 -0.3170
 3197CC1    CC1 3197   5.961   0.727   8.908 -0.0335  0.3079  0.5898
 3198NCC    NCC 3198   5.706   0.853   8.866 -0.7054  0.1284 -0.1771
 3199CONH  CONH 3199   5.504   0.906   9.097 -0.3557 -0.5372 -0.0599
 3200CC1    CC1 3200   5.252   0.859   9.043 -0.0571  0.0008  0.0490
 3201CC1    CC1 3201   5.156   0.670   9.012 -0.2416 -0.3127  0.2952
 3202CC1    CC1 3202   4.955   0.537   9.038 -0.1012 -0.0551  0.0623
 3203NCO    NCO 3203   4.962   0.301   8.975  0.3612 -0.0649  0.2133
 3204CONH  CONH 3204   5.494   0.995   8.686 -0.4127  0.4018  0.3367
 3205CC1    CC1 3205   5.379   0.836   8.478 -0.0154  0.0811 -0.2958
 3206CC1    CC1 3206   5.506   0.676   8.386  0.0205  0.4849 -0.0614
 3207CC1    CC1 3207   5.661   0.622   8.229  0.7043 -0.1833 -0.4895
 3208NCO    NCO 3208   5.610   0.774   7.991  0.4105 -0.0192  0.2756
 3209NCO    NCO 3209   1.666   7.720   8.487 -0.4148 -0.0279  0.3252
 3210CC1    CC1 3210   1.897   7.838   8.567 -0.2483 -0.0405  0.0582
 3211CC1    CC1 3211   2.059   7.950   8.434 -0.3083 -0.3176 -0.1771
 3212NCC    NCC 3212   2.187   8.167   8.344  0.6350  0.3557  0.1308
 3213CONH  CONH 3213   2.070   8.375   8.145 -0.0050 -0.3053  0.3324
 3214CC1    CC1 3214   2.048   8.640   8.196  0.7415 -0.2473  0.1215
 3215CC1    CC1 3215   2.153   8.745   8.360 -0.1960 -0.0268  0.3652
 3216CC1    CC1 3216   2.174   8.850   8.579 -0.4145  0.0805  0.3699
 3217NCO    NCO 3217   2.146   8.735   8.802 -0.1233 -0.0714  0.0729
 3218CONH  CONH 3218   2.332   8.402   8.492 -0.1423 -0.2620 -0.0139
 3219CC1    CC1 3219   2.594   8.339   8.636  0.0972  0.1711  0.5782
 3220CC1    CC1 3220   2.481   8.238   8.810 -0.4694  0.0987  0.3929
 3221CC1    CC1 3221   2.290   8.206   8.946 -0.1018  0.4366  0.1844
 3222NCO    NCO 3222   2.062   8.261   8.782 -0.2244  0.1368 -0.1666
 3223NCO    NCO 3223   6.719   9.369   3.606 -0.1041  0.3928  0.1358
 3224CC1    CC1 3224   6.437   9.355   3.643 -0.2686  0.4535  0.1698
 3225CC1    CC1 3225   6.289   9.245   3.496 -0.4628 -0.7426 -0.0610
 3226NCC    NCC 3226   6.048   9.273   3.333 -0.4656  0.0847 -0.2418
 3227CONH  CONH 3227   5.773   9.146   3.373 -0.0422  0.0210  0.3179
 3228CC1    CC1 3228   5.533   9.231   3.217 -0.6021 -0.4593 -0.1751
 3229CC1    CC1 3229   5.403   9.325   3.392  0.1376 -0.0845  0.2172
 3230CC1    CC1 3230   5.323   9.324   3.583  0.2898  0.0905  0.0445
 3231NCO    NCO 3231   5.524   9.145   3.761  0.1134 -0.5453 -0.0079
 3232CONH  CONH 3232   5.948   9.373   3.042  0.5228 -0.1776  0.0693
 3233CC1    CC1 3233   5.960   9.623   3.004 -0.3534  0.2651  0.1282
 3234CC1    CC1 3234   6.050   9.735   2.788 -0.2908  0.4386  0.0282
 3235CC1    CC1 3235   6.010   9.852   2.546 -0.6099  0.2451 -0.5164
 3236NCO    NCO 3236   5.956  10.126   2.612 -0.3280 -0.2412 -0.1601
 3237NCO    NCO 3237   7.819   9.594   0.975  0.2006  0.2356  0.0447
 3238CC1    CC1 3238   7.881   9.443   1.161 -0.6470  0.2772 -0.4447
 3239CC1    CC1 3239   8.112   9.474   1.268 -0.0111  0.1288  0.1464
 3240NCC    NCC 3240   8.379   9.495   1.288  0.2925 -0.2769  0.1241
 3241CONH  CONH 3241   8.591   9.386   1.080 -0.4900  0.1781 -0.0369
 3242CC1    CC1 3242   8.847   9.487   1.101 -0.1681 -0.2957 -0.1509
 3243CC1    CC1 3243   9.009   9.568   0.998 -0.5397 -0.5182  0.1850
 3244CC1    CC1 3244   9.135   9.654   0.828  0.1072 -0.3630  0.2292
 3245NCO    NCO 3245   9.314   9.906   0.893  0.1410 -0.1731 -0.2954
 3246CONH  CONH 3246   8.535   9.764   1.273  0.2761  0.0418 -0.0308
 3247CC1    CC1 3247   8.760   9.778   1.394  0.0056  0.0172  0.1609
 3248CC1    CC1 3248   8.990   9.761   1.327 -0.4657 -0.2314 -0.2147
 3249CC1    CC1 3249   9.221   9.764   1.397 -0.0089  0.2168  0.3165
 3250NCO    NCO 3250   9.500   9.779   1.330  0.0650 -0.2217  0.1695
 3251NCO    NCO 3251   8.696   4.554   5.448  0.0993  0.1024  0.0777
 3252CC1    CC1 3252   8.705   4.787   5.554  0.1939 -0.0271  0.3886
 3253CC1    CC1 3253   8.877   4.951   5.519 -0.0435  0.2630 -0.5041
 3254NCC    NCC 3254   9.090   5.134   5.530  0.4665  0.0310  0.3228
 3255CONH  CONH 3255   9.055   5.439   5.606  0.1966 -0.0284 -0.1863
 3256CC1    CC1 3256   9.078   5.651   5.421  0.3070  0.2182 -0.2054
 3257CC1    CC1 3257   8.909   5.666   5.286  0.0901 -0.7728  0.5400
 3258CC1    CC1 3258   8.820   5.748   5.119 -0.0726  0.1872 -0.4230
 3259NCO    NCO 3259   8.741   5.573   4.901  0.0890 -0.2039 -0.2687
 3260CONH  CONH 3260   9.340   5.207   5.362 -0.0402 -0.1732 -0.0718
 3261CC1    CC1 3261   9.436   5.437   5.333  0.3626 -0.5383  0.6862
 3262CC1    CC1 3262   9.344   5.611   5.208  0.0102 -0.2873  0.1482
 3263CC1    CC1 3263   9.286   5.789   5.028 -0.1957  0.0273  0.4791
 3264NCO    NCO 3264   9.102   5.819   4.789  0.3902  0.2560  0.1990
 3265NCO    NCO 3265   0.054   4.328   1.008  0.0366 -0.2785  0.1936
 3266CC1    CC1 3266  10.136   4.402   1.080  0.3706 -0.3910  0.2697
 3267CC1    CC1 3267  10.153   4.608   1.112 -0.0995  0.1624 -0.1307
 3268NCC    NCC 3268  10.180   4.830   0.998 -0.2581  0.1930  0.0799
 3269CONH  CONH 3269  10.320   4.917   0.720  0.5106 -0.0559  0.4554
 3270CC1    CC1 3270   0.217   5.012   0.687 -0.1174  0.5448 -0.1802
 3271CC1    CC1 3271   0.397   4.948   0.520  0.1243  0.0963  0.5357
 3272CC1    CC1 3272   0.565   4.887   0.358  0.1028  0.1269  0.2876
 3273NCO    NCO 3273   0.547   5.060   0.129  0.2641 -0.2136  0.4658
 3274CONH  CONH 3274  10.164   5.160   1.110  0.0972 -0.2200 -0.2660
 3275CC1    CC1 3275  10.121   5.228   1.363 -0.1515 -0.3296  0.2886
 3276CC1    CC1 3276   9.973   5.447   1.374 -0.4345  0.3036  0.0419
 3277CC1    CC1 3277   9.778   5.609   1.474 -0.2662  0.3225  0.0399
 3278NCO    NCO 3278   9.609   5.588   1.685 -0.3420 -0.0529  0.2131
 3279NCO    NCO 3279   8.973   3.272   8.764  0.1303 -0.3900 -0.2400
 3280CC1    CC1 3280   9.050   3.337   9.014  0.1668  0.5484  0.1803
 3281CC1    CC1 3281   8.971   3.145   9.124 -0.1243  0.2150 -0.2172
 3282NCC    NCC 3282   8.911   2.953   9.317 -0.1180 -0.3846  0.0328
 3283CONH  CONH 3283   8.850   2.633   9.296  0.1166  0.1821 -0.1335
 3284CC1    CC1 3284   9.027   2.464   9.267  0.0943 -0.0955 -0.0490
 3285CC1    CC1 3285   9.233   2.556   9.337  0.1856  0.3956  0.8801
 3286CC1    CC1 3286   9.471   2.524   9.343 -0.0638 -0.0769 -0.0931
 3287NCO    NCO 3287   9.503   2.461   9.650 -0.2535 -0.3214 -0.0409
 3288CONH  CONH 3288   8.791   2.929   9.603 -0.0204  0.1084  0.1615
 3289CC1    CC1 3289   8.891   3.048   9.802 -0.2142  0.2881  0.2265
 3290CC1    CC1 3290   8.816   3.258   9.906 -0.0278 -0.1181 -0.0863
 3291CC1    CC1 3291   8.868   3.462   9.955  0.1581 -0.1538  0.1314
 3292NCO    NCO 3292   8.933   3.425  10.244  0.3388 -0.0699  0.0008
 3293NCO    NCO 3293   5.174   8.063   1.894  0.1100  0.2526 -0.2883
 3294CC1    CC1 3294   5.210   7.868   1.696 -0.2328 -0.0115  0.2490
 3295CC1    CC1 3295   5.001   7.776   1.668 -0.1608  0.1818 -0.2799
 3296NCC    NCC 3296   4.773   7.662   1.735 -0.0279  0.4054 -0.1866
 3297CONH  CONH 3297   4.665   7.448   1.967 -0.1835 -0.1873 -0.0146
 3298CC1    CC1 3298   4.585   7.531   2.179 -0.2476  0.1962 -0.0234
 3299CC1    CC1 3299   4.586   7.397   2.336 -0.8054 -0.0023  0.0188
 3300CC1    CC1 3300   4.681   7.273   2.425 -0.1506 -0.3349  0.3227
 3301NCO    NCO 3301   4.715   7.377   2.738  0.1282  0.1933  0.2071
 3302CONH  CONH 3302   4.451   7.678   1.670 -0.1279  0.2588  0.4848
 3303CC1    CC1 3303   4.261   7.768   1.869 -0.1281  0.4585  0.1554
 3304CC1    CC1 3304   4.207   7.820   2.127 -0.2548 -0.1227 -0.2990
 3305CC1    CC1 3305   4.247   7.919   2.369 -0.0285 -0.2712 -0.4767
 3306NCO    NCO 3306   4.041   7.844   2.616 -0.2600  0.0191  0.4545
 3307NCO    NCO 3307   6.637   5.714   3.650  0.4880 -0.1991 -0.1140
 3308CC1    CC1 3308   6.389   5.704   3.524  0.0411  0.1262  0.3276
 3309CC1    CC1 3309   6.221   5.805   3.642 -0.0983 -0.1500 -0.3093
 3310NCC    NCC 3310   5.987   5.915   3.638  0.1280  0.1601  0.0805
 3311CONH  CONH 3311   5.732   5.788   3.450 -0.2134 -0.5162  0.1351
 3312CC1    CC1 3312   5.592   5.947   3.335 -0.2022  0.3624 -0.2886
 3313CC1    CC1 3313   5.446   6.071   3.437 -0.2290 -0.5977 -0.0760
 3314CC1    CC1 3314   5.266   6.213   3.461 -0.1312 -0.4544 -0.4531
 3315NCO    NCO 3315   5.114   6.046   3.640  0.1271  0.0327 -0.1920
 3316CONH  CONH 3316   5.862   6.185   3.526  0.1083 -0.1655  0.1275
 3317CC1    CC1 3317   5.645   6.310   3.693 -0.0117  0.0120 -0.0669
 3318CC1    CC1 3318   5.688   6.557   3.639  0.1660  0.0200  0.0238
 3319CC1    CC1 3319   5.789   6.770   3.625 -0.5976  0.6459  0.0654
 3320NCO    NCO 3320   5.637   7.009   3.729 -0.1484 -0.3234 -0.0953
 3321W        W 3321   2.515   9.697   8.913  0.2069  0.0068  0.0571
 3322W        W 3322   7.126   9.651   5.377 -0.1995 -0.2455  0.0820
 3323W        W 3323   6.264   4.510   2.998 -0.0690 -0.1988 -0.0183
 3324W        W 3324   3.486   3.570   9.667 -0.1312 -0.0977 -0.0122
 3325W        W 3325   7.478   3.597   1.828  0.2670 -0.1325  0.0264
 3326W        W 3326   7.365   8.577   9.349  0.0112 -0.2036  0.1289
 3327W        W 3327   7.921   0.298   7.197 -0.1144  0.4515  0.0340
 3328W        W 3328   6.542   9.121   7.852  0.1998 -0.2830 -0.0853
 3329W        W 3329   1.202   4.693   0.474  0.1457  0.2945 -0.2609
 3330W        W 3330   0.776   8.284   6.395 -0.3677  0.0545 -0.2741
 3331W        W 3331   4.788   2.809   9.222 -0.1350 -0.0222  0.1365
 3332W        W 3332   3.421   2.619   3.126 -0.1236  0.0210 -0.0556
 3333W        W 3333   6.020  10.331   4.098 -0.0348  0.1915  0.2402
 3334W        W 3334   5.696   7.445   3.623  0.0622  0.0676 -0.3568
 3335W        W 3335   6.939   9.176   8.194 -0.0114 -0.0698 -0.1835
 3336W        W 3336   0.275   0.006   7.058 -0.2233  0.2166 -0.0398
 3337W        W 3337   3.614   9.869  10.315  0.0327  0.0346  0.2065
 3338W        W 3338   4.329   8.381   9.596 -0.2559 -0.1558 -0.0886
 3339W        W 3339   4.928   7.210   9.413 -0.0590  0.2880  0.2204
 3340W        W 3340   3.360   9.602   1.323  0.3196 -0.0610 -0.1577
 3341W        W 3341   1.196   5.895   9.380  0.2193  0.1839  0.3308
 3342W        W 3342  10.049   1.132   3.270  0.1417 -0.0074  0.0161
 3343W        W 3343   6.543   6.918   2.025  0.3041 -0.1584  0.0413
 3344W        W 3344   7.486   2.562   1.825  0.1603  0.0668  0.3902
 3345W        W 3345   0.239   0.121   4.770  0.0830 -0.0266  0.2276
 3346W        W 3346   3.232   7.248   0.498  0.0710 -0.1607  0.2357
 3347W        W 3347   4.171   4.083   0.109  0.0473 -0.0959  0.0486
 3348W        W 3348   2.500   1.565   8.344  0.2447  0.1491 -0.1139
 3349W        W 3349   9.641   7.798   0.911  0.0144 -0.1429 -0.1673
 3350W        W 3350   0.442   5.727   2.560 -0.1429 -0.1710  0.0772
 3351W        W 3351   2.045   0.626   6.970  0.0936 -0.0612 -0.0264
 3352W        W 3352   7.917   7.717   1.071  0.0320 -0.1739 -0.0632
 3353W        W 3353   9.082   5.854   4.144  0.1284  0.0427  0.3016
 3354W        W 3354   5.321   0.150   3.972  0.1546  0.3071  0.1753
 3355W        W 3355   2.496   6.630   0.557  0.3605  0.3729  0.0307
 3356W        W 3356  10.129   9.600   9.515 -0.0688  0.0558  0.1979
 3357W        W 3357   6.826   6.285   9.577 -0.1129  0.0030 -0.0831
 3358W        W 3358   0.524   0.674   5.069  0.0654  0.2408  0.1436
 3359W        W 3359   4.527   4.110   7.072  0.2950 -0.1608  0.0064
 3360W        W 3360   6.106   9.545   6.279  0.2787 -0.0615 -0.1930
 3361W        W 3361   0.030   3.437   6.684 -0.1234  0.3554  0.3006
 3362W        W 3362   3.807   3.607   6.831  0.0147  0.1466  0.0294
 3363W        W 3363   5.373   1.531   1.580 -0.0345 -0.2737  0.0044
 3364W        W 3364   1.564   1.804   8.841  0.0542 -0.1500 -0.0902
 3365W        W 3365   8.154   6.452   6.993 -0.0110 -0.1203  0.1160
 3366W        W 3366   9.289   6.964   2.502 -0.3734  0.1755  0.2004
 3367W        W 3367   3.371   1.949   3.613 -0.0924  0.1955 -0.1562
 3368W        W 3368   5.586   5.816   5.882  0.3247  0.0605  0.1839
 3369W        W 3369  10.333   0.937   6.501  0.0649  0.1059  0.0997
 3370W        W 3370   5.413   8.200   3.154  0.0491 -0.0864 -0.2440
 3371W        W 3371   0.430   3.559   1.166  0.0838  0.2287 -0.0445
 3372W        W 3372   1.408   4.045   6.731  0.0301  0.2558 -0.1945
 3373W        W 3373   7.235   5.550   1.098 -0.1214 -0.1884 -0.3710
 3374W        W 3374   1.974   6.383   3.818  0.1483  0.2297  0.0132
 3375W        W 3375   3.023   4.435   8.892  0.0122  0.0435 -0.0096
 3376W        W 3376   2.634   6.923   3.397  0.1426 -0.2004  0.0124
 3377W        W 3377   3.656   6.011   6.666 -0.0304  0.1342 -0.1054
 3378W        W 3378   6.638   0.657   2.837  0.0494 -0.0033  0.0990
 3379W        W 3379   8.161   3.455   7.620  0.2518 -0.1530 -0.0586
 3380W        W 3380   8.264   2.162   3.635 -0.2584  0.0735 -0.1949
 3381W        W 3381   1.750   8.909   3.137  0.2257  0.2483 -0.0245
 3382W        W 3382   7.082   8.881   7.623 -0.1981  0.0267 -0.0397
 3383W        W 3383   4.557   7.608   5.080 -0.1323 -0.2668  0.2046
 3384W        W 3384   5.256   4.306   5.961 -0.1100 -0.1698  0.0065
 3385W        W 3385   2.802   0.343   3.133 -0.0854  0.3942 -0.1709
 3386W        W 3386   9.200   4.972   6.531 -0.0794  0.5698 -0.0791
 3387W        W 3387   9.350   0.846   0.554  0.1000 -0.1269  0.3340
 3388W        W 3388   1.688   4.863   7.158 -0.2039 -0.2231 -0.0634
 3389W        W 3389   2.955   7.241   6.048  0.0930 -0.1918  0.1368
 3390W        W 3390  10.080   1.968   1.610 -0.0327  0.1002  0.0498
 3391W        W 3391   7.674   9.436   3.533  0.2320 -0.1343 -0.0462
 3392W        W 3392   2.003   0.841   4.009 -0.0887  0.0574  0.0174
 3393W        W 3393   7.720   1.127   8.501 -0.1840  0.0906  0.0899
 3394W        W 3394   9.968   8.123   0.797  0.0708 -0.1668 -0.2962
 3395W        W 3395   7.481   0.805   7.277 -0.1704 -0.3481 -0.0991
 3396W        W 3396   6.498   7.742   1.370 -0.2704  0.1828  0.2869
 3397W        W 3397   9.442   4.559   9.171 -0.1795  0.1689 -0.0408
 3398W        W 3398   9.871   8.317   1.818  0.0108 -0.0109 -0.2381
 3399W        W 3399   9.929   6.175  10.132 -0.0673 -0.0215 -0.1624
 3400W        W 3400   6.884   4.096   7.230  0.0682 -0.0744 -0.1716
 3401W        W 3401   4.030   9.441   6.423  0.3016 -0.0603 -0.3051
 3402W        W 3402   0.137   7.976   1.081 -0.1217  0.2729 -0.0783
 3403W        W 3403   9.878   6.423   2.135 -0.0261 -0.1633 -0.0802
 3404W        W 3404   2.646   2.348   8.147 -0.0869  0.0227  0.1323
 3405W        W 3405   0.575   7.155   3.671 -0.1718 -0.0504  0.0907
 3406W        W 3406   7.370   3.365   6.844  0.2324  0.0267 -0.1834
 3407W        W 3407   9.367   8.484   2.026 -0.0828  0.1228  0.1419
 3408W        W 3408   2.068   0.116   8.427  0.1604 -0.1454  0.0724
 3409W        W 3409   3.344   8.977   8.206 -0.1921 -0.2225 -0.1404
 3410W        W 3410   7.801   6.796   7.934  0.2954 -0.1351  0.2334
 3411W        W 3411   4.717   2.564   1.644 -0.0561  0.1313  0.2582
 3412W        W 3412   7.711   4.442   3.987 -0.1124 -0.1436  0.0305
 3413W        W 3413   3.792   1.295   5.161  0.0454  0.1352  0.1446
 3414W        W 3414   7.747   8.061   1.983 -0.2167 -0.0653  0.1699
 3415W        W 3415   7.306   5.350   7.126  0.1888 -0.0937  0.0205
 3416W        W 3416   4.019   0.535   7.085 -0.2681 -0.0815 -0.1196
 3417W        W 3417   7.769   8.736   6.577 -0.0252 -0.0001  0.1630
 3418W        W 3418   7.287  10.020   6.825  0.2964  0.0618 -0.0673
 3419W        W 3419  10.268   6.223   1.051 -0.0363 -0.0728 -0.1109
 3420W        W 3420   3.884   2.443   3.300  0.0026  0.3612 -0.1991
 3421W        W 3421   5.292   5.012   1.505 -0.1882  0.0977  0.2273
 3422W        W 3422   6.164   9.833  10.052  0.0165  0.0923  0.1428
 3423W        W 3423   9.305   0.996   4.775  0.0027 -0.2314 -0.2569
 3424W        W 3424   3.320   9.721   9.371 -0.3071 -0.0517 -0.0352
 3425W        W 3425   5.020   5.437   3.285  0.2221 -0.3508  0.3253
 3426W        W 3426   1.909   0.362   3.906 -0.0134  0.0289 -0.0263
 3427W        W 3427   5.659   3.113   6.554 -0.0829 -0.2292  0.1175
 3428W        W 3428   3.053   3.691   9.324 -0.0430 -0.1455  0.0281
 3429W        W 3429   3.654   2.083   2.099  0.0843  0.0910 -0.0167
 3430W        W 3430   6.171   7.673   3.685 -0.3675  0.0243 -0.0453
 3431W        W 3431   8.358   3.091   9.815 -0.2482 -0.1380  0.1224
 3432W        W 3432   0.987  10.029   7.506 -0.2305 -0.1178  0.2358
 3433W        W 3433   2.218   8.345  10.260 -0.0537  0.1536 -0.1587
 3434W        W 3434   6.373   0.059   8.033  0.4712  0.0593 -0.3899
 3435W        W 3435   4.640   9.745   4.150  0.4722  0.5188  0.1102
 3436W        W 3436   2.726   5.202   9.191 -0.1994 -0.0110  0.2898
 3437W        W 3437   7.706   6.367   8.182 -0.0213 -0.1725 -0.1317
 3438W        W 3438   4.364   7.468   8.175 -0.1993  0.3963 -0.1838
 3439W        W 3439   8.298   0.589   8.370  0.0082 -0.2492 -0.2128
 3440W        W 3440   1.770  10.276   9.073  0.1097  0.0550 -0.0480
 3441W        W 3441   2.485   9.543   3.084  0.0730 -0.1249 -0.0624
 3442W        W 3442   8.238   6.435   0.688  0.0841 -0.2543  0.3844
 3443W        W 3443   1.272   2.608   7.696 -0.0272  0.1355  0.0241
 3444W        W 3444   3.422  10.206   2.753 -0.0069  0.0192  0.1336
 3445W        W 3445   9.760   9.919   3.480 -0.2624  0.1532 -0.0402
 3446W        W 3446   6.071   8.788   3.345  0.1562 -0.0256 -0.4543
 3447W        W 3447   5.035   7.452   6.179 -0.2916 -0.0248  0.1904
 3448W        W 3448   3.518   0.884   9.995 -0.0279  0.1207 -0.1101
 3449W        W 3449   0.032   2.660   2.092  0.0449  0.2007  0.0287
 3450W        W 3450   8.447   6.267   9.708  0.0772  0.0826 -0.2847
 3451W        W 3451   7.420   7.731   3.251 -0.1771  0.1266 -0.2302
 3452W        W 3452   3.586   6.014   5.238  0.3180  0.0594 -0.0668
 3453W        W 3453   8.035   0.347   9.635 -0.3579  0.1344 -0.3792
 3454W        W 3454   7.460   5.217   6.687  0.1623  0.2424 -0.3073
 3455W        W 3455   1.839   7.995   5.271 -0.1831 -0.0809 -0.0307
 3456W        W 3456   1.494   3.592   7.958  0.1336  0.2033  0.0101
 3457W        W 3457   7.861   4.035   7.159  0.0854 -0.1500  0.2191
 3458W        W 3458   3.855   7.946   1.850  0.0099 -0.0250 -0.3233
 3459W        W 3459   4.115   8.966   8.819 -0.1128 -0.0176  0.5098
 3460W        W 3460   2.922   5.555   3.127  0.0221 -0.0700  0.3435
 3461W        W 3461   1.605   4.348   7.161  0.0732  0.0656  0.2486
 3462W        W 3462   6.123   2.797   0.779 -0.3142 -0.1955 -0.1154
 3463W        W 3463   5.633   2.597   2.675 -0.3808 -0.2713 -0.0590
 3464W        W 3464   4.791   4.523   3.664 -0.0850  0.2117  0.0229
 3465W        W 3465   4.195   1.616   3.511  0.0007 -0.1956 -0.0733
 3466W        W 3466   1.298   6.812   3.390  0.1343 -0.1974  0.0398
 3467W        W 3467   5.494   7.508   6.390  0.0857  0.1757  0.2047
 3468W        W 3468   3.045   2.643   3.523  0.1184  0.0242  0.1519
 3469W        W 3469   3.582   4.831   0.999  0.2305  0.3737 -0.0395
 3470W        W 3470   2.914   7.485   1.895 -0.1144 -0.2490  0.2459
 3471W        W 3471   4.322   2.454   4.625  0.1558 -0.1714  0.3286
 3472W        W 3472   3.029   9.355   9.192  0.1228 -0.0966  0.0235
 3473W        W 3473   3.265   9.145   9.854  0.0836 -0.0015 -0.1679
 3474W        W 3474   1.567   9.399   8.235 -0.1765  0.3317 -0.1627
 3475W        W 3475   2.434  10.093   8.416  0.1264  0.1651  0.0829
 3476W        W 3476   4.280   3.659  10.213 -0.1227  0.0651 -0.1801
 3477W        W 3477   4.605   7.747   2.519  0.2659  0.0500  0.5355
 3478W        W 3478   1.188   0.690   3.670  0.0870  0.1156  0.0838
 3479W        W 3479   3.551   9.013   4.416  0.0075 -0.0618 -0.0918
 3480W        W 3480   6.629   5.568   4.105 -0.1596  0.0947 -0.2558
 3481W        W 3481   5.845   1.710   7.812 -0.1073 -0.1639 -0.1710
 3482W        W 3482   2.521   3.139   4.769  0.3895  0.2301  0.3316
 3483W        W 3483   3.858   5.351   7.468 -0.0904  0.1609 -0.0059
 3484W        W 3484   8.988   0.362   5.205  0.2238  0.1961 -0.0590
 3485W        W 3485   6.118   6.100   4.630  0.2277  0.0677 -0.0278
 3486W        W 3486   3.191   3.109   3.102 -0.0892 -0.2767 -0.0598
 3487W        W 3487   4.448   8.572   8.666 -0.1736 -0.2159 -0.2409
 3488W        W 3488   0.586   9.207   0.439  0.0612  0.0234  0.3138
 3489W        W 3489   5.193   5.579   6.227  0.3593  0.0406 -0.0393
 3490W        W 3490   0.397   4.188   7.003  0.3216  0.1335 -0.0060
 3491W        W 3491   1.513   6.832   8.437 -0.0788 -0.2310  0.1981
 3492W        W 3492   1.207   2.986   0.991  0.1258  0.2127  0.3630
 3493W        W 3493   3.601   0.160   2.389  0.0088 -0.2244 -0.3209
 3494W        W 3494   2.000   4.184   6.913 -0.2382  0.1930 -0.1367
 3495W        W 3495   0.988   4.757   1.683 -0.1918  0.1342  0.1457
 3496W        W 3496   0.326  10.227   9.751 -0.1341 -0.1621 -0.1566
 3497W        W 3497   2.695   8.504   3.832 -0.1376  0.0633 -0.0194
 3498W        W 3498   5.242   6.204   1.620 -0.3069 -0.1375 -0.0929
 3499W        W 3499   7.762   7.616   6.630 -0.1148 -0.1043 -0.0092
 3500W        W 3500   2.022   4.883   4.083 -0.0501  0.1280  0.2079
 3501W        W 3501   1.518   4.000   9.703  0.0429  0.0372  0.1095
 3502W        W 3502   3.695   4.746   5.640 -0.1083  0.2402 -0.3276
 3503W        W 3503   2.764   0.225   7.584  0.0382  0.0390  0.0677
 3504W        W 3504   3.383   0.141   1.823  0.0482  0.1051  0.0253
 3505W        W 3505   9.002   7.441   8.475  0.1893  0.1026 -0.0434
 3506W        W 3506   6.509   1.148   7.770  0.0308 -0.0750  0.1051
 3507W        W 3507   3.653   6.733  10.075 -0.0004 -0.1751  0.0930
 3508W        W 3508   3.432   5.745   4.778 -0.0942 -0.1883  0.0619
 3509W        W 3509   2.083   0.206  10.338 -0.0742 -0.4528  0.0030
 3510W        W 3510   7.099   9.963   3.214  0.0345 -0.0337  0.1060
 3511W        W 3511   9.032   5.659   0.006  0.2872 -0.0090  0.2439
 3512W        W 3512   8.040   5.727   8.960 -0.3247  0.1000  0.1050
 3513W        W 3513   9.100   4.814   4.378 -0.1766 -0.0050 -0.2526
 3514W        W 3514   6.253   5.014   3.195  0.3408 -0.1217  0.0559
 3515W        W 3515   8.750   7.872   9.474 -0.4296 -0.1254  0.1810
 3516W        W 3516   4.760  10.018   9.347  0.0674  0.0320  0.1590
 3517W        W 3517   6.339   0.415   8.534  0.1444 -0.2930  0.0043
 3518W        W 3518   6.037   9.295   2.362  0.2048 -0.1267  0.0153
 3519W        W 3519   6.639   8.593   5.881  0.0143 -0.3113 -0.1823
 3520W        W 3520   9.568   6.784   8.552  0.0893 -0.1104  0.0914
 3521W        W 3521   4.960   2.168   3.356  0.2063  0.2282  0.1115
 3522W        W 3522   6.193   7.629   9.096  0.0297 -0.2313 -0.3391
 3523W        W 3523   1.937   9.022   4.731  0.1812  0.1784  0.2802
 3524W        W 3524   5.975   2.562   7.294  0.0430  0.0898  0.1242
 3525W        W 3525   9.705   6.884   7.887 -0.0289  0.0428 -0.1310
 3526W        W 3526   2.708   1.727   5.159  0.2587  0.1033 -0.1043
 3527W        W 3527   8.295   8.703   9.233 -0.3140  0.2499  0.3183
 3528W        W 3528   5.011   5.726   2.307  0.1127 -0.1718  0.2055
 3529W        W 3529   3.168   7.058   3.277  0.1485  0.1339  0.1700
 3530W        W 3530   8.530   9.834   8.654  0.0723  0.1835 -0.0525
 3531W        W 3531   7.747   9.116   0.886 -0.1123 -0.3115 -0.0118
 3532W        W 3532   7.967   6.598   4.283  0.1099  0.0229 -0.1335
 3533W        W 3533   3.753   9.873   7.084 -0.0984  0.0220 -0.0782
 3534W        W 3534   1.419   8.278   3.185 -0.0179  0.0664  0.0857
 3535W        W 3535   3.897   5.516   1.716  0.0313 -0.0160 -0.0529
 3536W        W 3536   5.360   3.549   5.746  0.1320 -0.0071  0.0886
 3537W        W 3537   2.062   3.455   5.189  0.1037 -0.0390  0.0964
 3538W        W 3538   8.138   2.884   8.473  0.0340  0.0371 -0.0845
 3539W        W 3539   1.531   3.047   9.352  0.0897  0.0147 -0.1167
 3540W        W 3540   0.021   7.363   9.187 -0.0260 -0.0118 -0.1636
 3541W        W 3541   1.004   9.793   8.977 -0.0676  0.1165  0.1066
 3542W        W 3542   6.371   7.406   4.291  0.3861  0.3314  0.0931
 3543W        W 3543   8.840   5.900   3.293  0.0838 -0.2811  0.0727
 3544W        W 3544   2.544   6.636   8.812 -0.1558 -0.0789 -0.1033
 3545W        W 3545   0.251   9.190   8.717 -0.0582  0.0639  0.1303
 3546W        W 3546   2.544   6.779  10.279  0.0656 -0.0557  0.1139
 3547W        W 3547   7.844   0.718   6.527 -0.3720  0.4302 -0.2780
 3548W        W 3548   0.977   9.452   0.064  0.1701  0.3045 -0.0836
 3549W        W 3549   6.432   0.515   2.373 -0.0267  0.2091 -0.0411
 3550W        W 3550   7.862   4.242   5.729  0.2169  0.0584  0.1228
 3551W        W 3551   0.446   2.028   4.687 -0.2258 -0.3031  0.0273
 3552W        W 3552   6.346   9.786   3.923  0.0448 -0.3940 -0.2208
 3553W        W 3553   8.455   2.557   7.346 -0.0608  0.1478  0.1013
 3554W        W 3554   4.884   4.268   9.157  0.3402  0.0299 -0.0896
 3555W        W 3555   7.245   9.278   4.715 -0.2386  0.0638 -0.0163
 3556W        W 3556   5.162   6.760   3.088 -0.0939  0.1356 -0.0252
 3557W        W 3557   3.102   1.149   4.476  0.4829  0.0445 -0.3277
 3558W        W 3558   1.069   3.684   7.651  0.2542  0.0900 -0.0393
 3559W        W 3559   4.070   2.021   1.847 -0.1164 -0.2073  0.2528
 3560W        W 3560   2.905   8.339  10.347 -0.5822  0.0293 -0.1773
 3561W        W 3561   5.227   9.409   1.099  0.1233  0.1596  0.6389
 3562W        W 3562   6.124   8.122   9.046 -0.2043 -0.2135 -0.0406
 3563W        W 3563   1.481   1.841   5.550 -0.1878  0.2522  0.0605
 3564W        W 3564   5.136   5.055   4.640 -0.1799 -0.1554  0.1359
 3565W        W 3565   3.980  10.276   5.013 -0.0411 -0.1141 -0.0418
 3566W        W 3566   0.245   9.242   6.265 -0.0379  0.1593 -0.2940
 3567W        W 3567   3.112   6.519   9.368  0.1591 -0.1633  0.1534
 3568W        W 3568   9.104   3.317   0.958 -0.1721  0.0214 -0.1702
 3569W        W 3569  10.022   3.157   0.279 -0.0157 -0.0903  0.2558
 3570W        W 3570   6.414   9.119   6.084  0.2559 -0.1664 -0.1219
 3571W        W 3571   1.945   1.596   1.224 -0.3023  0.2633 -0.1311
 3572W        W 3572   4.839   8.668   8.235  0.3026 -0.0881  0.0365
 3573W        W 3573   9.999   9.341   3.694 -0.0942  0.0275 -0.0523
 3574W        W 3574   9.598   7.693   5.806 -0.2901  0.4079 -0.0877
 3575W        W 3575  10.057   6.829   8.268 -0.2935 -0.2099  0.0925
 3576W        W 3576   3.335   1.137   3.275  0.0612 -0.0984 -0.0696
 3577W        W 3577   0.965   0.088   0.304 -0.1628 -0.3042  0.0837
 3578W        W 3578   2.956   9.811   2.318  0.0742 -0.1711  0.1963
 3579W        W 3579   4.318   6.294   5.924 -0.0062 -0.0710 -0.1884
 3580W        W 3580   9.914  10.197   0.040  0.0719  0.1950 -0.0646
 3581W        W 3581   5.964   4.157   3.292 -0.0927 -0.1465 -0.2131
 3582W        W 3582   0.023   4.796   2.344 -0.0557 -0.1505  0.0733
 3583W        W 3583   2.455   5.589  10.135 -0.3394  0.0442 -0.1960
 3584W        W 3584   9.257   2.500   7.521 -0.2268  0.1170  0.0596
 3585W        W 3585   9.979   8.889   3.846 -0.2740 -0.2692  0.0065
 3586W        W 3586   8.708   2.106   9.935  0.1133  0.0613  0.2482
 3587W        W 3587  10.192   9.315   6.036 -0.1430  0.2008  0.3377
 3588W        W 3588   5.766   8.632   5.807 -0.0285  0.1613 -0.1107
 3589W        W 3589   2.640   5.512   6.583  0.0786 -0.2767  0.4939
 3590W        W 3590   0.373   9.904   3.554 -0.1970 -0.3171  0.0270
 3591W        W 3591   3.047   6.645   8.762 -0.1409 -0.3396 -0.2629
 3592W        W 3592   4.448   1.082   1.175 -0.1314  0.1020 -0.1841
 3593W        W 3593   1.535   4.091   7.673 -0.0784  0.1572 -0.2343
 3594W        W 3594   8.973   3.691   3.568 -0.1847  0.2790  0.3697
 3595W        W 3595   9.521   4.984   8.058 -0.1282  0.1332  0.0879
 3596W        W 3596   2.469   1.347   9.628  0.1545  0.0865 -0.0759
 3597W        W 3597   2.317   0.900   4.991  0.0999  0.3442 -0.1103
 3598W        W 3598   3.471   4.624   9.414 -0.0312  0.0036  0.1801
 3599W        W 3599   7.998   2.980   6.882 -0.0900 -0.0179  0.0566
 3600W        W 3600   6.906   6.190   8.569  0.0344 -0.2279 -0.0623
 3601W        W 3601   6.992   1.268   2.175  0.1426 -0.3703  0.2481
 3602W        W 3602   1.795   6.431   4.280 -0.0488  0.2169  0.1706
 3603W        W 3603   6.842  10.227   9.187 -0.0412 -0.0758 -0.0947
 3604W        W 3604   9.103   1.517   8.300  0.3183 -0.1031  0.1461
 3605W        W 3605   0.901   2.994   7.111  0.0692  0.4805  0.5103
 3606W        W 3606   3.800   8.248   4.864 -0.1884  0.4643 -0.1331
 3607W        W 3607   1.561   5.906   2.646  0.3728  0.0550 -0.0412
 3608W        W 3608   9.600   8.522   5.569  0.3352 -0.2062  0.1373
 3609W        W 3609   3.945   4.767   4.760  0.1952 -0.2493 -0.0403
 3610W        W 3610   8.858  10.216   5.082  0.0110 -0.0696 -0.0195
 3611W        W 3611   8.238   0.163   2.300  0.2716  0.0372 -0.1009
 3612W        W 3612   8.608   2.384   3.306  0.1210  0.0259 -0.2555
 3613W        W 3613   4.249   1.767   4.017 -0.1140  0.0247  0.2371
 3614W        W 3614   2.797   7.601   5.149  0.3045  0.1135 -0.1703
 3615W        W 3615   7.022   2.303   9.099 -0.2863 -0.2657 -0.2528
 3616W        W 3616   5.089   9.787   5.088 -0.0539 -0.0559  0.1275
 3617W        W 3617   9.437   6.588   2.915 -0.0062 -0.2648  0.1046
 3618W        W 3618   3.993   4.466   9.521  0.1998 -0.0963 -0.0754
 3619W        W 3619   5.069   6.268   7.500 -0.4049 -0.0982 -0.0542
 3620W        W 3620   8.578   0.277   6.434 -0.0093  0.0327  0.0468
 3621W        W 3621   5.584   7.293   2.226 -0.2499  0.0318 -0.0502
 3622W        W 3622   0.220   1.331  10.268  0.2135  0.0490  0.4001
 3623W        W 3623   3.579   9.597   4.253 -0.2398  0.2716 -0.2683
 3624W        W 3624   8.607   5.031   4.563  0.1095  0.1330 -0.1957
 3625W        W 3625   6.065   2.767   6.860  0.0350 -0.0420  0.0512
 3626W        W 3626   3.115   1.710   0.459 -0.0952 -0.3687  0.1722
 3627W        W 3627   7.617   2.452   3.283 -0.0642 -0.1012 -0.1026
 3628W        W 3628   0.532   6.572   2.927 -0.1690 -0.1065  0.2029
 3629W        W 3629   7.427   1.913   5.739 -0.1613  0.1805  0.0805
 3630W        W 3630   6.636   2.441   6.035  0.0963  0.0788 -0.0762
 3631W        W 3631   8.910   2.243   6.676  0.0595 -0.0218 -0.0947
 3632W        W 3632   8.404   4.789   7.537  0.0711  0.1662  0.0061
 3633W        W 3633   7.129   1.790   2.227  0.1662  0.2731 -0.2186
 3634W        W 3634   3.215   6.924   9.590  0.1513 -0.0567 -0.2841
 3635W        W 3635   5.629   4.986  10.038 -0.1639 -0.1761 -0.2297
 3636W        W 3636   2.060   1.232   5.358  0.3676  0.1064 -0.2195
 3637W        W 3637   9.580   0.422   0.385 -0.1372 -0.1844  0.0955
 3638W        W 3638   0.390   2.890   7.356  0.0765  0.1475 -0.0675
 3639W        W 3639   5.729   1.742   1.887 -0.0078  0.0386  0.1368
 3640W        W 3640   7.772   3.222   1.635 -0.1148  0.1381 -0.1762
 3641W        W 3641   7.365   3.263  10.091 -0.1142  0.2482  0.1451
 3642W        W 3642   6.830   4.993   7.131 -0.0466  0.2182 -0.1960
 3643W        W 3643   7.350   3.289   1.324 -0.3283 -0.0784 -0.3823
 3644W        W 3644   6.112   9.374  10.230  0.4180 -0.1235 -0.0927
 3645W        W 3645   8.321   6.848   7.473  0.1624  0.2766 -0.1439
 3646W        W 3646   1.946   7.157   9.682  0.0141 -0.0231 -0.1278
 3647W        W 3647   7.004   4.185   2.908  0.0108  0.0194  0.0395
 3648W        W 3648   3.076   0.132   4.598  0.0724 -0.1249 -0.0702
 3649W        W 3649   8.205   6.160   8.814  0.0106  0.0593 -0.1643
 3650W        W 3650   7.108   4.341   0.569  0.1828 -0.0350 -0.1230
 3651W        W 3651   0.707   7.748   4.408 -0.0348 -0.1185 -0.0023
 3652W        W 3652   7.809   2.340   0.483 -0.1208 -0.2286  0.0224
 3653W        W 3653   4.010   5.252   1.030  0.1062 -0.0699  0.2973
 3654W        W 3654   9.187   3.994   4.475 -0.1662  0.0171 -0.1848
 3655W        W 3655   9.026   2.472   6.023 -0.0141  0.0514 -0.0419
 3656W        W 3656   7.948   2.158   0.935  0.0804  0.1227 -0.1371
 3657W        W 3657   4.821   8.085   0.206  0.1103 -0.0495  0.1994
 3658W        W 3658   0.967   5.306   3.060 -0.1520 -0.1299  0.0772
 3659W        W 3659   5.415   5.166   2.896  0.0195 -0.2117  0.0247
 3660W        W 3660   6.713   2.019   9.345 -0.0402 -0.3575 -0.3495
 3661W        W 3661   0.430   1.463   9.832  0.1092  0.0051 -0.0954
 3662W        W 3662   5.689   1.172   7.811 -0.0570 -0.1212 -0.1846
 3663W        W 3663   3.407   3.683   0.625 -0.0006  0.2158 -0.1109
 3664W        W 3664   6.106   2.337   5.061 -0.1604  0.2480 -0.1188
 3665W        W 3665   7.038   1.527   8.006 -0.0353  0.0306 -0.0090
 3666W        W 3666   9.416   0.578   7.167  0.3368  0.3890  0.0531
 3667W        W 3667   1.086  10.060   4.579 -0.1062 -0.0708 -0.0574
 3668W        W 3668  10.153   2.613   3.716 -0.1931  0.0075 -0.0065
 3669W        W 3669   1.470   6.659   0.666  0.0342 -0.4987 -0.1212
 3670W        W 3670   5.968   1.267   3.535 -0.0070  0.0813  0.0771
 3671W        W 3671   4.615   1.422   1.532  0.0958 -0.2710  0.1611
 3672W        W 3672   1.597   1.252   7.813 -0.1229  0.2864  0.4280
 3673W        W 3673   8.509   7.954   0.103  0.3214  0.0705 -0.0790
 3674W        W 3674   1.461   9.896   5.905  0.0962 -0.1550 -0.0257
 3675W        W 3675   4.120   8.083   0.714  0.3015  0.0425  0.0589
 3676W        W 3676   4.741   3.678   0.013  0.0549 -0.3925  0.1085
 3677W        W 3677   1.078   5.186   0.171 -0.1232  0.2292 -0.2445
 3678W        W 3678   2.921   1.482   4.794  0.2067  0.3647 -0.2607
 3679W        W 3679   2.097   2.561   4.239 -0.1399 -0.2579  0.0508
 3680W        W 3680  10.205   2.759   0.575  0.1534 -0.1492 -0.3646
 3681W        W 3681   2.593   4.414   2.375 -0.0204  0.2059  0.1440
 3682W        W 3682   1.603   6.751   6.197  0.1345 -0.0584 -0.2301
 3683W        W 3683   8.755   2.870   0.830 -0.0583 -0.1963  0.4735
 3684W        W 3684   1.874   0.325   5.519  0.0293  0.2228 -0.1331
 3685W        W 3685   9.660   1.495   2.962  0.2813  0.0493 -0.0322
 3686W        W 3686   1.452   0.868   9.347 -0.0225 -0.0686 -0.3554
 3687W        W 3687   1.742   7.389   2.898 -0.2179 -0.2025 -0.2906
 3688W        W 3688   6.553   8.906   3.423  0.3117  0.2319 -0.1671
 3689W        W 3689   8.889   7.183   4.334  0.1224 -0.4383  0.3059
 3690W        W 3690   1.275   8.489   0.104  0.2205 -0.1364 -0.2536
 3691W        W 3691   9.701   1.829   9.101 -0.0379 -0.0994 -0.1907
 3692W        W 3692   3.436   8.541   7.475 -0.0311 -0.0136  0.1682
 3693W        W 3693   2.267   6.304   1.864 -0.0333 -0.0077  0.2869
 3694W        W 3694   2.304   5.350   0.212 -0.0723 -0.2388 -0.3212
 3695W        W 3695   2.696   3.683  10.163  0.1127  0.2385  0.2409
 3696W        W 3696   8.863   8.052   6.003 -0.2243  0.1116  0.1516
 3697W        W 3697   3.688   5.175   4.825  0.0083  0.1202 -0.1819
 3698W        W 3698   3.197   7.765   3.954  0.2279 -0.1423 -0.2973
 3699W        W 3699   8.236   9.279   6.962 -0.2176 -0.3596  0.0009
 3700W        W 3700   2.032   9.617   8.438 -0.1016  0.0852  0.2019
 3701W        W 3701   1.097   1.403   9.210  0.2849 -0.0887  0.4204
 3702W        W 3702   3.170   8.738  10.261 -0.1818 -0.0460  0.1054
 3703W        W 3703   2.093   5.967   6.127  0.0297  0.1041 -0.0651
 3704W        W 3704   3.665   5.434   8.807  0.2859 -0.1926 -0.0415
 3705W        W 3705   3.378   0.809   5.719  0.1838  0.1257 -0.1563
 3706W        W 3706   2.948   1.541   7.974  0.2005  0.0775 -0.1032
 3707W        W 3707  10.010   2.699   4.460 -0.0273 -0.1667 -0.2388
 3708W        W 3708   8.573   5.795   7.354  0.3051 -0.1555 -0.1534
 3709W        W 3709   3.967   8.119  10.097  0.0314 -0.0183 -0.0528
 3710W        W 3710   2.352   4.770   4.528  0.3910  0.2764 -0.0323
 3711W        W 3711   6.356   9.958   7.223  0.3110  0.2397  0.0775
 3712W        W 3712   1.625   0.454   4.318 -0.1080 -0.1127  0.2995
 3713W        W 3713   3.486   4.331   8.759  0.0338 -0.0674  0.1903
 3714W        W 3714   8.756   2.453   1.887 -0.3127 -0.0819  0.1327
 3715W        W 3715   2.947   8.118   6.423 -0.0104  0.2866  0.3938
 3716W        W 3716   5.173   3.744   4.699 -0.0987  0.1520 -0.1441
 3717W        W 3717   9.997   7.587   6.057 -0.0110 -0.1009  0.0127
 3718W        W 3718   3.231   0.436   0.960 -0.1285  0.1318 -0.2174
 3719W        W 3719   8.000   4.249   5.152  0.2437 -0.0045 -0.3031
 3720W        W 3720   2.618   2.970   3.332 -0.1687  0.0418  0.1189
 3721W        W 3721   1.938   4.360   5.912 -0.0093 -0.1684 -0.0636
 3722W        W 3722   4.748   5.475   5.766  0.2860  0.2018 -0.2990
 3723W        W 3723   5.804   3.910   7.114  0.2548 -0.3186  0.1703
 3724W        W 3724   0.499   9.133   6.674 -0.1311  0.0163 -0.2292
 3725W        W 3725   0.510   1.523   1.135  0.4137 -0.1157  0.0776
 3726W        W 3726   4.409   2.608  10.098  0.1253 -0.0139 -0.0137
 3727W        W 3727   6.402   7.412   2.755 -0.0045  0.2238 -0.1119
 3728W        W 3728   1.476   5.349   1.192 -0.2548  0.0953  0.1013
 3729W        W 3729   3.305   2.815   1.651 -0.1074 -0.2028  0.0306
 3730W        W 3730   0.787   1.679  10.288  0.0413  0.1098 -0.1408
 3731W        W 3731  10.314   0.021   0.293 -0.0040 -0.0903 -0.1137
 3732W        W 3732   3.711   8.402   3.478 -0.0378 -0.1912 -0.1649
 3733W        W 3733   8.389   2.845   9.319  0.1419 -0.0214  0.1693
 3734W        W 3734   4.949   9.996   8.002 -0.0155  0.1522 -0.1050
 3735W        W 3735   9.505   8.281   0.285  0.0763  0.0964 -0.0002
 3736W        W 3736   9.137   1.674   1.764  0.2267  0.1669 -0.3071
 3737W        W 3737   3.459   3.529   2.904 -0.2740  0.2483  0.2445
 3738W        W 3738   2.433   8.609   1.326  0.3627 -0.1767 -0.4595
 3739W        W 3739   9.786   4.070   0.521  0.1772 -0.1908 -0.1319
 3740W        W 3740   1.805   4.156   1.213  0.0190 -0.1088  0.1972
 3741W        W 3741   2.833   0.999   0.171  0.0316  0.2827  0.0968
 3742W        W 3742   8.656   9.084   3.192  0.1087 -0.2179 -0.2298
 3743W        W 3743   8.752   9.257   3.896  0.1252  0.3783 -0.0483
 3744W        W 3744   2.045   3.426   7.938 -0.3685  0.1276  0.0090
 3745W        W 3745   9.277   4.161   1.866  0.0609  0.0332 -0.2855
 3746W        W 3746   0.592   1.930   4.127 -0.1726  0.1444  0.3697
 3747W        W 3747   5.119   2.041   4.299  0.0418  0.0316  0.0948
 3748W        W 3748   5.816   6.497   4.538  0.4698 -0.2447  0.2011
 3749W        W 3749   1.711   2.859   2.959  0.0730 -0.0081 -0.1715
 3750W        W 3750   2.199   7.016   0.310 -0.2278  0.0858  0.0457
 3751W        W 3751   7.381   7.173   6.643 -0.1027 -0.0743  0.2245
 3752W        W 3752   9.784   6.668   5.850 -0.1019  0.1330  0.0712
 3753W        W 3753   8.114   2.176   4.121  0.0940  0.0108  0.4111
 3754W        W 3754   5.660  10.172   8.354  0.1913  0.0928 -0.0151
 3755W        W 3755   0.366   7.577   0.950 -0.1306  0.0557 -0.1534
 3756W        W 3756   1.163   0.517   4.143 -0.1322 -0.0171 -0.1233
 3757W        W 3757   6.933   9.391   7.689 -0.0224  0.0433 -0.0890
 3758W        W 3758   9.851   3.348   6.855 -0.4921 -0.0297 -0.0261
 3759W        W 3759   3.101   7.026   0.917 -0.0011 -0.0175  0.1741
 3760W        W 3760  10.348   5.159   3.517 -0.2837  0.1125 -0.1590
 3761W        W 3761   1.760   0.627   6.504 -0.0508  0.1398 -0.0394
 3762W        W 3762   4.775   0.115   7.316  0.0953 -0.3262  0.0958
 3763W        W 3763   3.819   1.761   9.238 -0.4813  0.1156 -0.2379
 3764W        W 3764   6.466   0.128   3.946 -0.0884  0.3359  0.4822
 3765W        W 3765   9.705   8.948   9.387 -0.0081  0.2040 -0.2203
 3766W        W 3766  10.309   9.675   5.344 -0.2236 -0.0879  0.1061
 3767W        W 3767  10.265   0.115   9.631 -0.1377  0.0664 -0.1741
 3768W        W 3768   4.637   2.582   2.538  0.0263  0.1240  0.4389
 3769W        W 3769   0.223   5.634   9.659 -0.3299  0.0314 -0.2912
 3770W        W 3770   0.003   4.400   6.118  0.0359  0.2486 -0.0264
 3771W        W 3771   5.227   2.531   6.978  0.2512  0.0862 -0.0267
 3772W        W 3772   9.646   4.114   4.668 -0.0435 -0.0523  0.0074
 3773W        W 3773   4.453   0.662   5.705  0.0987 -0.1974  0.2460
 3774W        W 3774   2.455   7.733   2.239 -0.0193  0.1237 -0.2519
 3775W        W 3775   0.216   2.635   7.851 -0.1604 -0.1098  0.0086
 3776W        W 3776   5.745   5.947   2.504 -0.0360  0.1460 -0.2334
 3777W        W 3777   6.200   6.690   9.126  0.1001  0.0512  0.0320
 3778W        W 3778   2.595   1.367   6.132  0.1221  0.0041 -0.0767
 3779W        W 3779   3.989   7.085   2.421  0.3129  0.0363  0.1383
 3780W        W 3780   2.542   3.667   1.151  0.5324 -0.2053  0.4423
 3781W        W 3781   0.126   4.081   6.590  0.0365 -0.2517  0.0643
 3782W        W 3782   7.854   5.871   4.305 -0.0148  0.1244  0.3719
 3783W        W 3783   3.410   2.990   3.780  0.1212  0.2209  0.0391
 3784W        W 3784   2.418   8.310   0.764 -0.0266 -0.2006  0.1832
 3785W        W 3785   8.249   4.026   4.426  0.1049 -0.0399  0.3976
 3786W        W 3786   6.498   7.321   8.599  0.0037  0.0955 -0.1921
 3787W        W 3787   4.765   7.459   9.902 -0.0688  0.1595 -0.0551
 3788W        W 3788   2.888   6.402   6.409 -0.0477  0.0711 -0.0024
 3789W        W 3789   7.323   8.134   5.325 -0.1932 -0.1248  0.0081
 3790W        W 3790   4.797   0.790   7.813 -0.0567  0.0378  0.0866
 3791W        W 3791   2.271   7.960   1.662 -0.4987  0.0211  0.2402
 3792W        W 3792   4.738   2.604   4.860  0.0550 -0.1653 -0.0707
 3793W        W 3793   7.432   3.079   3.500 -0.3690 -0.1422 -0.2458
 3794W        W 3794   9.002   0.220   8.500  0.0970 -0.1076 -0.1748
 3795W        W 3795   3.425   9.351   5.666 -0.2030 -0.0484  0.2965
 3796W        W 3796  10.210   1.516   3.704 -0.1571 -0.0773 -0.3451
 3797W        W 3797   2.701   6.238   0.284  0.1871 -0.1167  0.1263
 3798W        W 3798   2.457   2.054   1.930 -0.0888  0.0684 -0.2247
 3799W        W 3799   7.888   2.625   9.236 -0.0960 -0.1407  0.0639
 3800W        W 3800   0.514   8.566   3.901  0.1831 -0.1127  0.1390
 3801W        W 3801   7.302   9.973   1.797 -0.1995 -0.0691 -0.0515
 3802W        W 3802   0.086   6.537   4.011 -0.0697 -0.2598  0.0767
 3803W        W 3803   8.960   2.374   7.131 -0.0226 -0.1114  0.1801
 3804W        W 3804   8.244   7.438   6.189 -0.0620  0.0699  0.0527
 3805W        W 3805   2.843   3.117   1.797 -0.0964  0.2561 -0.0110
 3806W        W 3806   7.395   7.329   2.939 -0.1832  0.0575 -0.1621
 3807W        W 3807   3.893   1.996   6.283  0.0873  0.0499  0.1436
 3808W        W 3808   9.590   4.107   1.020 -0.2542 -0.0429  0.0341
 3809W        W 3809   3.936   2.157   4.762 -0.1146 -0.0396  0.1089
 3810W        W 3810   4.522   8.849   0.510  0.2360  0.2358  0.0393
 3811W        W 3811  10.026   2.867   5.425 -0.2568 -0.1196 -0.1768
 3812W        W 3812   9.489   7.221   8.211 -0.0073 -0.1581 -0.0449
 3813W        W 3813   2.915   8.756   9.816  0.2446 -0.1819 -0.1495
 3814W        W 3814   7.396   7.845   0.902  0.3005 -0.0540  0.0784
 3815W        W 3815   1.963   8.165   7.636 -0.0872  0.1893  0.1447
 3816W        W 3816   3.998   3.023   8.616  0.1297  0.1156  0.2347
 3817W        W 3817   4.169   4.196   9.948 -0.0016 -0.1006  0.2041
 3818W        W 3818   3.417   4.654   7.792  0.0000 -0.0847  0.0206
 3819W        W 3819   4.857  10.191   6.129  0.1797 -0.2544  0.0187
 3820W        W 3820   6.494   8.119   5.853 -0.1554  0.0639 -0.2947
 3821W        W 3821   3.149   8.833   5.860 -0.2067  0.0624  0.2228
 3822W        W 3822   7.770   7.071   4.503 -0.1650  0.1292  0.0045
 3823W        W 3823   7.669   5.682   7.979 -0.0561  0.0266 -0.1776
 3824W        W 3824   6.499   8.680   1.520 -0.1352  0.0912  0.1542
 3825W        W 3825   8.007   0.285   4.772  0.4086 -0.1906  0.1572
 3826W        W 3826   0.335   9.146   5.785  0.0470  0.4825  0.1637
 3827W        W 3827   6.207   1.834   9.344  0.0292  0.1921 -0.0389
 3828W        W 3828   7.985   9.527   6.282 -0.0226  0.1675 -0.2189
 3829W        W 3829   9.364   9.589   3.562 -0.2921  0.0740  0.2186
 3830W        W 3830   4.161   5.421   0.573  0.0649 -0.0746 -0.2254
 3831W        W 3831   7.267   7.615   3.806 -0.0370  0.0345 -0.1863
 3832W        W 3832   1.214   1.337   5.258 -0.0523  0.2917  0.1884
 3833W        W 3833   2.243   1.606   3.663 -0.0867 -0.0250  0.0894
 3834W        W 3834   1.754   2.843   1.843  0.1130 -0.0962  0.3108
 3835W        W 3835   6.606   2.432   2.114  0.3719 -0.2003  0.0397
 3836W        W 3836   7.616   1.473   6.311 -0.1040 -0.1701 -0.0463
 3837W        W 3837   5.156   3.793   9.192  0.2832 -0.5184 -0.0336
 3838W        W 3838   3.671   8.156   1.411 -0.2198  0.2640  0.2430
 3839W        W 3839   1.377   3.561   3.562 -0.0352 -0.0564 -0.1522
 3840W        W 3840   4.794   7.376   3.906 -0.2935  0.1071  0.2702
 3841W        W 3841   9.359   3.611  10.221  0.2154 -0.1373  0.0508
 3842W        W 3842   6.796   3.389   1.000 -0.0544  0.0369 -0.0082
 3843W        W 3843   8.708   8.602   3.360  0.1769  0.0833 -0.0100
 3844W        W 3844   0.255   3.587   7.452  0.1100  0.4045  0.0086
 3845W        W 3845   3.257   5.453   6.703  0.1013 -0.1700  0.1877
 3846W        W 3846   3.731   7.255   9.315  0.3797  0.2266 -0.0522
 3847W        W 3847   3.206   5.622   5.222 -0.1185  0.1917  0.4893
 3848W        W 3848   4.598   4.036  10.074  0.0874  0.0902 -0.0091
 3849W        W 3849   2.823   4.048   4.579  0.0678 -0.1623 -0.2250
 3850W        W 3850   7.600   6.109   7.155  0.4162  0.1010  0.1052
 3851W        W 3851   8.951   2.833   4.496  0.1369  0.3200 -0.1179
 3852W        W 3852   2.868   2.606   5.298  0.3393 -0.2447  0.0031
 3853W        W 3853   1.251   1.040   8.832 -0.1157 -0.3406 -0.2691
 3854W        W 3854   0.548   5.576   1.929 -0.1800 -0.1431 -0.1394
 3855W        W 3855   1.862   3.643   2.366  0.0320 -0.2106  0.1949
 3856W        W 3856   7.666   4.902   0.281 -0.2148  0.1826  0.1100
 3857W        W 3857   9.619   1.262   4.526 -0.1127 -0.0300 -0.0437
 3858W        W 3858   2.971   1.210   5.770  0.1651  0.1440 -0.1321
 3859W        W 3859   8.841   4.236   1.504  0.0769 -0.0495 -0.0827
 3860W        W 3860   8.213   4.899   8.948  0.2710 -0.0750 -0.3038
 3861W        W 3861   8.499   8.719   1.797 -0.2852  0.2744  0.0173
 3862W        W 3862   9.215   2.266   3.494  0.1655 -0.0283 -0.1758
 3863W        W 3863   9.791   2.087   6.990  0.2180 -0.1539  0.0559
 3864W        W 3864   2.485   5.797   3.231  0.0136 -0.0094 -0.2305
 3865W        W 3865   8.887   2.809   6.770 -0.1752 -0.0016 -0.0855
 3866W        W 3866   7.075   4.849   6.479 -0.1225 -0.0488 -0.2216
 3867W        W 3867   3.049   0.718  10.026  0.0870  0.0712 -0.1886
 3868W        W 3868   7.368   9.488   7.974 -0.0091 -0.0334  0.0192
 3869W        W 3869   9.388   0.008   5.182  0.1253 -0.1258 -0.3445
 3870W        W 3870   5.771   5.534   9.237 -0.0198 -0.1365 -0.0610
 3871W        W 3871   8.971  10.117   2.081  0.0191 -0.3491 -0.0707
 3872W        W 3872   6.836   2.861   3.497  0.0121  0.3698 -0.3607
 3873W        W 3873   3.938   0.637   7.670  0.2321  0.0139 -0.2433
 3874W        W 3874  10.029   4.243   6.476 -0.1833  0.1606  0.0218
 3875W        W 3875   9.687   3.638   0.242 -0.0448  0.0449 -0.0816
 3876W        W 3876   0.186   9.906   6.881  0.1341 -0.0656 -0.1981
 3877W        W 3877   6.223   0.862   3.747 -0.0360  0.3005  0.1096
 3878W        W 3878   1.882   7.419   5.283  0.3333 -0.3498 -0.0969
 3879W        W 3879   2.570   0.658   2.068  0.1301 -0.0335  0.0639
 3880W        W 3880   9.293   7.855   3.596  0.1348  0.1037  0.1150
 3881W        W 3881   6.559   0.161   0.338 -0.0068  0.0883  0.0134
 3882W        W 3882   4.832   1.089   7.399  0.3120 -0.1318  0.0347
 3883W        W 3883   5.164   0.545   4.389 -0.0642 -0.0112  0.3201
 3884W        W 3884   7.131   3.714   2.538  0.4093  0.0176 -0.0318
 3885W        W 3885   6.548   2.060   0.512  0.3704 -0.0358 -0.1422
 3886W        W 3886   5.643   4.619   9.712 -0.1255  0.3258  0.0840
 3887W        W 3887   1.688   8.697   6.033  0.1391  0.0896 -0.0314
 3888W        W 3888   7.795   6.155   9.059 -0.1949 -0.0240  0.1628
 3889W        W 3889   1.877   7.490   5.817  0.1710 -0.4295 -0.2303
 3890W        W 3890   3.476   6.298   2.099  0.0011 -0.0198  0.0056
 3891W        W 3891   3.062   8.785   4.053  0.1309  0.0787  0.0633
 3892W        W 3892   9.297   1.150   2.906  0.0121  0.1625 -0.2665
 3893W        W 3893   1.273   0.694   0.749  0.4157 -0.1607 -0.0821
 3894W        W 3894   7.092   7.281   7.401 -0.2071 -0.0887 -0.2071
 3895W        W 3895   2.234   7.857   0.616 -0.0394  0.1549 -0.3037
 3896W        W 3896   7.714  10.017   7.406  0.0547 -0.0936  0.1043
 3897W        W 3897   1.589   7.192   7.702  0.2789  0.0557  0.3473
 3898W        W 3898   7.963   6.050   7.887  0.3163 -0.0426 -0.1678
 3899W        W 3899   6.044   8.010   7.445  0.1945 -0.0697  0.1065
 3900W        W 3900   4.716   1.301   7.801 -0.0038 -0.0266 -0.0787
 3901W        W 3901   8.875   3.598   4.044  0.4558 -0.0080  0.2873
 3902W        W 3902   3.938   9.963   9.890  0.0686  0.1671 -0.0716
 3903W        W 3903   2.813   5.810   1.620  0.2139 -0.0080 -0.2711
 3904W        W 3904   6.862   0.844   1.892  0.0606  0.0020  0.0780
 3905W        W 3905   5.158   1.308   5.461 -0.0790 -0.2673 -0.4205
 3906W        W 3906   4.525   0.656   5.010  0.3202 -0.2591 -0.0554
 3907W        W 3907   8.327   2.291   2.000  0.1157 -0.0651 -0.2260
 3908W        W 3908   7.061   0.422   8.071  0.1920  0.1319 -0.1760
 3909W        W 3909   6.272   2.566   8.192 -0.0046 -0.1131  0.0107
 3910W        W 3910   2.853  10.004   6.655  0.2084  0.0657 -0.1520
 3911W        W 3911   7.028   4.020   1.709 -0.1856 -0.2075 -0.1063
 3912W        W 3912   2.101   2.440   1.176  0.0412 -0.0703  0.1178
 3913W        W 3913   7.539   0.659   5.869  0.2275  0.0983  0.0379
 3914W        W 3914   2.288   2.002   1.058  0.0347  0.3419 -0.3066
 3915W        W 3915   2.041   9.392   6.483  0.0295 -0.5112 -0.0534
 3916W        W 3916   0.988   5.717   2.557  0.0750 -0.2302 -0.1139
 3917W        W 3917   3.585   0.959   0.628  0.2875  0.0980  0.1520
 3918W        W 3918   1.320   9.528   9.993  0.1014  0.0032  0.1531
 3919W        W 3919   2.758   8.777   0.290  0.0697  0.0407 -0.2038
 3920W        W 3920   4.373   4.211   2.073 -0.5794  0.1188  0.2370
 3921W        W 3921   6.192   2.728   8.964 -0.1227 -0.1433  0.2153
 3922W        W 3922   8.309   6.323   1.594  0.1560  0.1623  0.1042
 3923W        W 3923   7.290   4.791   6.958 -0.0242  0.0417  0.3768
 3924W        W 3924   2.005   8.697   0.138  0.0486 -0.1847  0.0665
 3925W        W 3925   8.134   0.366   5.740  0.1050 -0.2834 -0.0053
 3926W        W 3926   2.520   0.131   5.379  0.1363 -0.1940  0.2215
 3927W        W 3927   5.262   6.932   7.746 -0.0964 -0.0628 -0.1271
 3928W        W 3928   2.281   4.102   1.014 -0.0528 -0.0007  0.0363
 3929W        W 3929   4.199   1.219   0.376 -0.1884 -0.0398 -0.0042
 3930W        W 3930   9.488   8.230   8.210  0.0577  0.1247  0.2136
 3931W        W 3931   1.327   1.128   3.256  0.4105 -0.0833  0.2120
 3932W        W 3932   0.033   8.439   0.831 -0.3850  0.0145 -0.0372
 3933W        W 3933   0.548   1.164   8.613  0.2709 -0.0131 -0.2609
 3934W        W 3934   2.795   4.214   6.585 -0.1056  0.2196  0.0155
 3935W        W 3935   8.322   7.199   1.706  0.5623 -0.1463 -0.0331
 3936W        W 3936   3.311   8.203   6.730  0.1846 -0.4486 -0.1954
 3937W        W 3937   0.553   8.334   1.804  0.0327 -0.2473  0.0905
 3938W        W 3938   9.733   4.797   8.775 -0.1479  0.0611  0.2047
 3939W        W 3939   1.324   9.656   0.787  0.1773  0.1607 -0.1157
 3940W        W 3940   5.283   3.190   9.843  0.0188 -0.1715  0.1180
 3941W        W 3941   3.554   7.390   0.906 -0.1877  0.1115 -0.4986
 3942W        W 3942   0.180   2.552   0.263  0.0251 -0.3503 -0.0339
 3943W        W 3943   7.811   2.235   2.715 -0.1882 -0.2424 -0.2720
 3944W        W 3944   1.071   8.908   4.727 -0.2563  0.1003  0.1638
 3945W        W 3945   0.808   9.193   8.738  0.0134  0.0633 -0.0863
 3946W        W 3946   2.039   5.514   9.867  0.1924  0.1022  0.1017
 3947W        W 3947   1.654   7.256   4.865  0.1471 -0.2519  0.0451
 3948W        W 3948   6.238   1.783   6.419 -0.0849  0.1661 -0.2589
 3949W        W 3949   1.848   5.505   2.583  0.2052  0.2287  0.0775
 3950W        W 3950   2.025   1.710   4.429 -0.1683  0.0434  0.0189
 3951W        W 3951   1.929   2.498   9.013  0.1567  0.0121 -0.0842
 3952W        W 3952   9.049   9.966   5.500  0.0163 -0.0879  0.0420
 3953W        W 3953   9.598   6.881   0.369 -0.0117  0.1016 -0.1856
 3954W        W 3954   7.570   9.695   4.670  0.1745 -0.0527 -0.1215
 3955W        W 3955   0.626   7.288   4.507 -0.0078 -0.1912 -0.4174
 3956W        W 3956   7.973   3.641   3.231  0.1186  0.0250 -0.0444
 3957W        W 3957   0.747   9.037   6.240  0.3823 -0.0311 -0.1552
 3958W        W 3958   3.875  10.109   3.044 -0.1418  0.0555  0.0799
 3959W        W 3959   1.002   8.144   9.452  0.1983  0.1257  0.5091
 3960W        W 3960   0.348   3.677   0.627 -0.0237  0.1060 -0.1510
 3961W        W 3961   8.290   6.440   7.928  0.0084 -0.3471 -0.1240
 3962W        W 3962   7.597   3.738   2.844  0.1271 -0.2799 -0.3421
 3963W        W 3963   0.925   1.017   1.835 -0.1333  0.1506  0.1340
 3964W        W 3964   1.530   6.576   0.141 -0.0928 -0.1946  0.1373
 3965W        W 3965   0.900   5.200   5.550  0.0654 -0.1287  0.0290
 3966W        W 3966   4.234   0.253   7.454  0.0992  0.0267  0.1923
 3967W        W 3967   1.127   8.703   3.056 -0.0033 -0.0527 -0.1025
 3968W        W 3968   2.579   5.564   0.655  0.0380  0.1792  0.1886
 3969W        W 3969   2.630   8.950   3.068  0.2413  0.1175 -0.2087
 3970W        W 3970   5.911   6.954   7.175  0.2890 -0.3551  0.1600
 3971W        W 3971   2.774   9.104   6.815  0.2525 -0.2702  0.2136
 3972W        W 3972   0.057   7.843   0.534  0.1928  0.2384  0.0394
 3973W        W 3973   2.075   6.815   4.162  0.3702 -0.0069 -0.1961
 3974W        W 3974   5.888   7.366   3.141 -0.2505 -0.1681 -0.0225
 3975W        W 3975   8.084   1.490   6.174  0.2184 -0.2646 -0.1070
 3976W        W 3976   1.023   1.836   4.458 -0.0047 -0.0126  0.1004
 3977W        W 3977  10.191   0.887   0.993  0.0670 -0.2251  0.0767
 3978W        W 3978   7.129   1.461   5.780  0.0228  0.0497 -0.1818
 3979W        W 3979   5.395   4.854   5.549  0.0059 -0.2968  0.0195
 3980W        W 3980   6.017   9.416   4.750  0.2508 -0.1223 -0.3852
 3981W        W 3981   7.880   1.468   7.161  0.0300 -0.1300 -0.0056
 3982W        W 3982   2.479   9.872   0.404  0.0478  0.0437  0.0759
 3983W        W 3983   8.234   6.661   3.767  0.0287  0.0354  0.0953
 3984W        W 3984   2.131   8.130   9.357  0.3084  0.1309  0.2433
 3985W        W 3985   1.210   9.357   4.545  0.0113  0.0715  0.3601
 3986W        W 3986   1.466   1.361   9.607  0.1157 -0.2283  0.1581
 3987W        W 3987   2.032   3.366   1.625 -0.1943  0.0106  0.1038
 3988W        W 3988   3.698   6.528   6.541 -0.3340  0.2658  0.0148
 3989W        W 3989   4.849   3.926   2.541 -0.1702  0.0415  0.1319
 3990W        W 3990   8.639   1.642   0.846 -0.0960 -0.2259 -0.2268
 3991W        W 3991   9.328   1.343   0.453 -0.0206 -0.1588 -0.0378
 3992W        W 3992   4.643   6.733   6.746 -0.0701 -0.0224 -0.1004
 3993W        W 3993   9.190   1.540   4.558  0.0676  0.1401  0.0484
 3994W        W 3994   6.468  10.100   9.589  0.1176  0.2001  0.0143
 3995W        W 3995   1.824   0.553   1.610  0.1918 -0.1010 -0.1850
 3996W        W 3996   8.611   5.257   5.793  0.0465 -0.0499 -0.4205
 3997W        W 3997   9.401   3.381   8.616  0.0568  0.3311 -0.1798
 3998W        W 3998   5.258   8.293   0.010 -0.0014  0.0279 -0.2070
 3999W        W 3999   7.534   8.914   4.016 -0.2906 -0.2624  0.1348
 4000W        W 4000   8.549   4.132   7.779 -0.1559 -0.1730  0.1008
 4001W        W 4001   3.387   9.415   7.937  0.0660  0.2123  0.1568
 4002W        W 4002   1.416   3.614   2.684 -0.3007 -0.0606 -0.2996
 4003W        W 4003   3.313   5.902   8.029  0.0804  0.3879 -0.1132
 4004W        W 4004   8.584   5.852   8.923  0.0113  0.1838 -0.0463
 4005W        W 4005   3.572   4.044   4.084 -0.0658 -0.0985  0.2778
 4006W        W 4006   6.400   3.710   8.899 -0.1544 -0.0671 -0.2133
 4007W        W 4007   8.853  10.340   7.236  0.0429  0.0236  0.1526
 4008W        W 4008   7.518   4.091   9.597  0.3542  0.5081 -0.1159
 4009W        W 4009   0.321   6.412   6.760 -0.0376 -0.2188 -0.1109
 4010W        W 4010   3.968   7.123   1.034  0.0228  0.1170  0.0672
 4011W        W 4011   4.810   3.914   5.108  0.1910  0.4240  0.0635
 4012W        W 4012   3.935   8.461   0.087 -0.1662 -0.2493  0.1639
 4013W        W 4013   8.998   6.119   5.138 -0.1668  0.2166 -0.2512
 4014W        W 4014   6.067   8.842   7.866 -0.4287  0.0246  0.1483
 4015W        W 4015   9.312   6.811   3.898 -0.0937  0.0767 -0.1074
 4016W        W 4016   3.027   7.892   4.395 -0.0234  0.4013 -0.1895
 4017W        W 4017   5.281   8.877   0.025 -0.3699  0.1177 -0.3467
 4018W        W 4018  10.116   2.273   0.954 -0.3252  0.2623  0.0583
 4019W        W 4019   9.414   6.451   6.473 -0.0214  0.2445  0.1853
 4020W        W 4020   0.234   2.134   3.835 -0.5013 -0.3549  0.1512
 4021W        W 4021   3.796   2.671   1.832 -0.1923  0.0023  0.0422
 4022W        W 4022   4.268   9.222   9.933  0.0346 -0.1306 -0.2020
 4023W        W 4023   8.602   0.315   4.876  0.1151  0.0888  0.1975
 4024W        W 4024   2.645   2.167   4.963 -0.1635 -0.1573  0.0558
 4025W        W 4025   5.000   2.401   9.548  0.0436  0.2282 -0.2591
 4026W        W 4026   1.342   1.605   9.986 -0.1747  0.0501  0.0175
 4027W        W 4027   4.546   5.049   5.929  0.1844 -0.0260 -0.1488
 4028W        W 4028   6.147   1.338   3.053  0.1981  0.1107 -0.4039
 4029W        W 4029   3.399   0.357   6.969  0.1248 -0.2292 -0.0195
 4030W        W 4030   3.018   2.044   8.876  0.1064  0.1710 -0.1301
 4031W        W 4031   6.654   5.648   0.039 -0.0554 -0.0221 -0.2326
 4032W        W 4032   2.287   1.315   4.071  0.2520  0.0260  0.2934
 4033W        W 4033   1.831   8.208   2.921 -0.1194  0.3705 -0.0468
 4034W        W 4034   4.345   4.984   8.533  0.0818 -0.0703 -0.0177
 4035W        W 4035   0.000   6.947   2.227 -0.0527 -0.1441 -0.1458
 4036W        W 4036   8.708   0.861   2.032 -0.0966  0.0665 -0.0596
 4037W        W 4037   4.501   7.715   0.971 -0.3386  0.1729  0.0286
 4038W        W 4038   7.006   6.279   7.997 -0.1090  0.0206  0.1702
 4039W        W 4039   4.333   9.453   8.763  0.1107 -0.0689 -0.2225
 4040W        W 4040   2.361  10.204   2.170  0.0190 -0.0544  0.0642
 4041W        W 4041   7.670   7.508   4.130  0.1297 -0.0264 -0.0468
 4042W        W 4042   1.317   2.824   3.289  0.1449  0.0790  0.1206
 4043W        W 4043   5.893   1.900   3.737  0.2769 -0.1641  0.3483
 4044W        W 4044   4.250   2.943   0.157 -0.1318 -0.0416  0.1238
 4045W        W 4045   7.814   7.686   0.263 -0.2067  0.0567  0.0805
 4046W        W 4046   3.931   3.469   8.859 -0.2068 -0.1058  0.1180
 4047W        W 4047   3.179   9.723   5.253 -0.0893 -0.1672  0.0345
 4048W        W 4048   8.865   7.808   5.526  0.2702  0.0271 -0.0110
 4049W        W 4049   1.875   0.828   7.421 -0.1870 -0.2413  0.0670
 4050W        W 4050   6.744   0.685   8.551 -0.1206 -0.4271 -0.1761
 4051W        W 4051   6.827   1.852   9.798  0.2912 -0.0208  0.1602
 4052W        W 4052   6.821   7.800   6.054  0.0785  0.1470 -0.3364
 4053W        W 4053  10.051   8.951   3.340  0.2038  0.2977  0.4340
 4054W        W 4054   8.019  10.170   3.285 -0.2293  0.1825  0.1263
 4055W        W 4055   3.215   1.512   1.415  0.1408  0.0908 -0.0910
 4056W        W 4056   7.113   1.111   8.586 -0.1880 -0.0917 -0.1251
 4057W        W 4057   5.292   3.050   3.389  0.0251  0.2047  0.1555
 4058W        W 4058   8.998   2.198   0.013 -0.3131  0.0957  0.0654
 4059W        W 4059   1.666   6.543   2.549  0.1830 -0.1408  0.2596
 4060W        W 4060   9.398   6.716   9.155 -0.1609  0.0400 -0.0566
 4061W        W 4061   3.928   4.883   6.666  0.1115  0.3105 -0.0597
 4062W        W 4062   2.356   1.075   0.159 -0.1379  0.4024  0.1607
 4063W        W 4063   3.595   5.241   2.476  0.1997 -0.0047 -0.0298
 4064W        W 4064   5.785   3.939   3.696 -0.2746 -0.0608  0.0453
 4065W        W 4065   1.678   7.078   0.262 -0.2680 -0.0472  0.0559
 4066W        W 4066   7.312   3.063   1.838 -0.0775  0.1047  0.2186
 4067W        W 4067   6.552   4.764   2.289 -0.2057  0.0681 -0.1122
 4068W        W 4068   5.030   1.372   1.150  0.1663  0.3340 -0.0921
 4069W        W 4069   6.409   5.304   9.450 -0.0717 -0.1080 -0.3859
 4070W        W 4070   1.141   8.823   6.100 -0.2853 -0.1871 -0.1631
 4071W        W 4071   9.437   0.917   8.083  0.4126 -0.3159 -0.0539
 4072W        W 4072   7.619   7.582   2.240 -0.1712 -0.0933  0.2218
 4073W        W 4073   7.967  10.112   1.884  0.4027  0.1072 -0.1918
 4074W        W 4074   1.410   2.144   3.401 -0.1570  0.1720 -0.0945
 4075W        W 4075   4.067   3.427   4.459 -0.1136  0.1580  0.1021
 4076W        W 4076   3.346   5.631   0.471  0.1929 -0.0566 -0.0580
 4077W        W 4077   2.337   3.464   2.065 -0.0676 -0.1601  0.0483
 4078W        W 4078   0.643   1.092   7.433 -0.0642 -0.1220 -0.0878
 4079W        W 4079   3.544   7.224   9.850 -0.1282 -0.0750 -0.0764
 4080W        W 4080   6.873  10.249   6.501 -0.0552 -0.2344  0.0082
 4081W        W 4081   6.831   8.705   8.040 -0.1705  0.1047 -0.0712
 4082W        W 4082   4.789   8.988   1.175 -0.4300  0.2086  0.3195
 4083W        W 4083  10.218   0.996   0.527  0.0341  0.3008 -0.0169
 4084W        W 4084   7.220   8.686   4.776 -0.1912  0.0281  0.0082
 4085W        W 4085   0.738   0.710   1.020  0.1097  0.1171 -0.2027
 4086W        W 4086   2.321   4.053   6.052 -0.1005 -0.0087 -0.0970
 4087W        W 4087   6.608   6.517   0.089  0.0994 -0.0215  0.3581
 4088W        W 4088   6.354   6.387   8.246 -0.2321 -0.0793 -0.2431
 4089W        W 4089   2.996   7.211   8.878 -0.1827  0.0588 -0.3097
 4090W        W 4090   4.740   9.455   1.573  0.0005 -0.0858 -0.0689
 4091W        W 4091   1.805   1.176   3.716 -0.1525 -0.0353 -0.1722
 4092W        W 4092   5.778   2.979   7.571  0.0727  0.0145 -0.0498
 4093W        W 4093   5.212   9.017   7.180 -0.2433  0.0128  0.0256
 4094W        W 4094   8.037   9.718   3.126  0.0475 -0.3372 -0.0842
 4095W        W 4095   0.762   9.820   2.181 -0.2037  0.0209  0.0192
 4096W        W 4096   5.166   7.014   4.010 -0.0304  0.2577  0.1041
 4097W        W 4097   2.356   8.109   2.652 -0.0048  0.2108 -0.1376
 4098W        W 4098   6.587   3.627   6.180  0.1645  0.0398 -0.2265
 4099W        W 4099   0.633   6.623   5.402  0.2082  0.1240  0.0634
 4100W        W 4100   1.107  10.342   5.882 -0.2853  0.1029  0.2484
 4101W        W 4101   4.610   2.013   3.757 -0.1084  0.4985 -0.1928
 4102W        W 4102   4.773   9.237   8.573 -0.4358 -0.1640  0.0357
 4103W        W 4103   3.482   7.422   5.217  0.2502 -0.1202  0.1571
 4104W        W 4104   0.196   0.043   2.607 -0.0360  0.2149  0.4265
 4105W        W 4105   8.689   4.563   7.123  0.1682  0.1700  0.0973
 4106W        W 4106   1.951  10.176   5.585  0.1031  0.0872  0.0646
 4107W        W 4107   2.184   2.597   8.134  0.1811 -0.2073  0.0194
 4108W        W 4108   9.412   0.680   2.866 -0.0015  0.1611  0.1716
 4109W        W 4109   6.196   2.864   6.340 -0.0541  0.0633 -0.2077
 4110W        W 4110   0.053   4.105   5.246 -0.0641  0.1545  0.1506
 4111W        W 4111   5.513   4.937   1.037 -0.4488 -0.2423 -0.2436
 4112W        W 4112   2.150   3.446   8.644  0.0151 -0.2111 -0.3227
 4113W        W 4113   9.576   7.350   0.655 -0.0329  0.2147  0.4647
 4114W        W 4114   0.497   9.648   6.520  0.0429 -0.1155  0.1212
 4115W        W 4115   6.312   4.116   7.111  0.0812  0.2681  0.1978
 4116W        W 4116   2.622   2.845   8.448 -0.2707 -0.2129 -0.0286
 4117W        W 4117   3.944   4.485   8.666 -0.2846  0.2643 -0.3207
 4118W        W 4118   0.884   4.730   4.955 -0.4429 -0.3820 -0.0080
 4119W        W 4119   5.858   5.330   8.806  0.2410  0.2248 -0.0165
 4120W        W 4120  10.210   8.959   9.159 -0.0031  0.0991 -0.1370
 4121W        W 4121   4.028   6.869   6.956 -0.1807  0.2989  0.2449
 4122W        W 4122   1.742   1.047   6.081 -0.2105 -0.0897 -0.5863
 4123W        W 4123   2.093   8.424   5.057  0.5483 -0.1002  0.0416
 4124W        W 4124   1.880   5.583   0.030  0.2165  0.1274  0.0245
 4125W        W 4125   9.096   4.499   3.028 -0.1306 -0.1526 -0.1123
 4126W        W 4126   7.592   4.464   4.878 -0.2590  0.2683 -0.0271
 4127W        W 4127   0.458   5.963   4.545 -0.1143  0.0867 -0.0191
 4128W        W 4128   9.166   2.761   9.615 -0.1320  0.1320  0.0582
 4129W        W 4129   0.708   9.527   6.969 -0.1213  0.1078 -0.1072
 4130W        W 4130   0.699   4.968   4.095  0.3449  0.0371 -0.1221
 4131W        W 4131   6.452   9.939   1.787 -0.0782  0.3820  0.0963
 4132W        W 4132   4.072   2.161   3.662  0.0167 -0.0895 -0.1263
 4133W        W 4133   8.583  10.181   4.651  0.1654 -0.1687 -0.2725
 4134W        W 4134   6.693   6.945   6.491 -0.1255  0.2002 -0.1099
 4135W        W 4135   1.639   8.037   8.099  0.1465  0.1203 -0.1304
 4136W        W 4136   9.993   7.308   4.203  0.0125 -0.1160  0.0137
 4137W        W 4137   4.657   3.798   9.166 -0.1454 -0.4535  0.1142
 4138W        W 4138   9.568   5.642   9.684  0.1228  0.0212 -0.0443
 4139W        W 4139   5.526   5.710   7.277  0.2322  0.3984 -0.1769
 4140W        W 4140   6.225   7.294   2.153  0.1313  0.1727  0.2291
 4141W        W 4141   2.960   1.332   9.485 -0.1360  0.3777  0.2307
 4142W        W 4142   4.143   6.246   5.340 -0.0952  0.2453 -0.1564
 4143W        W 4143   6.529   2.512   3.629 -0.1340  0.4180  0.1867
 4144W        W 4144   1.309   9.115   2.746  0.0958 -0.0687 -0.1140
 4145W        W 4145   0.046   9.509  10.079  0.1677 -0.0431  0.0910
 4146W        W 4146   2.747   3.779   6.106  0.2021  0.2244 -0.0606
 4147W        W 4147  10.329   4.006   2.693 -0.0770  0.2942  0.1252
 4148W        W 4148   1.471   5.403   3.285  0.0333 -0.0045  0.0579
 4149W        W 4149   0.367   4.398   2.969 -0.1228  0.0102  0.1840
 4150W        W 4150   4.907   6.983   7.146 -0.0784  0.0289  0.0975
 4151W        W 4151   3.104   0.740   3.013 -0.4763 -0.0155 -0.1954
 4152W        W 4152   9.743   0.153   1.716 -0.0213  0.1066  0.3180
 4153W        W 4153   8.963   0.913   5.279  0.0015 -0.1875 -0.1544
 4154W        W 4154   2.296   3.936   8.780 -0.0508 -0.0210 -0.1660
 4155W        W 4155   8.629   4.844  10.048 -0.1889  0.2250  0.3362
 4156W        W 4156   1.038   0.513   4.980  0.0724  0.0005  0.5407
 4157W        W 4157   3.366   8.794   9.527  0.2511  0.1737 -0.0293
 4158W        W 4158   2.273   3.728   9.964 -0.0647 -0.0488  0.0399
 4159W        W 4159   5.863   7.619   2.521 -0.1737 -0.2678  0.3358
 4160W        W 4160   4.913   8.730   4.875 -0.4410 -0.0831 -0.1548
 4161W        W 4161   1.420  10.095   8.714 -0.2020  0.1387  0.1508
 4162W        W 4162   2.107   5.998  10.011  0.1998  0.0176 -0.2055
 4163W        W 4163   2.198   9.384   2.585 -0.0657 -0.1061 -0.3230
 4164W        W 4164   8.076   2.995   7.391 -0.3401 -0.1338  0.2737
 4165W        W 4165   4.417   9.878   6.340 -0.2759  0.0928 -0.0340
 4166W        W 4166   7.470   2.789   6.845  0.2025 -0.1227 -0.0427
 4167W        W 4167   6.950   0.263   6.154  0.0139 -0.1067 -0.0108
 4168W        W 4168   6.945  10.328   7.851  0.2118 -0.0329 -0.1170
 4169W        W 4169   7.075   4.195   8.249 -0.1708  0.1385  0.2708
 4170W        W 4170   6.946   5.728   9.731  0.0698 -0.1345 -0.1863
 4171W        W 4171   0.068   8.313   1.809  0.0365  0.0536 -0.3103
 4172W        W 4172   2.212  10.084  10.332  0.0136  0.0972 -0.0349
 4173W        W 4173   2.370   2.017   8.507 -0.1112  0.1689 -0.0937
 4174W        W 4174   5.395   5.900   1.989  0.0810  0.2149  0.1733
 4175W        W 4175   0.112   8.556   9.086 -0.0511  0.2614  0.0191
 4176W        W 4176   6.102  10.181   6.776  0.0670  0.1234 -0.4699
 4177W        W 4177   7.986   9.020   7.912  0.1419  0.0422 -0.0881
 4178W        W 4178   2.201   6.758   1.636  0.4339  0.1116 -0.3578
 4179W        W 4179   9.103   6.264   4.660 -0.1011 -0.0167  0.3460
 4180W        W 4180   0.777   5.626   5.331 -0.1092  0.2905  0.0998
 4181W        W 4181   1.273   7.407  10.003  0.0511 -0.3257  0.1255
 4182W        W 4182   6.220   0.948   2.276 -0.1138  0.0463 -0.2223
 4183W        W 4183   9.502   6.392   2.457 -0.1387  0.1520 -0.3216
 4184W        W 4184   0.069  10.141   1.639  0.1208  0.1154 -0.0464
 4185W        W 4185   9.204  10.343   0.957  0.0848 -0.0683  0.1282
 4186W        W 4186   1.200   9.669   8.505 -0.3598  0.0303 -0.0639
 4187W        W 4187   2.904   5.678   9.636 -0.2713 -0.0361  0.1525
 4188W        W 4188   7.149   4.658   4.192  0.0538 -0.2511  0.1760
 4189W        W 4189   7.292   6.571   8.330  0.1103 -0.0248  0.0234
 4190W        W 4190   5.671   2.579   6.528  0.1635 -0.1348  0.2425
 4191W        W 4191   3.442   0.670   8.292 -0.1163 -0.1949 -0.0636
 4192W        W 4192   4.172   4.121   6.671  0.3792 -0.1794 -0.2548
 4193W        W 4193   7.334   5.751   2.868 -0.1843  0.0973  0.2818
 4194W        W 4194   3.154  10.059  10.136  0.0912  0.1095  0.0215
 4195W        W 4195   3.033   4.895   8.125 -0.1861  0.0379 -0.1481
 4196W        W 4196   9.907   9.673   8.941 -0.3364  0.1230  0.0913
 4197W        W 4197   1.612   3.191   1.357 -0.0594  0.1580 -0.2855
 4198W        W 4198   7.445   2.733   9.395 -0.1475 -0.0982  0.1190
 4199W        W 4199   0.640   0.688   2.036 -0.1826  0.1400  0.1136
 4200W        W 4200   8.107   6.819   2.359 -0.2601 -0.1467  0.1694
 4201W        W 4201   3.213   9.792   3.938 -0.3376  0.1427  0.0805
 4202W        W 4202   8.416   3.813   0.382 -0.1319 -0.0525 -0.1897
 4203W        W 4203   2.979   3.192   8.312 -0.0213 -0.0562 -0.0146
 4204W        W 4204   7.115   7.980   9.096  0.0213 -0.0693  0.0976
 4205W        W 4205   7.386   1.961   2.664 -0.1516 -0.0735  0.0730
 4206W        W 4206   3.518   2.308   1.657  0.0706  0.1954 -0.0339
 4207W        W 4207   0.710   6.525   8.839 -0.2433 -0.0527 -0.2627
 4208W        W 4208   6.280   8.992   5.618 -0.2296 -0.0681 -0.0418
 4209W        W 4209   1.593   1.016  10.001  0.1043  0.1570 -0.0467
 4210W        W 4210   5.010   2.090   0.755 -0.2380  0.0784  0.0125
 4211W        W 4211   9.693   3.105   3.346 -0.1438  0.0691  0.0543
 4212W        W 4212   9.323   4.344   3.510  0.1518 -0.0421 -0.2515
 4213W        W 4213   5.936   4.173  10.012 -0.2255  0.2109  0.0414
 4214W        W 4214   4.075  10.069   7.480 -0.0884  0.0471 -0.0990
 4215W        W 4215   2.818  10.091   0.140 -0.0335  0.0098  0.0948
 4216W        W 4216   6.952  10.332   1.229 -0.1440  0.0063  0.1052
 4217W        W 4217   0.421   9.530   3.933 -0.1739  0.0001  0.4196
 4218W        W 4218   1.163   4.794   6.978 -0.3173  0.4605  0.2927
 4219W        W 4219   9.286   9.802   9.090 -0.0778  0.0673  0.0394
 4220W        W 4220   6.788   0.269   5.187 -0.0261 -0.0690  0.0797
 4221W        W 4221   0.742   8.583   7.550  0.1696 -0.1224  0.1012
 4222W        W 4222   8.916   2.600   2.905  0.0898 -0.2025  0.0822
 4223W        W 4223   6.001   2.134   8.180  0.0957  0.3951  0.0037
 4224W        W 4224   6.208   6.882   5.236  0.1517 -0.0882  0.3559
 4225W        W 4225   4.802   2.273   1.186 -0.1559  0.2739 -0.2373
 4226W        W 4226   3.494   6.687   3.131 -0.1632 -0.1137 -0.2673
 4227W        W 4227   9.718   9.201   1.337 -0.0655  0.0298 -0.0021
 4228W        W 4228   3.340   3.488   6.640  0.1217  0.0049  0.1497
 4229W        W 4229   6.584  10.320   1.543 -0.0220  0.1875  0.0161
 4230W        W 4230   7.437   5.100   0.716 -0.0368 -0.0084 -0.1506
 4231W        W 4231   8.797   7.314   9.662  0.0514  0.1165 -0.2224
 4232W        W 4232   6.333   1.842   7.836  0.3219 -0.2002 -0.1754
 4233W        W 4233   3.906   0.951   2.635 -0.0580 -0.1103 -0.2818
 4234W        W 4234   8.232   3.813   7.981  0.5126 -0.1816  0.1251
 4235W        W 4235   9.474   3.714   6.409 -0.2391  0.0675 -0.0169
 4236W        W 4236   5.954   9.788   0.884 -0.0069 -0.2359  0.0948
 4237W        W 4237   4.518   1.986   0.672  0.0801 -0.1577  0.2439
 4238W        W 4238   2.572   5.525   6.078 -0.1802  0.0834 -0.0768
 4239W        W 4239   2.441  10.327   4.021  0.2152 -0.0013  0.0984
 4240W        W 4240   3.104   0.553   6.073  0.2159  0.0024  0.4345
 4241W        W 4241   5.302   5.631   0.360  0.0578  0.1482 -0.0959
 4242W        W 4242   9.262   7.142   1.007 -0.2988  0.0907 -0.2920
 4243W        W 4243   6.415   8.813   6.483  0.0476 -0.1710  0.1348
 4244W        W 4244   8.184   1.251   5.067  0.1816  0.0611 -0.3007
 4245W        W 4245   5.313   9.870   7.306  0.0710 -0.3581  0.2433
 4246W        W 4246   2.776   8.944   3.655  0.0371 -0.1005 -0.0107
 4247W        W 4247  10.141   2.941   7.679 -0.1647 -0.2119 -0.1458
 4248W        W 4248   9.582   5.489   0.277 -0.0787 -0.0481  0.0474
 4249W        W 4249   6.822   8.099   2.189  0.2783  0.1656  0.2017
 4250W        W 4250   5.669   5.038   1.831 -0.3410  0.3196 -0.2120
 4251W        W 4251   0.778   5.176   8.749 -0.1530  0.1249  0.1846
 4252W        W 4252   3.478   0.945   9.201 -0.0702  0.0507  0.1195
 4253W        W 4253   7.057   9.672   2.210 -0.1750 -0.1754 -0.0589
 4254W        W 4254   0.858   6.769   4.611  0.1530 -0.3594  0.1461
 4255W        W 4255   9.089   9.280   8.180  0.0036 -0.3070  0.2680
 4256W        W 4256   1.073   2.962   0.531  0.0163  0.0743 -0.2938
 4257W        W 4257   7.544   2.337   1.328 -0.2553  0.3377 -0.1366
 4258W        W 4258   7.521   3.898   6.212  0.2903 -0.2397 -0.4002
 4259W        W 4259   2.514   5.229   4.330  0.1056 -0.0616  0.0673
 4260W        W 4260  10.209   9.149   1.530  0.2611  0.1013  0.0083
 4261W        W 4261   6.249   7.964   4.097  0.4559  0.1472 -0.1340
 4262W        W 4262   0.924   1.750   2.761 -0.0707 -0.2623 -0.2104
 4263W        W 4263   5.890   0.578   5.764  0.2704  0.2943 -0.0589
 4264W        W 4264   8.259   8.808   2.246 -0.0044  0.1007  0.0443
 4265W        W 4265   1.504   0.855   3.991 -0.1057 -0.0199 -0.1561
 4266W        W 4266   9.374   6.192   9.241  0.0684 -0.3601 -0.0324
 4267W        W 4267   7.137   5.635  10.159  0.1811  0.0774  0.0006
 4268W        W 4268   8.171   9.264   7.485 -0.3036  0.2038  0.1611
 4269W        W 4269   3.101   9.522   0.625 -0.0730 -0.2671 -0.1336
 4270W        W 4270   2.191   9.165   6.930  0.2095  0.1815 -0.1409
 4271W        W 4271   5.108   7.112   8.422  0.1942  0.1400  0.1741
 4272W        W 4272   7.092   6.329   7.427 -0.2560  0.1697  0.2472
 4273W        W 4273   2.202   9.072   1.538 -0.2052 -0.0417  0.1849
 4274W        W 4274   3.589   8.667  10.035 -0.0616  0.1047  0.2453
 4275W        W 4275   5.131   7.294   7.469  0.0928  0.0001  0.1505
 4276W        W 4276   9.223   0.160   7.579 -0.0715 -0.0813  0.1205
 4277W        W 4277   1.052   3.326   4.908  0.1756 -0.0854  0.4751
 4278W        W 4278   5.505  10.114   3.726  0.1277  0.1141 -0.0638
 4279W        W 4279   5.816   8.289   8.672  0.4075  0.0718  0.0124
 4280W        W 4280   1.014   0.455   1.786  0.1798 -0.0978 -0.0590
 4281W        W 4281   8.258   1.812   9.945 -0.2400  0.0323 -0.1979
 4282W        W 4282   3.309   5.972   8.578 -0.0774 -0.1083 -0.0252
 4283W        W 4283   8.541   1.810   9.510  0.1433  0.0105 -0.0977
 4284W        W 4284   0.594   6.851   6.858 -0.0793  0.1307 -0.2317
 4285W        W 4285   2.586   0.641   7.797 -0.1362  0.1384 -0.0025
 4286W        W 4286   7.841   7.196   3.247  0.3055 -0.0347  0.0033
 4287W        W 4287   7.245   9.813   4.283  0.3175  0.0564 -0.0124
 4288W        W 4288  10.050   8.314   0.314 -0.2072  0.0943  0.0193
 4289W        W 4289   8.430   8.050   3.319  0.4832  0.0528 -0.0974
 4290W        W 4290   5.794   2.935   6.110 -0.1372  0.1898  0.0563
 4291W        W 4291   1.469   3.785   3.150 -0.3470 -0.0411 -0.2681
 4292W        W 4292   0.728   3.424   6.735 -0.0576  0.2868 -0.1226
 4293W        W 4293   0.894   1.149   2.326  0.0934  0.0175 -0.1091
 4294W        W 4294  10.080   1.397   0.784 -0.2888 -0.1419  0.0105
 4295W        W 4295   3.400   7.577   6.215 -0.2693 -0.1513 -0.0557
 4296W        W 4296   5.900   8.104   2.152 -0.0195 -0.1597 -0.1880
 4297W        W 4297   3.627   3.236   2.403 -0.2826 -0.0770 -0.0097
 4298W        W 4298   8.718   9.220   7.368  0.0569  0.1576  0.0503
 4299W        W 4299   6.986   5.554   1.900 -0.2334 -0.2123 -0.0646
 4300W        W 4300   1.785   5.041   3.235  0.1286 -0.3069  0.4186
 4301W        W 4301   1.315   3.626  10.087 -0.1839 -0.0995 -0.1096
 4302W        W 4302   3.267  10.090   3.478  0.0933  0.1919  0.2078
 4303W        W 4303   1.248   5.754   5.364  0.1553 -0.1977  0.2278
 4304W        W 4304   4.181   8.553   6.333  0.0687 -0.1499  0.0526
 4305W        W 4305   5.640   1.776   2.908  0.2867 -0.3187  0.0075
 4306W        W 4306   2.048   1.370   4.793  0.2991 -0.2188 -0.0264
 4307W        W 4307   3.547   1.447   0.370 -0.1086 -0.1483  0.1487
 4308W        W 4308  10.300   8.111   7.849 -0.2507 -0.1435  0.2278
 4309W        W 4309   9.295   0.053   3.724  0.3026  0.0351  0.3053
 4310W        W 4310   5.488   0.994   5.684 -0.0460  0.1231  0.2084
 4311W        W 4311   7.386   3.178   9.618 -0.1984 -0.0032 -0.1556
 4312W        W 4312   1.632   6.266   6.043 -0.2336 -0.0232 -0.3078
 4313W        W 4313   5.469   9.704   9.566 -0.1071 -0.2012 -0.1490
 4314W        W 4314   6.952   1.550   9.432  0.0812 -0.1118 -0.1251
 4315W        W 4315   8.259   5.917   1.314  0.0560 -0.2243  0.0703
 4316W        W 4316   9.361   8.049   5.660  0.0818 -0.0807 -0.1135
 4317W        W 4317   7.968   9.292   4.789 -0.1009 -0.1834 -0.1619
 4318W        W 4318   4.724   9.882   3.277 -0.0688  0.2186  0.1808
 4319W        W 4319   5.653   2.439   3.738 -0.0550 -0.0537  0.0219
 4320W        W 4320   5.813   1.918   5.173 -0.1763  0.0166 -0.1787
 4321W        W 4321   1.725   8.302   0.008  0.1482  0.0136 -0.2873
 4322W        W 4322   3.129   6.528   3.501 -0.1425 -0.2149 -0.1382
 4323W        W 4323   9.124   1.813   9.712 -0.0312 -0.2020  0.2694
 4324W        W 4324   5.852   2.695   1.777  0.2052 -0.1945  0.5238
 4325W        W 4325   2.155   5.204   6.020  0.2608 -0.1611  0.3408
 4326W        W 4326   0.951   9.933   5.637  0.2357 -0.0531  0.0887
 4327W        W 4327   0.828   8.712   8.013  0.0830 -0.0946  0.2731
 4328W        W 4328   6.494   3.973   5.453 -0.0502 -0.2971  0.1533
 4329W        W 4329   8.966   0.635   4.813 -0.3453 -0.3073  0.0622
 4330W        W 4330   2.308   5.788   9.476  0.2021  0.0237  0.4359
 4331W        W 4331   2.619   3.473   3.228 -0.2458 -0.3757 -0.3975
 4332W        W 4332   5.435   1.538   8.096  0.0695  0.0974  0.0712
 4333W        W 4333   2.065   8.068   2.261  0.2805  0.0815 -0.0170
 4334W        W 4334   6.654   5.477   5.306 -0.0534  0.2719 -0.2237
 4335W        W 4335   5.240   1.789  10.134  0.0561 -0.1011 -0.0625
 4336W        W 4336   7.306   8.936   6.468 -0.4168 -0.1584  0.1901
 4337W        W 4337   9.691   6.408   4.662  0.0872  0.0514  0.2950
 4338W        W 4338   7.889   2.055   6.599  0.0032  0.1454 -0.1928
 4339W        W 4339   3.376   5.958   0.848 -0.0721  0.1045 -0.1781
 4340W        W 4340   0.414   1.820   5.181  0.3204 -0.2249 -0.1173
 4341W        W 4341   6.924   2.770   0.211 -0.2441  0.0796 -0.0959
 4342W        W 4342   9.611   4.122   4.172  0.0994  0.0779 -0.3431
 4343W        W 4343   0.716  10.057   7.058  0.1144 -0.2336 -0.1514
 4344W        W 4344   3.111   7.778   5.884 -0.0017 -0.0892  0.1483
 4345W        W 4345   8.360   8.203   2.436 -0.1138 -0.4799 -0.2013
 4346W        W 4346   0.780   2.547   4.678 -0.3855 -0.1263  0.0388
 4347W        W 4347   6.836   3.398   8.816 -0.2397 -0.0911 -0.0068
 4348W        W 4348  10.028   7.889   1.936  0.1758  0.0176  0.0768
 4349W        W 4349   8.709   5.388   3.387 -0.0585 -0.1607  0.2878
 4350W        W 4350   8.995   6.365   9.717  0.1980  0.0859  0.0250
 4351W        W 4351   1.581   3.493   8.909 -0.0716 -0.3834 -0.1578
 4352W        W 4352   1.437   0.861   2.862  0.0806  0.2192  0.1813
 4353W        W 4353   0.081   5.927   4.936 -0.2045  0.1846 -0.2228
 4354W        W 4354   0.508   0.278   6.412  0.2978  0.1516 -0.0066
 4355W        W 4355   9.334   7.119   2.010  0.0785  0.2686  0.1983
 4356W        W 4356   5.342   8.551   5.599 -0.2139 -0.2546  0.0959
 4357W        W 4357   3.465   8.515   4.465 -0.0518  0.2211 -0.1061
 4358W        W 4358   7.559   4.923   6.282 -0.1268  0.0850  0.1195
 4359W        W 4359   3.543   8.080   2.523 -0.3208 -0.1628 -0.1997
 4360W        W 4360   2.021   8.643   2.228 -0.1203 -0.1521 -0.1261
 4361W        W 4361   3.512   1.236   4.063 -0.0615  0.0312  0.2444
 4362W        W 4362  10.188   4.617   8.743  0.2223 -0.0518  0.1055
 4363W        W 4363   8.240   4.015   8.915  0.1516  0.2228 -0.0128
 4364W        W 4364   3.983   4.780   8.236  0.0591 -0.0643 -0.2880
 4365W        W 4365   0.822   9.368   1.984  0.2602 -0.0293 -0.3453
 4366W        W 4366   0.769   2.842   5.199  0.1395  0.1469 -0.1923
 4367W        W 4367   2.291   6.354   5.187  0.0550  0.2372 -0.2322
 4368W        W 4368   3.684   8.025   5.292  0.2508 -0.2650  0.0839
 4369W        W 4369   2.170   5.986   2.282 -0.1182 -0.0859  0.2328
 4370W        W 4370   7.885   1.435   7.980  0.3167  0.2594  0.1210
 4371W        W 4371   2.315   3.429   6.886 -0.2348  0.1966 -0.2661
 4372W        W 4372   5.865   2.377   2.188  0.2241  0.2443  0.2247
 4373W        W 4373   0.703   9.780   3.193 -0.1496 -0.2816  0.1047
 4374W        W 4374   1.015   4.972   2.708  0.2383  0.1359 -0.0423
 4375W        W 4375   9.901   4.555   9.381  0.1996 -0.0961 -0.0110
 4376W        W 4376   9.022   0.936   3.389  0.0806  0.2735 -0.1924
 4377W        W 4377   0.823   7.677   5.501  0.2415 -0.2537 -0.0801
 4378W        W 4378   9.312   8.942   4.114  0.0066 -0.0612 -0.1047
 4379W        W 4379   5.360   4.179   2.307  0.2350  0.2366 -0.2885
 4380W        W 4380   4.619   1.586   0.343 -0.1802 -0.2655 -0.0084
 4381W        W 4381   3.406   5.380   1.765 -0.2063  0.1035  0.0440
 4382W        W 4382   8.635   4.929   5.107 -0.0286  0.0335  0.2424
 4383W        W 4383   8.996   1.707   2.250  0.2407  0.2081 -0.2092
 4384W        W 4384   2.530   4.252   8.402 -0.1587  0.0606  0.3759
 4385W        W 4385   9.115   8.527  10.089 -0.2484  0.0912  0.1395
 4386W        W 4386   8.684   1.634   4.567  0.1798  0.2779  0.1898
 4387W        W 4387   0.476   0.894   4.230  0.0924 -0.1522 -0.0374
 4388W        W 4388   9.081   5.764   8.955 -0.1354  0.4373 -0.3048
 4389W        W 4389   6.854   6.522   0.557 -0.2705 -0.0950  0.0225
 4390W        W 4390   8.058   5.901   2.625  0.0487 -0.4088 -0.2247
 4391W        W 4391   9.132   3.849   5.029  0.0196  0.0876 -0.0821
 4392W        W 4392   2.170   9.950   9.832  0.1330 -0.3817 -0.2612
 4393W        W 4393   0.079   8.820   6.658  0.1461 -0.1324  0.4456
 4394W        W 4394   9.679   8.944   4.727  0.0554  0.0959 -0.2228
 4395W        W 4395   0.189   6.278   8.893 -0.1287  0.0853 -0.0614
 4396W        W 4396   4.687   3.228   9.560  0.1778  0.0346 -0.0246
 4397W        W 4397   1.158   6.352   0.947 -0.1061 -0.1421  0.0257
 4398W        W 4398   8.061   8.158   1.545 -0.1618  0.2016  0.0125
 4399W        W 4399   2.766   7.040   8.479 -0.0284  0.0088 -0.0344
 4400W        W 4400   7.375   2.749   5.074 -0.0828 -0.0604 -0.0285
 4401W        W 4401   7.089   0.726   9.347 -0.2528  0.0648 -0.0782
 4402W        W 4402   1.092   3.188   9.060 -0.3732 -0.2018  0.2352
 4403W        W 4403   9.270   7.951   1.224 -0.0414 -0.3380  0.0563
 4404W        W 4404   0.332   2.857   6.353  0.0086  0.0400  0.1201
 4405W        W 4405   2.318   0.381   6.211  0.0592  0.0488 -0.0034
 4406W        W 4406   9.755   1.812   3.783 -0.0961  0.1040 -0.1631
 4407W        W 4407   1.429   5.015   9.660  0.2038  0.0785 -0.0303
 4408W        W 4408   9.771   4.044   8.311  0.1977 -0.4220 -0.1557
 4409W        W 4409   0.902   9.365   3.698  0.0792  0.1424  0.0449
 4410W        W 4410   7.376   9.971   5.023 -0.1096  0.0666 -0.0354
 4411W        W 4411   8.629   1.758   2.658  0.0672 -0.1929 -0.3251
 4412W        W 4412   0.258   1.721   8.126 -0.1677  0.0479  0.2813
 4413W        W 4413   9.199   4.493   9.625  0.0448 -0.2173 -0.3878
 4414W        W 4414   1.544   9.161   5.730 -0.0371  0.1708  0.1760
 4415W        W 4415   6.577   3.862   2.755 -0.0479  0.0585  0.1712
 4416W        W 4416   8.182   9.262   2.866 -0.1559 -0.2373 -0.0987
 4417W        W 4417   9.711   2.169   8.708 -0.2480 -0.0263 -0.4336
 4418W        W 4418   3.052   9.204   1.572 -0.1707 -0.1208  0.0579
 4419W        W 4419   5.354   3.829   6.174 -0.3870  0.1152  0.0580
 4420W        W 4420   2.082   7.951   5.779  0.3695  0.4340  0.3163
 4421W        W 4421   4.209  10.081   4.001  0.1117 -0.2317  0.2268
 4422W        W 4422   9.768   0.031   9.825  0.0267 -0.0335 -0.0731
 4423W        W 4423   0.403   1.721   2.043  0.1243 -0.3228  0.3768
 4424W        W 4424   6.094   1.246   7.505 -0.0419  0.1703  0.4131
 4425W        W 4425   0.268   6.462   5.050  0.2589  0.1503  0.0913
 4426W        W 4426   9.989   0.544   2.035 -0.1831 -0.3245  0.2106
 4427W        W 4427   8.306   1.463   0.430 -0.4826 -0.3235  0.0402
 4428W        W 4428   8.951   5.015   7.013  0.0339 -0.0516 -0.3349
 4429W        W 4429   2.482   2.330   4.072 -0.1620 -0.0377 -0.0851
 4430W        W 4430  10.087   6.596   0.110  0.1990  0.0813 -0.1622
 4431W        W 4431   9.257   2.300   0.463 -0.1219  0.0386 -0.0138
 4432W        W 4432   3.510   7.065   6.099 -0.0993 -0.2536  0.0553
 4433W        W 4433   9.299   2.502   8.042  0.0471  0.0438 -0.0770
 4434W        W 4434   7.502   4.981   4.056  0.2342  0.0415  0.2393
 4435W        W 4435   7.507   7.492   4.687 -0.0187  0.2827 -0.3353
 4436W        W 4436   0.676   9.631   2.698 -0.3711 -0.2179  0.1956
 4437W        W 4437   5.792   3.826   0.129 -0.0997  0.0798 -0.0761
 4438W        W 4438   8.586   3.452   2.012 -0.0483 -0.0241  0.4097
 4439W        W 4439   3.791   3.772  10.081 -0.0532  0.2362  0.0458
 4440W        W 4440   8.249   8.753   3.160  0.2816  0.0168  0.2546
 4441W        W 4441   4.953   3.662   3.468  0.1835  0.0132  0.2440
 4442W        W 4442   5.816   0.715   4.502  0.1091 -0.0588 -0.2964
 4443W        W 4443   0.006   0.497   2.337  0.0858 -0.1599 -0.1067
 4444W        W 4444   4.925   8.126   2.321 -0.0806 -0.2549  0.1557
 4445W        W 4445   2.434   1.805   4.124 -0.0212 -0.1180 -0.0780
 4446W        W 4446   4.854   0.265   7.757  0.1044  0.2064 -0.0894
 4447W        W 4447   4.801   6.762   7.581  0.0261  0.2028 -0.4147
 4448W        W 4448   0.294   7.892   2.187 -0.0664 -0.2377  0.0789
 4449W        W 4449   8.371   8.913   9.679  0.2560  0.0817 -0.0722
 4450W        W 4450   3.420   2.345   2.541  0.2634 -0.0675 -0.0036
 4451W        W 4451   0.561   5.173   1.576 -0.0634 -0.2371 -0.0022
 4452W        W 4452   7.647   9.510  10.153  0.2333 -0.2088 -0.0842
 4453W        W 4453   4.559   1.302   3.128 -0.2150  0.3951  0.2163
 4454W        W 4454   3.610   3.850   5.772  0.1799 -0.2781 -0.0213
 4455W        W 4455   0.989   9.118   7.758  0.0158 -0.3833  0.1400
 4456W        W 4456   9.809   1.537   9.939 -0.1779  0.0086 -0.2898
 4457W        W 4457   0.933  10.098   8.620  0.0011 -0.0929 -0.0106
 4458W        W 4458   9.420   9.255   2.216  0.1585 -0.2667  0.0877
 4459W        W 4459   8.204   5.563   3.975  0.3080 -0.1109 -0.2203
 4460W        W 4460   0.961   0.717   2.704 -0.0749  0.0493 -0.1506
 4461W        W 4461   8.135   7.176   5.792  0.1074 -0.0971  0.1984
 4462W        W 4462   6.385   2.316   3.120  0.1327 -0.0671  0.0548
 4463W        W 4463   3.980   2.885  10.072  0.4280 -0.0019  0.0821
 4464W        W 4464   8.919   8.306   3.022 -0.0972 -0.1340 -0.0371
 4465W        W 4465   5.046   3.207   5.536  0.3112 -0.1040 -0.2562
 4466W        W 4466   8.917   9.359   2.853 -0.0722  0.0048 -0.0962
 4467W        W 4467  10.322   2.184   5.038  0.0885 -0.1283  0.1126
 4468W        W 4468   7.426   5.553   8.389 -0.0585  0.2600 -0.0309
 4469W        W 4469   0.337   7.969  10.147 -0.2101  0.1718  0.0281
 4470W        W 4470   6.206  10.096   5.938 -0.0658  0.2999  0.0452
 4471W        W 4471   4.179   3.790   9.168  0.1273 -0.0194 -0.0922
 4472W        W 4472   8.930   6.178  10.253 -0.0378 -0.0603  0.1799
 4473W        W 4473  10.253   6.960   7.813  0.2456  0.2219 -0.2396
 4474W        W 4474   1.140   5.800   3.550  0.3883  0.3343 -0.0970
 4475W        W 4475   6.502   9.362   6.529 -0.5071  0.1173 -0.0814
 4476W        W 4476   2.827   5.374   7.984 -0.0549 -0.3651 -0.3838
 4477W        W 4477   4.617   6.903   5.664 -0.0199  0.0120 -0.0867
 4478W        W 4478   8.772   1.293   2.484  0.0751 -0.0406 -0.0676
 4479W        W 4479   7.487   2.304   0.169  0.1454  0.1793  0.1032
 4480W        W 4480   7.237   7.460   7.914  0.0963 -0.0568  0.0752
 4481W        W 4481   2.604   3.049   5.400  0.3547  0.1606  0.1089
 4482W        W 4482   3.141   7.193   6.494  0.1408  0.0549  0.1637
 4483W        W 4483   6.335   2.114   8.948 -0.1478 -0.0213  0.2470
 4484W        W 4484   6.085   3.687   3.385  0.0996 -0.2211 -0.0717
 4485W        W 4485   5.701   4.261   6.267  0.1821  0.0373 -0.0057
 4486W        W 4486   2.921   9.680   1.150  0.1548  0.0390  0.1878
 4487W        W 4487   9.991   9.524   1.183 -0.0004 -0.0358  0.1032
 4488W        W 4488   1.568   9.440   1.200  0.0661 -0.0166 -0.1948
 4489W        W 4489   6.348   4.111   7.709  0.1534 -0.0996  0.2496
 4490W        W 4490   0.426  10.050   5.217 -0.3787 -0.0802 -0.0147
 4491W        W 4491   3.004   8.417   1.969  0.1657 -0.1275 -0.3515
 4492W        W 4492   3.245   8.323   4.089  0.4675 -0.0947  0.2261
 4493W        W 4493   5.539   2.371   5.135 -0.0580  0.0956 -0.0585
 4494W        W 4494   5.632   0.250  10.275  0.0866 -0.0350 -0.1081
 4495W        W 4495   0.353   0.039   3.082 -0.0041  0.1765 -0.0703
 4496W        W 4496   1.318   8.313   9.968  0.0849  0.0378  0.1473
 4497W        W 4497   7.958   0.192   6.633  0.0126  0.1313 -0.1991
 4498W        W 4498   5.367  10.143   9.278 -0.3935  0.1521  0.1123
 4499W        W 4499   5.109   5.500   4.911  0.1404  0.0683  0.0759
 4500W        W 4500   1.345   0.507   8.966 -0.1176  0.1938  0.2574
 4501W        W 4501   3.446   9.112   6.148  0.1520  0.1938 -0.0506
 4502W        W 4502   4.095   7.523   0.063 -0.1880 -0.3061 -0.1641
 4503W        W 4503   3.479   8.115   9.404 -0.1051  0.1712  0.0757
 4504W        W 4504   0.527   2.536  10.136  0.1247  0.2220 -0.2519
 4505W        W 4505  10.169   3.135   2.362 -0.1097  0.1067  0.1557
 4506W        W 4506   6.599   7.644   3.885  0.2776  0.1614  0.0253
 4507W        W 4507   2.548   8.245   4.675 -0.0188 -0.2415  0.0469
 4508W        W 4508   5.890   7.336   6.746 -0.1561 -0.3825 -0.0923
 4509W        W 4509   8.154   6.446   8.425  0.3560 -0.1740  0.0820
 4510W        W 4510   1.166   7.204   4.664 -0.2299 -0.0328  0.1956
 4511W        W 4511   7.272   4.080   8.699 -0.2735 -0.0930 -0.3183
 4512W        W 4512   2.908   1.720   5.623  0.0712  0.3313  0.1202
 4513W        W 4513   9.385   3.624   9.280  0.0215 -0.1607  0.0826
 4514W        W 4514   2.483   4.330   5.556  0.2407 -0.0550  0.0159
 4515W        W 4515   1.155   6.572   1.540 -0.1601 -0.2110  0.2102
 4516W        W 4516   4.936   5.866   8.155 -0.0414 -0.2850  0.1860
 4517W        W 4517   3.106   6.326   1.807  0.1186  0.1294  0.2728
 4518W        W 4518   9.307   3.042   5.519 -0.0962 -0.0289 -0.0260
 4519W        W 4519   9.954   4.668   6.848 -0.0989  0.2357  0.2290
 4520W        W 4520   6.807   8.971   9.065 -0.1599 -0.1436  0.1152
 4521W        W 4521   4.680   8.157   6.996 -0.3205 -0.0811  0.2090
 4522W        W 4522   4.118   8.133   5.516  0.2566  0.2615 -0.2643
 4523W        W 4523   0.182   5.698   3.430 -0.1777 -0.1907 -0.0730
 4524W        W 4524   6.621   3.242   7.757  0.1273  0.0939  0.2918
 4525W        W 4525   8.063   0.059   2.863  0.0990 -0.3206  0.0252
 4526W        W 4526   7.553   2.927   4.204  0.1844 -0.0924 -0.0807
 4527W        W 4527   8.038   9.278   9.377 -0.1548  0.0134 -0.0825
 4528W        W 4528   4.109   0.425   5.265  0.0549  0.1044  0.0837
 4529W        W 4529   0.852   6.224  10.058  0.3755  0.1037 -0.0211
 4530W        W 4530   5.932   0.304   0.511 -0.0547 -0.1890 -0.4126
 4531W        W 4531   3.556  10.258   9.709  0.0495  0.0396 -0.1197
 4532W        W 4532   8.973  10.087   4.270  0.1142  0.2441 -0.3727
 4533W        W 4533   0.282   1.694   3.584 -0.2396 -0.0562 -0.0456
 4534W        W 4534   4.803   7.849   3.719  0.1203  0.0092  0.0432
 4535W        W 4535   1.800   8.725   1.744 -0.0615  0.1574  0.0199
 4536W        W 4536   4.183   8.823   2.391 -0.0643 -0.3149 -0.1439
 4537W        W 4537   9.944   0.733   6.172  0.2079  0.4284 -0.0080
 4538W        W 4538   5.188   8.730   1.384 -0.2560 -0.0657 -0.1639
 4539W        W 4539   8.839   8.496   9.610  0.1710 -0.3502  0.0507
 4540W        W 4540  10.036   5.874   2.330 -0.1526  0.0040 -0.1997
 4541W        W 4541   2.038   6.059   3.417 -0.0038  0.1921  0.0785
 4542W        W 4542   1.537   1.517   6.777  0.3265  0.0208  0.1302
 4543W        W 4543   5.432   2.233   9.938  0.0653  0.1970  0.0258
 4544W        W 4544   4.545   5.185   2.576 -0.2097 -0.3997 -0.5510
 4545W        W 4545   2.994   0.153   0.581 -0.2451  0.1335  0.0680
 4546W        W 4546   7.413   1.226   0.188 -0.1175  0.1238 -0.2238
 4547W        W 4547   4.656   9.012   2.439 -0.1113 -0.2577  0.1161
 4548W        W 4548   8.152   6.581   9.211  0.1469 -0.0618  0.0790
 4549W        W 4549   9.759   3.521   2.183 -0.2860 -0.0144  0.0357
 4550W        W 4550   4.658   3.957   0.803  0.0746  0.4316 -0.0887
 4551W        W 4551   8.436   1.617   2.174 -0.0118  0.1886 -0.3006
 4552W        W 4552   0.510   6.862   4.136  0.2218 -0.0199  0.0902
 4553W        W 4553   2.533   7.086   4.272 -0.0065  0.2674  0.0703
 4554W        W 4554   0.255   3.073   1.348  0.0640  0.2647 -0.2261
 4555W        W 4555   6.134   3.327   6.431 -0.0107 -0.0506  0.0984
 4556W        W 4556   7.572   9.726   6.569  0.1922  0.2172  0.0504
 4557W        W 4557   6.054   2.116   1.776  0.2988  0.2365 -0.0427
 4558W        W 4558   7.523   1.503   3.489 -0.1102 -0.0664 -0.0261
 4559W        W 4559   2.754   4.190   7.980  0.1589 -0.1159  0.0524
 4560W        W 4560   1.935   4.483   8.921  0.2391  0.0555  0.1778
 4561W        W 4561   9.360   2.973   1.258  0.2661 -0.3062  0.2831
 4562W        W 4562   7.421   1.030   5.100  0.0502  0.0447  0.1125
 4563W        W 4563   0.382   5.526   0.265 -0.2168  0.1113  0.0116
 4564W        W 4564  10.268   4.879   5.918 -0.0781  0.2148  0.1959
 4565W        W 4565   6.554   1.498   4.541 -0.0512  0.1549  0.0649
 4566W        W 4566   3.045   5.902   6.011 -0.1202  0.2832 -0.1793
 4567W        W 4567   0.114   4.868   5.449  0.0168  0.0344  0.1227
 4568W        W 4568   5.570   8.783   3.493 -0.3304  0.0430 -0.2728
 4569W        W 4569   9.302   5.267   8.911  0.1524  0.0986 -0.2129
 4570W        W 4570   2.717   9.228   8.765 -0.0362  0.4194 -0.1398
 4571W        W 4571   2.318   5.955   1.448  0.0718 -0.1319  0.0826
 4572W        W 4572   4.237  10.333   6.476  0.0969 -0.1127  0.0294
 4573W        W 4573   5.584   6.187   7.510  0.2335  0.1126 -0.4485
 4574W        W 4574   9.120   6.833   1.572  0.0162  0.0567  0.2534
 4575W        W 4575   6.808  10.236   3.539 -0.2998  0.0454  0.2956
 4576W        W 4576   8.128   2.077   9.567 -0.2388 -0.0685  0.1190
 4577W        W 4577   0.408   7.407   8.763 -0.1119 -0.1890 -0.2298
 4578W        W 4578   6.057   4.850   1.547 -0.2593 -0.0206  0.0308
 4579W        W 4579   8.168   7.334   4.716  0.3022  0.1927 -0.1244
 4580W        W 4580   5.369   7.224   9.002 -0.1548  0.0666  0.0526
 4581W        W 4581   7.697   0.246   5.548 -0.1797  0.1125  0.3122
 4582W        W 4582   4.136   9.139   0.838 -0.0961 -0.3201 -0.0102
 4583W        W 4583   1.885  10.234   7.152  0.3824  0.0425  0.1512
 4584W        W 4584   4.747   4.808   2.291 -0.2789 -0.0092  0.0632
 4585W        W 4585   1.447   6.376   7.811 -0.0150  0.1540  0.1542
 4586W        W 4586   8.593   6.419   7.556  0.0302 -0.1188 -0.1269
 4587W        W 4587   5.165   5.172   8.562  0.1039  0.1093 -0.0303
 4588W        W 4588   3.902   0.559   5.689  0.0671 -0.3214 -0.1033
 4589W        W 4589   0.601   3.468   8.808 -0.1984  0.0176  0.0430
 4590W        W 4590   5.358   5.730   7.779 -0.2141  0.3360 -0.0199
 4591W        W 4591   1.976   5.481   1.010  0.1193  0.2369 -0.1015
 4592W        W 4592   0.476   4.002   2.127  0.3287  0.0945 -0.0420
 4593W        W 4593   7.238   6.667  10.324  0.0555 -0.1676  0.0309
 4594W        W 4594   5.630   9.482   8.414  0.0084  0.1299  0.1715
 4595W        W 4595   0.974   1.649   0.388 -0.0273 -0.3721  0.1247
 4596W        W 4596   2.971   5.048   6.461  0.1240 -0.0636  0.0671
 4597W        W 4597   4.391   5.156   3.221  0.1592 -0.1139 -0.3110
 4598W        W 4598   9.787   8.097   6.136 -0.2906 -0.3367  0.0052
 4599W        W 4599   1.563   3.502   9.697 -0.3463 -0.0429 -0.2283
 4600W        W 4600   3.396   7.045   0.078 -0.0151 -0.0349 -0.0805
 4601W        W 4601   1.670   3.186   3.791 -0.1605  0.2016 -0.1207
 4602W        W 4602   1.990   9.201   5.895  0.0760  0.1609  0.0276
 4603W        W 4603   4.756   1.682   4.614 -0.1778 -0.0729  0.1556
 4604W        W 4604   5.605   8.910   8.498 -0.1511 -0.3348 -0.2367
 4605W        W 4605   4.081   2.001   3.134  0.1726 -0.0433 -0.2223
 4606W        W 4606  10.092   5.482   9.698  0.1571 -0.1852  0.0787
 4607W        W 4607   8.195   5.148   3.530 -0.0254 -0.3660 -0.1771
 4608W        W 4608   8.363   0.539   7.325 -0.0295  0.1738  0.1342
 4609W        W 4609   4.659   9.557   2.918 -0.0469 -0.0024 -0.1189
 4610W        W 4610   0.207   4.656  10.154  0.0511 -0.2772  0.4196
 4611W        W 4611   8.754   1.284   6.727  0.0506 -0.0425 -0.1628
 4612W        W 4612   2.573   3.063   7.590 -0.3145 -0.2080 -0.0703
 4613W        W 4613   9.357   1.908   3.103  0.0356 -0.0663 -0.3547
 4614W        W 4614   3.161   3.478   5.993  0.0458 -0.2263  0.1003
 4615W        W 4615   8.462   8.588   5.383  0.0460 -0.1722 -0.2025
 4616W        W 4616   0.953   8.639   4.314  0.0381 -0.1633 -0.1262
 4617W        W 4617   3.379   8.863   4.860  0.1314  0.3723 -0.0163
 4618W        W 4618   3.731  10.127   8.256 -0.3206 -0.0527 -0.2388
 4619W        W 4619   8.949   9.393   2.361 -0.1467 -0.0512  0.0985
 4620W        W 4620   7.058   7.996   0.511 -0.0450  0.2092 -0.2215
 4621W        W 4621   7.878   2.162   8.412 -0.2367 -0.0596  0.0768
 4622W        W 4622   0.224   7.324   6.942  0.0226 -0.0844  0.1628
 4623W        W 4623   2.457   9.581   9.539 -0.1525  0.1483  0.0780
 4624W        W 4624   9.249   4.840   8.523 -0.2014  0.0361  0.0474
 4625W        W 4625   4.313   6.761   2.730 -0.0169 -0.0714 -0.2887
 4626W        W 4626   5.289   1.933   1.935  0.2002  0.1009 -0.0531
 4627W        W 4627   2.544   0.023   7.983  0.0502 -0.0680 -0.1014
 4628W        W 4628   8.298   4.484  10.000  0.3287 -0.0291  0.1403
 4629W        W 4629  10.325   6.727   6.120  0.0312 -0.0139  0.2749
 4630W        W 4630   4.452   8.533   7.622 -0.0801 -0.0448  0.0957
 4631W        W 4631   1.408   6.822   7.956  0.1413  0.1952  0.0478
 4632W        W 4632   2.320   0.375   1.728 -0.1115  0.0031  0.0232
 4633W        W 4633   4.188   3.672   4.004 -0.1009 -0.0202  0.2040
 4634W        W 4634   9.025   7.817   3.137 -0.0220  0.2971 -0.0550
 4635W        W 4635   1.492   1.290   7.304 -0.1430 -0.2713 -0.0695
 4636W        W 4636   3.375   2.487   5.511 -0.1271  0.3072 -0.2013
 4637W        W 4637   4.826   3.490   0.587  0.2233 -0.2243 -0.0190
 4638W        W 4638   9.984   5.005   7.220 -0.2813 -0.2214 -0.2316
 4639W        W 4639   3.562   7.942   9.908 -0.0704  0.1347  0.3425
 4640W        W 4640   6.157   1.875   2.228  0.1301 -0.0952  0.0224
 4641W        W 4641   3.204   1.253   7.545  0.0769 -0.0451  0.3632
 4642W        W 4642   8.351   2.615   1.619 -0.1737 -0.0094  0.1910
 4643W        W 4643   1.214   2.434   3.005 -0.0311  0.2001  0.4335
 4644W        W 4644   5.442   6.210   7.030  0.1357  0.0557 -0.0603
 4645W        W 4645   8.914   5.942   9.390 -0.0765  0.0493  0.0416
 4646W        W 4646   2.980   6.312   0.969  0.0359  0.0551 -0.0828
 4647W        W 4647   9.313   5.183   7.633 -0.2479 -0.2174  0.0704
 4648W        W 4648   3.211   0.558   3.937 -0.0765 -0.2132  0.2864
 4649W        W 4649   5.612   4.045   4.587  0.0387 -0.0944  0.1802
 4650W        W 4650   8.380   3.684   7.014 -0.0743 -0.1681 -0.1895
 4651W        W 4651   4.611   5.649   6.937  0.1288 -0.2061  0.0786
 4652W        W 4652   3.611   5.516   9.315  0.1581  0.0869 -0.0012
 4653W        W 4653   9.659   2.380   0.113  0.1064  0.1172  0.4554
 4654W        W 4654   0.684   9.999   6.094 -0.1101 -0.0250  0.3674
 4655W        W 4655   3.198   6.348   7.815  0.2088 -0.1573 -0.3985
 4656W        W 4656   4.851   1.412   2.685 -0.1093  0.0214 -0.1747
 4657W        W 4657   3.903   7.477   6.774 -0.1837  0.1300 -0.0175
 4658W        W 4658   3.762  10.205   3.596 -0.0559  0.1108  0.1561
 4659W        W 4659   9.745   5.504   2.186 -0.3727 -0.1706 -0.1693
 4660W        W 4660   3.947   2.538   5.887 -0.0095  0.0192  0.1096
 4661W        W 4661   0.727   2.710   6.109  0.2934  0.3353 -0.0207
 4662W        W 4662   0.747   6.067   9.130  0.1604  0.0674  0.2977
 4663W        W 4663   7.195   8.375   9.822  0.0392 -0.2552  0.0726
 4664W        W 4664   9.208   0.613   9.301 -0.1853 -0.3410 -0.1942
 4665W        W 4665   4.128  10.186   8.659  0.4971 -0.1722  0.0992
 4666W        W 4666   5.984   0.397   7.117 -0.2105 -0.2685  0.3067
 4667W        W 4667   7.257   2.352   8.086 -0.2325  0.1244  0.0858
 4668W        W 4668   1.151   8.354   2.690 -0.4035  0.0087 -0.3328
 4669W        W 4669   6.471   1.100  10.027  0.0436  0.1870  0.1747
 4670W        W 4670   2.752  10.061   3.722  0.1393 -0.4377 -0.0677
 4671W        W 4671   2.032   2.887   7.670 -0.2290 -0.0452  0.0723
 4672W        W 4672   5.526   3.519   3.456  0.3592 -0.1115 -0.0139
 4673W        W 4673   0.630   0.048   1.618  0.0332  0.1320  0.3545
 4674W        W 4674   5.158   1.156   6.075 -0.3376 -0.0533 -0.2742
 4675W        W 4675   7.622   7.116   2.553 -0.1153 -0.0070  0.0335
 4676W        W 4676   0.367   5.790   6.936  0.0198 -0.3828 -0.0308
 4677W        W 4677   1.915   3.180   2.184 -0.0745  0.2540  0.2111
 4678W        W 4678   4.851   5.545   7.760  0.0956 -0.1076 -0.1892
 4679W        W 4679   6.905   1.869   5.486  0.1467  0.2601  0.0572
 4680W        W 4680   0.278   5.865   2.989 -0.2472 -0.1752  0.3418
 4681W        W 4681   3.160   4.931   9.689 -0.2600  0.1258  0.0452
 4682W        W 4682   4.108   0.501   3.400 -0.0982  0.1028  0.0473
 4683W        W 4683   3.049   4.773   0.155  0.0767  0.1511  0.2289
 4684W        W 4684   9.168   4.400   0.204  0.0897 -0.0819 -0.3132
 4685W        W 4685   6.712   8.961   3.970 -0.1398 -0.3649  0.4768
 4686W        W 4686   7.499   4.763   1.376  0.1153 -0.3072 -0.1686
 4687W        W 4687   3.081   5.878   2.036 -0.1337 -0.0499  0.2233
 4688W        W 4688   3.742   4.987   4.315  0.4831  0.0855 -0.2107
 4689W        W 4689  10.273   7.380   4.615  0.1207 -0.0959 -0.2596
 4690W        W 4690   2.301   6.542   7.507 -0.0384  0.2503 -0.0680
 4691W        W 4691   0.420   9.394   2.332  0.3146  0.1002 -0.1581
 4692W        W 4692   3.996   7.890   7.383 -0.0655  0.0615 -0.2121
 4693W        W 4693   4.936   4.608   5.665 -0.3079  0.2339  0.1232
 4694W        W 4694   2.834   5.575   4.834  0.2239 -0.1585  0.0765
 4695W        W 4695   8.735   6.149   4.304  0.0027 -0.0683 -0.2137
 4696W        W 4696   9.139   7.710   9.803  0.2702 -0.0537 -0.0251
 4697W        W 4697   1.336   4.170   5.082  0.0330  0.1895  0.0572
 4698W        W 4698   6.066   0.452   6.272  0.0903  0.1694 -0.0858
 4699W        W 4699   8.811   9.311   5.686  0.1099 -0.0593  0.2057
 4700W        W 4700   3.533   2.617   6.821  0.1623  0.0378  0.2288
 4701W        W 4701   5.254   7.724   0.142  0.2155  0.0131  0.2263
 4702W        W 4702   2.278   3.390   4.396  0.1665  0.1168  0.1576
 4703W        W 4703   4.133   3.064   1.030  0.0437 -0.2803 -0.1099
 4704W        W 4704   8.185   0.861   3.624  0.1348 -0.1534  0.1048
 4705W        W 4705   9.454   5.254   7.138  0.1767  0.1329  0.2835
 4706W        W 4706   3.101   1.224  10.119 -0.3314 -0.1503  0.0127
 4707W        W 4707   2.757   9.977   5.296  0.1343 -0.0526  0.3377
 4708W        W 4708   9.431   9.764   3.064  0.3398  0.1042  0.0894
 4709W        W 4709   8.119   1.410   5.589 -0.0751  0.1367  0.0805
 4710W        W 4710   0.858  10.159   4.136 -0.1670  0.0348 -0.1787
 4711W        W 4711   8.488   4.967   3.114 -0.1800  0.0953  0.0266
 4712W        W 4712   6.624   0.625   9.020 -0.1490  0.1153  0.1467
 4713W        W 4713   1.949   9.780   0.257 -0.1363 -0.1306 -0.0423
 4714W        W 4714   7.333   1.743   0.463 -0.0448  0.3458 -0.0362
 4715W        W 4715   1.669   9.485   2.711 -0.0233  0.4049  0.0122
 4716W        W 4716   3.702   5.354   5.903 -0.1624 -0.2932  0.3004
 4717W        W 4717   3.653   8.504   8.314  0.0300 -0.0840  0.2813
 4718W        W 4718   2.905   8.976   7.904 -0.0484  0.0425 -0.0127
 4719W        W 4719   1.002   5.910   6.373 -0.1885  0.0814 -0.2048
 4720W        W 4720   9.514   6.343   7.811 -0.1134 -0.1218  0.2293
 4721W        W 4721   3.371   0.663   3.432 -0.0419  0.1217 -0.1807
 4722W        W 4722   1.721   9.426   4.338 -0.2439  0.1517  0.1175
 4723W        W 4723   4.490   3.052   2.418 -0.1160  0.1936 -0.2266
 4724W        W 4724   8.628   9.118   1.471 -0.3205 -0.1923 -0.0480
 4725W        W 4725   7.252   9.454   0.790 -0.2562  0.4944  0.1587
 4726W        W 4726   7.055   7.568   4.270  0.3088 -0.1588 -0.1267
 4727W        W 4727   3.645   4.371   6.510 -0.0010 -0.1225 -0.0274
 4728W        W 4728   0.480   6.004   6.452 -0.4580 -0.1662  0.0155
 4729W        W 4729   4.485   7.433   5.741 -0.0367 -0.1715 -0.1362
 4730W        W 4730   9.644  10.066   5.518 -0.2861  0.3128 -0.0943
 4731W        W 4731   4.486   7.666   4.178  0.1134 -0.2021  0.1565
 4732W        W 4732   2.047   0.915   0.476 -0.0131 -0.0565 -0.0308
 4733W        W 4733   3.050   7.499   0.062  0.2107  0.0540  0.0649
 4734W        W 4734   3.960   6.905   7.407 -0.0584  0.5222 -0.0896
 4735W        W 4735   0.442   7.597   6.462  0.2373  0.1003 -0.0561
 4736W        W 4736  10.237   7.583   7.741 -0.0615  0.3910  0.4922
 4737W        W 4737  10.175   4.168   2.265 -0.1230  0.0358 -0.1114
 4738W        W 4738   6.026   3.156   8.432  0.1365  0.0823 -0.0093
 4739W        W 4739   9.797   2.648   6.832 -0.0310 -0.0607  0.0021
 4740W        W 4740  10.185   2.325   6.812  0.0352  0.0990  0.0980
 4741W        W 4741   1.993   6.715   8.675  0.1277  0.0481 -0.0809
 4742W        W 4742   2.395   7.578   4.226 -0.1810  0.0210 -0.1190
 4743W        W 4743   4.161   7.810   5.897  0.0073  0.2606  0.0936
 4744W        W 4744   0.743   9.888   1.672  0.2385  0.1148 -0.2111
 4745W        W 4745   2.906   2.737   3.002 -0.0241 -0.2000 -0.0464
 4746W        W 4746   4.257   6.385   7.112  0.2025  0.4094 -0.1658
 4747W        W 4747  10.188   6.671   6.651  0.1362 -0.1904 -0.1427
 4748W        W 4748   5.414   7.838   1.343  0.2516  0.1364  0.5669
 4749W        W 4749   6.103   6.630   3.799  0.0201  0.0723  0.2504
 4750W        W 4750   1.566   6.362   1.163  0.0124  0.0723 -0.0212
 4751W        W 4751   5.316   5.250   7.956  0.0585 -0.2174  0.1525
 4752W        W 4752  10.240   4.637   5.091  0.0374  0.3156 -0.0632
 4753W        W 4753   5.166  10.303   1.688 -0.0217  0.2043  0.0730
 4754W        W 4754   0.510   6.326   7.875 -0.1328  0.0055  0.3533
 4755W        W 4755   5.510   0.705   2.891  0.2700  0.1111  0.0400
 4756W        W 4756   5.982   6.447   5.016  0.1324 -0.1736  0.1425
 4757W        W 4757   9.939   8.633   1.040  0.0162  0.0266  0.2124
 4758W        W 4758  10.187   4.427   5.575  0.2232 -0.2939 -0.2813
 4759W        W 4759   2.977   0.326   8.043  0.1072  0.1692 -0.0904
 4760W        W 4760   5.712   1.360   4.598 -0.1508 -0.0785  0.1528
 4761W        W 4761   1.050   8.656   8.649 -0.0626  0.2351  0.2775
 4762W        W 4762   6.184   5.202  10.182 -0.0373 -0.0541  0.4308
 4763W        W 4763   4.372   2.658   1.176  0.0212  0.1822  0.0820
 4764W        W 4764   6.111   6.869   6.599 -0.2260 -0.2057 -0.0126
 4765W        W 4765   8.954   2.849   7.291  0.0981  0.0263 -0.1464
 4766W        W 4766   2.819   8.083   3.536 -0.0797  0.2264 -0.1573
 4767W        W 4767   7.482   4.257   1.396  0.3710 -0.0206  0.0636
 4768W        W 4768   9.014   4.950   5.974  0.1352  0.1324  0.0455
 4769W        W 4769   4.819   7.215   5.335  0.0632 -0.0023  0.2616
 4770W        W 4770   9.697   8.556   0.630  0.1833  0.1276  0.0167
 4771W        W 4771   4.561   8.420   5.447  0.2725 -0.0964 -0.2065
 4772W        W 4772   5.196   3.278   0.156 -0.0737  0.0161 -0.1388
 4773W        W 4773   7.686  10.108   5.787  0.0528 -0.1727  0.0312
 4774W        W 4774   1.966   5.979   4.191  0.1385 -0.1136  0.3072
 4775W        W 4775   1.878   4.245   1.793 -0.1517  0.1167 -0.0207
 4776W        W 4776   2.064   2.014   6.820  0.0802 -0.1513  0.2661
 4777W        W 4777   2.674   5.989   6.821 -0.0363 -0.2219  0.0802
 4778W        W 4778   0.555   2.209   0.588 -0.0433 -0.1896 -0.4129
 4779W        W 4779   1.780   6.450  10.111  0.0793 -0.1326 -0.0753
 4780W        W 4780   1.054   4.017   9.517  0.0026  0.1113  0.1235
 4781W        W 4781   6.713   9.089   7.363  0.0076  0.0790 -0.0642
 4782W        W 4782   0.290   5.093   1.981  0.0429  0.3206  0.0061
 4783W        W 4783   5.903   9.354   7.108  0.2790 -0.0432  0.3121
 4784W        W 4784   5.532   7.322   2.760 -0.0542 -0.1908 -0.0631
 4785W        W 4785   9.504   5.006   0.072  0.2402 -0.1428 -0.1971
 4786W        W 4786   9.943   9.620   8.380  0.1143  0.4592  0.1343
 4787W        W 4787   3.977   1.018   7.213 -0.2852  0.0120 -0.0214
 4788W        W 4788   5.862   1.802   6.010  0.0469  0.1494  0.0828
 4789W        W 4789   6.498   4.477   4.187  0.1933 -0.2630 -0.0342
 4790W        W 4790   5.936  10.262   7.835  0.3718 -0.0905 -0.2024
 4791W        W 4791   1.629   8.584   2.708  0.0434  0.2200 -0.0994
 4792W        W 4792   8.041   9.663   8.596 -0.3710 -0.1254  0.0757
 4793W        W 4793   3.603   8.934   8.695  0.3317 -0.0256  0.2025
 4794W        W 4794   6.427   3.471   3.077 -0.0048 -0.1459 -0.2173
 4795W        W 4795   1.258   4.000   1.274  0.1091 -0.2755  0.1477
 4796W        W 4796   8.436   9.234   4.479 -0.0360  0.2050  0.1453
 4797W        W 4797   4.846   4.631   0.345  0.0226  0.2159 -0.3978
 4798W        W 4798   4.552   5.979   0.540 -0.0757  0.1423 -0.1703
 4799W        W 4799   2.455   1.480   1.023 -0.3389  0.2448  0.1343
 4800W        W 4800   3.993   3.371   9.769 -0.0956  0.0355  0.1123
 4801W        W 4801   5.232   2.582   8.565  0.3003  0.0711  0.0510
 4802W        W 4802   8.487   7.162   1.176 -0.0231  0.1921 -0.1918
 4803W        W 4803   6.782   2.606   2.868 -0.2839 -0.0001  0.2265
 4804W        W 4804   1.210   9.847   1.852 -0.2761 -0.1723 -0.1308
 4805W        W 4805   6.041   4.478   3.841  0.0915 -0.2070  0.0947
 4806W        W 4806   5.792   2.068   6.487  0.1512  0.1670 -0.3971
 4807W        W 4807   1.020   8.923   6.616 -0.1839  0.2196  0.0406
 4808W        W 4808   0.899   0.877   3.298 -0.1596  0.0634  0.0137
 4809W        W 4809   9.875   9.947   1.514 -0.1847  0.0849 -0.2260
 4810W        W 4810   2.525   5.799   8.075  0.3512  0.1967  0.0442
 4811W        W 4811   3.905   7.401   4.409  0.0370 -0.3698  0.2138
 4812W        W 4812   3.285   7.611   9.028  0.2745 -0.1896  0.1043
 4813W        W 4813   3.926   0.998   4.304 -0.0621 -0.0299  0.3944
 4814W        W 4814   3.835   9.590   2.343 -0.0280  0.0085 -0.1250
 4815W        W 4815   2.880   5.357   4.016 -0.0921  0.0100 -0.0824
 4816W        W 4816   5.830   6.155   0.751  0.2494  0.0110 -0.0188
 4817W        W 4817   8.568   7.904   7.475 -0.0434  0.1715 -0.0803
 4818W        W 4818   7.752   4.818   3.499 -0.1788  0.0472  0.1832
 4819W        W 4819   3.078   3.890   9.754  0.1813  0.1126 -0.2533
 4820W        W 4820   1.281   6.317   6.465  0.1565 -0.2193  0.0096
 4821W        W 4821   4.317   4.743   0.154  0.1135 -0.1164 -0.0056
 4822W        W 4822   3.380   7.490   3.387  0.1218 -0.0173 -0.0920
 4823W        W 4823   4.591   0.170   5.094  0.0485  0.0059 -0.2491
 4824W        W 4824   0.700   7.920   3.517 -0.0066  0.2187 -0.0079
 4825W        W 4825   7.732   2.955   9.915  0.1974 -0.5087 -0.0566
 4826W        W 4826   0.542   2.701   5.643  0.0161 -0.0301 -0.0591
 4827W        W 4827   8.739   7.055   8.658 -0.0190 -0.1642  0.1014
 4828W        W 4828   1.940   9.732   3.015  0.0638  0.0799 -0.0062
 4829W        W 4829   4.734   1.155   1.969  0.0585 -0.2835 -0.1587
 4830W        W 4830  10.046   1.609   7.276  0.0353  0.1175 -0.0458
 4831W        W 4831   4.311   9.188   5.620  0.0087 -0.1302 -0.0197
 4832W        W 4832   7.604   0.506   4.514 -0.4221  0.2107 -0.1159
 4833W        W 4833   5.336   9.526   5.772  0.1559 -0.0222  0.4583
 4834W        W 4834   2.581   9.192   1.225  0.0900 -0.1220 -0.0343
 4835W        W 4835   9.981   9.164   6.545  0.1183 -0.0359  0.0411
 4836W        W 4836   1.608  10.034   4.442 -0.0414 -0.2175 -0.0431
 4837W        W 4837   7.877   4.843   8.492 -0.0489  0.0805 -0.0805
 4838W        W 4838   2.307   7.971   1.148  0.0214 -0.1436  0.2671
 4839W        W 4839   6.489   2.526   0.613 -0.1323  0.2066 -0.0286
 4840W        W 4840   9.218   5.794   6.333 -0.1322  0.0727 -0.0113
 4841W        W 4841   5.285   2.548   7.786  0.0227 -0.0780 -0.0124
 4842W        W 4842   0.329   9.388   1.687 -0.1207  0.4161  0.0846
 4843W        W 4843   5.202   1.260   4.821  0.4424  0.0832  0.1521
 4844W        W 4844   3.802   5.709   1.139 -0.0131 -0.4153 -0.1304
 4845W        W 4845   9.957   1.720   3.273  0.0376  0.1459 -0.2902
 4846W        W 4846   0.262   5.593   8.310  0.0240  0.2561 -0.2686
 4847W        W 4847   9.629   3.546   3.039  0.0136  0.0493 -0.1777
 4848W        W 4848   3.172   5.880   7.024 -0.0316 -0.1142  0.3203
 4849W        W 4849   6.078   9.384   5.379  0.1983  0.0864 -0.0162
 4850W        W 4850   0.619   4.647   6.964  0.1483 -0.0792  0.1689
 4851W        W 4851   8.921   2.965   5.804  0.2902 -0.0522  0.2693
 4852W        W 4852   5.838   3.178   9.789  0.0850 -0.0047  0.2435
 4853W        W 4853   9.136   0.638   5.846 -0.0256  0.1038 -0.1087
 4854W        W 4854   9.832   8.698   8.326 -0.0478  0.2694 -0.2060
 4855W        W 4855   9.513   0.088   2.774 -0.1011  0.3297 -0.0953
 4856W        W 4856   1.290   4.539   4.712  0.2165  0.2497  0.0759
 4857W        W 4857   9.749   2.213   6.516  0.1970 -0.3494 -0.4714
 4858W        W 4858   3.533   8.676   3.929 -0.0214 -0.0071  0.0220
 4859W        W 4859   2.302  10.237   9.056  0.2097  0.2968  0.0985
 4860W        W 4860   1.380   0.037   4.191 -0.1019  0.0706  0.1517
 4861W        W 4861   9.556   0.663   6.625 -0.1811 -0.1210  0.2190
 4862W        W 4862   1.422   7.739   4.776 -0.0908  0.1276 -0.0288
 4863W        W 4863   4.665   2.679   0.214 -0.0836 -0.1224  0.1383
 4864W        W 4864   7.592   8.330   6.257  0.1453  0.3130 -0.2548
 4865W        W 4865   9.915   4.919   0.380 -0.2377 -0.0423  0.0714
 4866W        W 4866   7.965   7.259   7.573 -0.0967 -0.3338 -0.2405
 4867W        W 4867   2.856   9.299   2.773 -0.0091  0.2420  0.1568
 4868W        W 4868   0.703   2.149   0.127 -0.1994 -0.0934  0.2837
 4869W        W 4869   3.581   6.200   3.329  0.1933 -0.0411  0.0063
 4870W        W 4870   9.810   7.240   8.634  0.1281 -0.3126  0.1931
 4871W        W 4871   0.288   4.888   1.081 -0.0361 -0.0022  0.1177
 4872W        W 4872   1.228   5.960   5.950 -0.1695  0.3619  0.2540
 4873W        W 4873   6.917   7.297   3.617  0.4969  0.4127  0.1097
 4874W        W 4874   0.086   0.987   3.740 -0.1296 -0.0530 -0.2554
 4875W        W 4875   6.895   6.652   4.299 -0.1855 -0.0114 -0.0253
 4876W        W 4876   0.216   3.074   0.248 -0.3143 -0.1564  0.1294
 4877W        W 4877   7.248   7.115   4.431 -0.0381 -0.1761 -0.0897
 4878W        W 4878   8.156   4.025   2.783  0.2696 -0.0550  0.1376
 4879W        W 4879   3.718   0.229   7.395 -0.0884 -0.1108 -0.1810
 4880W        W 4880  10.125   3.974   0.939  0.2927 -0.1830 -0.1692
 4881W        W 4881   4.748   3.676   6.210 -0.0885  0.2043  0.2907
 4882W        W 4882   4.642   4.288   6.610 -0.1180 -0.1697  0.1401
 4883W        W 4883   7.301   0.839   2.102 -0.0382  0.1368  0.5462
 4884W        W 4884   8.650   4.662   2.236 -0.1410  0.0747 -0.0783
 4885W        W 4885   7.769   4.748   6.704  0.1658  0.0210 -0.2318
 4886W        W 4886   6.590   1.496   0.017  0.1098 -0.1494 -0.0031
 4887W        W 4887   1.093   9.843   6.732  0.0954 -0.0702  0.0357
 4888W        W 4888   7.494   0.542   6.837  0.1698  0.0557 -0.0870
 4889W        W 4889   2.452   4.311   7.011  0.0456 -0.1750  0.4106
 4890W        W 4890   6.897   6.644   6.021 -0.3604 -0.2352  0.1119
 4891W        W 4891   3.005   8.461   4.713 -0.0361 -0.3052  0.1448
 4892W        W 4892   1.507   2.904   6.507 -0.1646 -0.2464  0.1619
 4893W        W 4893   6.349   7.961   8.196 -0.2153 -0.0885 -0.3855
 4894W        W 4894   2.473   7.307   3.802 -0.0248 -0.0402 -0.1966
 4895W        W 4895  10.126   3.412   7.583 -0.0195  0.0480 -0.2196
 4896W        W 4896   5.501   1.970   3.368  0.1181  0.0961 -0.4354
 4897W        W 4897   3.028   2.945   8.804  0.3019  0.0452  0.1848
 4898W        W 4898   3.643   5.225   6.962 -0.0764 -0.0817  0.1872
 4899W        W 4899   2.815   1.744   7.507 -0.3304  0.3879  0.0666
 4900W        W 4900   8.597   3.860   1.297 -0.0538  0.0949 -0.1458
 4901W        W 4901   7.650   5.857   9.984  0.1803  0.0221  0.0216
 4902W        W 4902   9.129   6.569   6.822  0.0683  0.0288 -0.0285
 4903W        W 4903   6.810   4.341   5.218 -0.0203 -0.1892 -0.2240
 4904W        W 4904   2.326   7.341   5.048  0.2136 -0.3989  0.1433
 4905W        W 4905   7.781   5.804   9.501  0.1479  0.0497  0.2674
 4906W        W 4906   1.339   2.528   0.636  0.3017  0.0811 -0.0703
 4907W        W 4907   0.676   9.934   9.571 -0.1094  0.2733 -0.0950
 4908W        W 4908   2.052   3.394   9.194 -0.1687 -0.4529  0.1677
 4909W        W 4909   7.949   5.670   3.579  0.0678  0.1819  0.1981
 4910W        W 4910   0.626   6.547   3.685  0.2388  0.0585 -0.2435
 4911W        W 4911   3.773   9.114   2.591 -0.2617 -0.2280 -0.0174
 4912W        W 4912   9.838   0.699   0.720 -0.1888  0.1022 -0.0157
 4913W        W 4913   1.483   7.416   3.338 -0.1194 -0.1989 -0.0592
 4914W        W 4914   9.663  10.064   8.281 -0.3605  0.0101 -0.0049
 4915W        W 4915   9.783   3.216   5.681 -0.0635  0.0090 -0.2593
 4916W        W 4916   8.787   6.610   5.266  0.1326 -0.2137  0.1342
 4917W        W 4917   1.258   9.448   2.263  0.4087 -0.1144 -0.1488
 4918W        W 4918   2.781   8.824   9.321  0.2554  0.2605  0.1298
 4919W        W 4919   1.362   1.379   4.115  0.0965  0.1467  0.0685
 4920W        W 4920   1.723   1.576   5.140 -0.3434  0.1711  0.0573
 4921W        W 4921   9.714   3.782   7.853  0.1366  0.1487  0.3981
 4922W        W 4922   3.628   1.804   4.079 -0.0947  0.2905 -0.0000
 4923W        W 4923   1.030   4.571   2.433  0.0145  0.3772 -0.0270
 4924W        W 4924   0.498   2.241   8.175  0.0929 -0.1716 -0.1617
 4925W        W 4925   1.200   7.467   7.324 -0.1452 -0.0993  0.3481
 4926W        W 4926   8.770   3.525   4.901  0.1289  0.5588  0.0729
 4927W        W 4927   3.764   9.692   3.646 -0.0348 -0.0048  0.1354
 4928W        W 4928   8.483   2.441   9.620 -0.1658  0.1789  0.1104
 4929W        W 4929   9.077   1.585   2.865 -0.2865  0.0439 -0.1426
 4930W        W 4930   5.042   6.050   0.602 -0.1401  0.2283 -0.0077
 4931W        W 4931  10.022   4.075   5.929 -0.0710  0.1458 -0.2467
 4932W        W 4932   5.848   5.127   4.534  0.3495 -0.0170  0.2131
 4933W        W 4933   6.090   6.119   7.306  0.0419 -0.0950  0.3367
 4934W        W 4934   9.327   8.653   7.419  0.5078 -0.1118 -0.1250
 4935W        W 4935   2.459   5.757   4.111  0.1018 -0.3160 -0.0705
 4936W        W 4936   2.732   9.165   4.108 -0.0189  0.0487  0.0945
 4937W        W 4937   3.915   7.719   3.403 -0.0958 -0.3136  0.0264
 4938W        W 4938   0.222   8.514   5.844  0.2798  0.2251 -0.1189
 4939W        W 4939   4.622   6.861   3.926 -0.2427  0.2763 -0.0427
 4940W        W 4940   0.446   2.307   2.889 -0.1285  0.0699 -0.1274
 4941W        W 4941   8.916   7.584   8.942 -0.1851  0.2699 -0.0543
 4942W        W 4942   3.115   3.911   5.790  0.4403  0.1461  0.1283
 4943W        W 4943   6.815   9.808   0.899 -0.1845  0.0474  0.2635
 4944W        W 4944   9.628   6.761   1.718 -0.1129 -0.0930 -0.1101
 4945W        W 4945   6.177   1.436   8.015  0.1838  0.1236  0.0834
 4946W        W 4946   2.313   7.107   0.809  0.0071 -0.0177 -0.0144
 4947W        W 4947   0.413   3.139  10.046 -0.1612 -0.1372  0.1064
 4948W        W 4948   2.055   2.253   5.745  0.2487  0.0895 -0.2722
 4949W        W 4949   0.967   0.212   3.796 -0.1813  0.0960 -0.0523
 4950W        W 4950   0.971   7.059   7.093  0.1547 -0.2211 -0.3386
 4951W        W 4951   3.505   0.890   7.764 -0.2198  0.1758 -0.0449
 4952W        W 4952   6.603   9.444   4.721  0.2918 -0.0496 -0.0412
 4953W        W 4953   2.406  10.034   6.979 -0.0578  0.2412  0.1183
 4954W        W 4954   6.642   2.897   5.683  0.1259  0.0517 -0.0978
 4955W        W 4955   9.823   2.961   1.376  0.1457  0.0315 -0.2779
 4956W        W 4956   9.601   5.592   8.040  0.1003 -0.1712  0.0795
 4957W        W 4957   0.910   7.801   4.874 -0.2523  0.2951  0.2308
 4958W        W 4958   2.354   4.285   4.482  0.4041 -0.4037  0.0347
 4959W        W 4959   9.943   4.110   5.094  0.1857  0.1763  0.3725
 4960W        W 4960   8.299   5.964   6.956 -0.1604  0.2032 -0.0641
 4961W        W 4961   6.503   0.681   9.710 -0.1581 -0.0216 -0.0225
 4962W        W 4962   6.518   0.144   5.948  0.1525 -0.1993  0.1812
 4963W        W 4963   4.313   2.161   1.143  0.0207  0.0235 -0.2766
 4964W        W 4964   4.206   6.290   0.615  0.1469  0.1593 -0.2509
 4965W        W 4965   2.209   2.394   5.016  0.1537  0.1304 -0.2858
 4966W        W 4966   8.597   8.204   6.469 -0.0136 -0.0306  0.1222
 4967W        W 4967   4.525   8.404   5.942  0.2158 -0.2375 -0.3470
 4968W        W 4968   5.549   9.257   2.260  0.3110  0.0274 -0.0546
 4969W        W 4969   2.755   3.625   4.374  0.0421 -0.2616 -0.2158
 4970W        W 4970   3.220   0.275   7.420  0.1837 -0.3818 -0.0708
 4971W        W 4971   9.784   1.063   2.781  0.1072 -0.2989  0.2332
 4972W        W 4972   6.466   6.360   8.813 -0.0410  0.1203  0.1145
 4973W        W 4973   8.800   3.954   5.741  0.0501 -0.0855  0.2913
 4974W        W 4974   1.162   2.025   3.996 -0.2320  0.1923  0.2047
 4975W        W 4975   0.957   0.023   6.353 -0.2594  0.5460  0.1592
 4976W        W 4976   7.558   2.175   3.920 -0.0840 -0.1019 -0.1015
 4977W        W 4977   2.380   9.139   9.122 -0.0283 -0.4395  0.1603
 4978W        W 4978   6.265   3.758   0.293  0.0486 -0.1691 -0.2231
 4979W        W 4979   1.105   8.027   4.428 -0.1672 -0.0219 -0.0287
 4980W        W 4980   7.622   6.617   9.220 -0.1073  0.0563 -0.0232
 4981W        W 4981   8.896   9.053   4.331  0.0349 -0.4958  0.0325
 4982W        W 4982   9.777   9.463   2.710  0.0605 -0.0553 -0.1462
 4983W        W 4983   8.401   7.472   8.787 -0.2999 -0.2351 -0.1879
 4984W        W 4984   6.345   3.121   2.713  0.4030  0.1401 -0.0874
 4985W        W 4985   0.275   3.718   8.004 -0.1250 -0.1647 -0.0902
 4986W        W 4986   3.032   5.045   3.237  0.2312 -0.0299 -0.0496
 4987W        W 4987   5.179   8.122   8.192 -0.0954  0.2031  0.1484
 4988W        W 4988   8.219   1.239   3.972  0.0491 -0.0548  0.0699
 4989W        W 4989   7.249  10.011   8.776  0.1456  0.2657 -0.1978
 4990W        W 4990   4.540   4.583   9.314 -0.1915  0.1332 -0.1521
 4991W        W 4991   6.104   4.495   8.974 -0.0316  0.0319  0.0390
 4992W        W 4992   3.545   5.880   1.714  0.1555 -0.0219  0.0739
 4993W        W 4993   6.514   4.448   1.416 -0.0005  0.1552  0.1647
 4994W        W 4994   2.538   3.216   9.414 -0.3075  0.1713  0.1562
 4995W        W 4995   7.977   9.771   0.573  0.0007  0.1603  0.0185
 4996W        W 4996   0.676   8.262   4.564 -0.0878  0.0210 -0.0626
 4997W        W 4997   7.031   8.559   9.012  0.4447  0.2053  0.1955
 4998W        W 4998   6.744   3.376   4.712 -0.1566  0.1226  0.1581
 4999W        W 4999   3.599   4.940   7.399  0.1675 -0.1968  0.0751
 5000W        W 5000   5.894   5.851   2.041  0.0498 -0.1350 -0.0534
 5001W        W 5001   3.132   3.252   0.519  0.2650  0.0617  0.2145
 5002W        W 5002   2.358   5.588   2.787 -0.2794  0.0108 -0.0373
 5003W        W 5003   4.226   5.858   0.929 -0.1023 -0.1520  0.1962
 5004W        W 5004   0.793   9.587   4.739  0.0566  0.0328  0.1412
 5005W        W 5005   6.128  10.055   8.314  0.0575 -0.2615  0.3023
 5006W        W 5006   6.889   6.488  10.023  0.1526 -0.0909 -0.2501
 5007W        W 5007   5.401   2.042   6.141  0.3736  0.0858  0.0015
 5008W        W 5008   9.441   1.058   5.295 -0.1995  0.2619 -0.0928
 5009W        W 5009   9.124   4.142   7.066 -0.0573  0.1831 -0.1582
 5010W        W 5010   7.436   6.277   8.709 -0.0352 -0.2661 -0.3392
 5011W        W 5011   6.595   7.327   0.494  0.1137  0.0430 -0.2222
 5012W        W 5012   4.200   6.718   3.190 -0.0244  0.1991  0.0660
 5013W        W 5013   6.987   5.187   4.837  0.0870 -0.0661  0.0184
 5014W        W 5014   7.891   6.820   2.814 -0.2349 -0.0845 -0.0675
 5015W        W 5015   9.874   9.219  10.152  0.0091  0.0821  0.3974
 5016W        W 5016   9.993   1.789   1.150  0.1037 -0.1950 -0.0194
 5017W        W 5017   3.565   5.842   6.122  0.2166  0.1226  0.2181
 5018W        W 5018   7.080   2.414  10.203  0.2175  0.2188  0.3110
 5019W        W 5019   4.555   1.952   1.563  0.2670  0.0562 -0.1385
 5020W        W 5020   3.717   9.261   1.164 -0.1646 -0.1176 -0.0424
 5021W        W 5021   6.019   4.953   1.070  0.0743  0.1723 -0.3243
 5022W        W 5022   5.289   6.461   2.744 -0.0239 -0.0042 -0.1682
 5023W        W 5023   5.013   8.280   4.687  0.0944  0.5250  0.0419
 5024W        W 5024   4.411   5.506   1.282 -0.2526  0.3235  0.2567
 5025W        W 5025  10.222   6.354   2.448  0.0231 -0.1004  0.0627
 5026W        W 5026   1.931   1.395   7.492  0.0646 -0.1083  0.1553
 5027W        W 5027   0.921   0.726   6.824 -0.0114 -0.1948 -0.0155
 5028W        W 5028   5.020   4.282   6.986  0.2418  0.0425 -0.0797
 5029W        W 5029   9.704   9.001   1.907  0.0546 -0.0317 -0.1539
 5030W        W 5030   4.171   9.682   0.929  0.0715 -0.2440  0.1315
 5031W        W 5031   9.973   9.668  10.299  0.0642 -0.2504  0.0863
 5032W        W 5032   6.860   8.287   0.852  0.5777  0.4277  0.1055
 5033W        W 5033   3.995   6.466   8.971 -0.1776  0.2023 -0.3028
 5034W        W 5034   0.968   4.366   8.193  0.0993 -0.1538 -0.1358
 5035W        W 5035   5.078   1.337   3.149  0.0028  0.0462 -0.1326
 5036W        W 5036   5.972   7.737   6.462 -0.2197 -0.1108  0.0456
 5037W        W 5037  10.123   8.339   5.316 -0.2867 -0.4631  0.1073
 5038W        W 5038   1.929   1.215   8.769 -0.1422  0.1516  0.0238
 5039W        W 5039   4.723   6.784   1.903 -0.0745 -0.0392  0.4712
 5040W        W 5040   6.708   1.285   3.104  0.0135 -0.2278 -0.3208
 5041W        W 5041   2.981   2.323   1.565  0.2422  0.0856  0.0690
 5042W        W 5042   6.523   0.243   1.094  0.0324 -0.2032 -0.1800
 5043W        W 5043   6.697   7.839   9.879 -0.0033 -0.4839 -0.0044
 5044W        W 5044   3.642   5.015   0.384 -0.0470  0.1018  0.1514
 5045W        W 5045   0.154   5.847   6.021 -0.1287 -0.0891 -0.0262
 5046W        W 5046   2.293   8.508   9.769  0.2410 -0.2164  0.0386
 5047W        W 5047   1.371   3.915   7.237 -0.1210 -0.0752  0.0369
 5048W        W 5048   9.309  10.014   6.450 -0.3170  0.2116  0.0973
 5049W        W 5049   0.416   4.519   7.393  0.1504  0.0247  0.1884
 5050W        W 5050   3.912   3.839   9.584 -0.1296 -0.0448 -0.0639
 5051W        W 5051   1.082   7.282   2.206 -0.1362 -0.0515  0.3395
 5052W        W 5052   4.595   6.130   6.808 -0.0189  0.1337 -0.2811
 5053W        W 5053   3.184   4.592   6.272 -0.2265 -0.2736 -0.0015
 5054W        W 5054   1.203   1.854   5.960  0.0849  0.0877  0.0290
 5055W        W 5055   8.934   1.940   5.742  0.3460 -0.2110 -0.0490
 5056W        W 5056   4.454   0.113   5.563  0.1131  0.0498  0.0055
 5057W        W 5057   3.930   0.043   5.532 -0.0356  0.3483 -0.0581
 5058W        W 5058   7.777   9.454   1.659 -0.1207 -0.1501 -0.1471
 5059W        W 5059   8.752   9.261   0.673 -0.3340 -0.0826  0.2066
 5060W        W 5060   9.755   3.939   2.464 -0.1798  0.2303 -0.0518
 5061W        W 5061   4.518   6.576   7.978  0.2227 -0.1903 -0.0173
 5062W        W 5062   5.047   5.229   0.784 -0.1367 -0.1581 -0.1408
 5063W        W 5063   0.675   4.407   8.954  0.2952  0.1337 -0.0380
 5064W        W 5064   2.259   7.633   5.436  0.0845 -0.0800  0.0820
 5065W        W 5065   6.333   3.586   8.360  0.2571  0.1483  0.1628
 5066W        W 5066   9.468   1.631   2.087  0.0405  0.2865  0.0215
 5067W        W 5067   6.246   4.619   7.941  0.0725  0.2578  0.0376
 5068W        W 5068   7.160  10.242   2.277 -0.1271 -0.0918 -0.4411
 5069W        W 5069   1.936  10.285   4.191 -0.0352  0.2514 -0.1353
 5070W        W 5070   4.711   7.847   4.623 -0.1335 -0.2859 -0.0567
 5071W        W 5071   8.764   8.340   8.654  0.3053 -0.0888  0.5007
 5072W        W 5072   0.311   0.288   7.589  0.0306 -0.3153 -0.3054
 5073W        W 5073   2.679   9.311   4.667  0.0677  0.3651 -0.1813
 5074W        W 5074   5.067   8.614   9.861  0.0268  0.3334  0.3662
 5075W        W 5075   6.081   0.384   5.230  0.0548 -0.0523 -0.1592
 5076W        W 5076   9.365   2.072   7.742  0.0295 -0.2173  0.1429
 5077W        W 5077   0.108   1.241   8.930 -0.0279  0.2608  0.1257
 5078W        W 5078   6.696   3.595   5.701  0.2353 -0.1460  0.0102
 5079W        W 5079   3.008   4.440   8.343 -0.0949  0.1487  0.2754
 5080W        W 5080   8.461   4.604   8.038  0.0489 -0.1664 -0.0050
 5081W        W 5081   1.819   0.981   2.525  0.0019 -0.2014 -0.0159
 5082W        W 5082   0.086   7.266   3.275  0.3080  0.0648 -0.1073
 5083W        W 5083   9.427   8.938  10.206  0.0855 -0.0401  0.0090
 5084W        W 5084   2.805   0.577   1.113  0.1576 -0.1659 -0.1415
 5085W        W 5085   9.673   3.817   8.717 -0.1594  0.1036 -0.0090
 5086W        W 5086   7.136   9.679   8.354 -0.2686 -0.1808 -0.1091
 5087W        W 5087   0.270   1.588   7.115  0.1286  0.0243 -0.2561
 5088W        W 5088   5.168   6.991   2.631 -0.0551 -0.2935 -0.3200
 5089W        W 5089   3.424   1.871   6.439  0.0385 -0.1474  0.0453
 5090W        W 5090   1.037   7.207   9.193  0.4267 -0.2135  0.1336
 5091W        W 5091   1.439   0.208   0.394 -0.1994 -0.0255  0.1151
 5092W        W 5092   4.588   7.211   6.185  0.2899  0.1252  0.0062
 5093W        W 5093   6.834   3.395   8.268 -0.0056  0.2642  0.2393
 5094W        W 5094   1.367   2.147   9.704 -0.1225 -0.0191  0.3168
 5095W        W 5095   4.151   5.922   1.467  0.0735  0.3406 -0.1533
 5096W        W 5096   3.141   4.769   3.750  0.0349 -0.0110 -0.0997
 5097W        W 5097   3.784   8.405   7.053 -0.4000  0.1568 -0.0119
 5098W        W 5098   3.635   1.942   5.306 -0.1945 -0.0241 -0.1845
 5099W        W 5099   6.855   1.831   4.237  0.1429 -0.0815  0.2801
 5100W        W 5100   4.477   7.257   6.721 -0.0786 -0.2208 -0.2968
 5101W        W 5101   2.134   4.907   0.244  0.1176 -0.0430 -0.0012
 5102W        W 5102  10.067  10.349   9.217 -0.4497  0.2027 -0.2137
 5103W        W 5103  10.348   1.466   0.325 -0.1939 -0.0416 -0.1087
 5104W        W 5104   0.627   3.143   5.823  0.0726  0.2425 -0.2185
 5105W        W 5105   0.935   3.903   2.754  0.0698 -0.2616  0.0405
 5106W        W 5106   7.841   7.497   3.619 -0.0645  0.2894  0.0642
 5107W        W 5107   8.823   1.456   5.675  0.3637  0.0466 -0.1399
 5108W        W 5108   5.395   5.655   8.299 -0.5669  0.0553  0.0124
 5109W        W 5109   3.160  10.261   2.262 -0.0086 -0.1505  0.2936
 5110W        W 5110   3.938   3.955   5.330  0.0892 -0.1390  0.0567
 5111W        W 5111   9.468   7.649   8.767  0.2588  0.2448 -0.0569
 5112W        W 5112   8.911  10.258   6.672  0.1709  0.1423  0.1919
 5113W        W 5113   1.437   7.340   8.619 -0.2128 -0.1816 -0.2272
 5114W        W 5114   9.533   8.788   2.376  0.0528  0.0942  0.0166
 5115W        W 5115   8.340   4.560   8.591 -0.0248  0.2343  0.0984
 5116W        W 5116   7.313   7.797   2.600  0.0417 -0.0284 -0.0979
 5117W        W 5117   9.704   2.839   6.375  0.1477 -0.0078 -0.1274
 5118W        W 5118   6.352   6.120   1.900  0.1844  0.0149 -0.1835
 5119W        W 5119   2.691   2.780   0.579 -0.2409  0.0061 -0.3338
 5120W        W 5120   9.385   9.316   4.488 -0.0207  0.0764 -0.2145
 5121W        W 5121   2.705   9.600   5.686 -0.0225 -0.0709 -0.0524
 5122W        W 5122   4.331  10.149   5.934 -0.2096 -0.0603 -0.1090
 5123W        W 5123   6.408   3.600   7.228  0.0614  0.0043 -0.0641
 5124W        W 5124   1.910   5.672   0.549 -0.0557  0.2275  0.0707
 5125W        W 5125   5.958   8.710   3.820  0.0438 -0.1179 -0.4072
 5126W        W 5126   6.858   9.490   2.893 -0.3222  0.1630  0.3065
 5127W        W 5127   5.966   2.343   5.526  0.5360  0.2221 -0.1665
 5128W        W 5128   2.841   6.316   5.808 -0.1184  0.1876 -0.1971
 5129W        W 5129   7.316   9.001   9.091  0.2753 -0.1325 -0.0233
 5130W        W 5130  10.084   6.695   7.414  0.0063  0.1266 -0.1105
 5131W        W 5131   7.172   3.200   0.271 -0.0754  0.3023  0.0959
 5132W        W 5132   3.037   0.855   7.980 -0.1116  0.2829 -0.0293
 5133W        W 5133  10.175   0.372   0.825 -0.0973  0.0871 -0.0278
 5134W        W 5134   2.690   8.246   9.948  0.0044 -0.1129  0.0362
 5135W        W 5135   2.559   2.280   9.554  0.2302 -0.0468  0.0795
 5136W        W 5136   7.121   5.766   0.292  0.4451  0.2544  0.0066
 5137W        W 5137   1.480   5.134   4.300  0.1385  0.1440  0.3126
 5138W        W 5138   5.850   0.319   6.660  0.0169  0.0129 -0.2202
 5139W        W 5139   5.665   3.934   1.840  0.1508 -0.1825  0.1402
 5140W        W 5140   5.137   2.293   8.168 -0.0216 -0.1504  0.1351
 5141W        W 5141   1.980   1.542   1.672  0.0376  0.1010 -0.0726
 5142W        W 5142   1.014   6.584   0.194  0.1245 -0.2047  0.0482
 5143W        W 5143   6.479   6.302   7.777 -0.1609  0.3058  0.0352
 5144W        W 5144   2.195   7.464   1.694 -0.3514 -0.2159  0.0864
 5145W        W 5145   2.971   1.168   6.295  0.0859  0.0717 -0.0320
 5146W        W 5146   2.236   5.053   8.591  0.1636  0.0324  0.1310
 5147W        W 5147   8.719   7.888   2.758 -0.1027  0.0340 -0.1868
 5148W        W 5148   3.193   1.566   3.935  0.1837 -0.2491 -0.1762
 5149W        W 5149   0.985   1.297   2.845  0.0342 -0.1669 -0.1779
 5150W        W 5150   5.278   0.687   6.224 -0.1814 -0.0907 -0.0608
 5151W        W 5151   6.743   0.643   0.266  0.1502  0.2095 -0.1922
 5152W        W 5152   0.214   6.946   1.741 -0.0688 -0.1371 -0.3544
 5153W        W 5153   9.423   2.398   1.203 -0.1086 -0.0416 -0.1344
 5154W        W 5154   2.428   2.910   6.105 -0.0598  0.2709 -0.2604
 5155W        W 5155   7.694   3.999   4.763 -0.1819 -0.0891 -0.2479
 5156W        W 5156   5.108   9.969   4.130  0.1575 -0.0210  0.2503
 5157W        W 5157   2.092   5.541   5.042 -0.1690  0.0988  0.2621
 5158W        W 5158   2.246   0.531   9.501 -0.2071  0.1516 -0.2025
 5159W        W 5159   0.100   0.734   3.316  0.1562 -0.1897 -0.0945
 5160W        W 5160   9.203   3.182   4.176  0.1678  0.1532  0.1878
 5161W        W 5161   4.056   3.460   5.713  0.2313  0.0475  0.4788
 5162W        W 5162  10.033   0.953   9.064  0.0509 -0.0170 -0.2721
 5163W        W 5163   9.250   9.826   7.346  0.0162  0.0451 -0.1004
 5164W        W 5164   8.287   8.584   0.259 -0.4263 -0.0852 -0.0653
 5165W        W 5165   1.476   1.932   8.370  0.1901 -0.1293 -0.2127
 5166W        W 5166   5.643   1.407   8.848  0.0629  0.0353  0.0889
 5167W        W 5167   4.795   6.901   9.030 -0.0224 -0.0451  0.2073
 5168W        W 5168   1.734   1.076   1.457 -0.0812 -0.1091  0.2497
 5169W        W 5169   1.394   7.156   9.505 -0.0065  0.1330 -0.0168
 5170W        W 5170   4.315   0.375   4.244  0.2010 -0.0413 -0.2029
 5171W        W 5171   8.682   6.312   8.445  0.1099 -0.1756 -0.4032
 5172W        W 5172   4.283   9.710   7.782 -0.0817 -0.0375 -0.3275
 5173W        W 5173  10.121   8.273   8.445 -0.3950  0.4265  0.3442
 5174W        W 5174   5.182   4.113   8.696  0.1897 -0.1747 -0.1320
 5175W        W 5175   4.230   8.958   9.490 -0.0180  0.1522  0.1905
 5176W        W 5176   0.049   3.257   7.985 -0.1363  0.0141  0.0779
 5177W        W 5177   4.333   2.733   2.904  0.1952  0.0873  0.1554
 5178W        W 5178   1.392   6.718   4.320 -0.4056 -0.2366  0.0825
 5179W        W 5179   8.338   4.276   5.605 -0.0852 -0.0268 -0.1065
 5180W        W 5180   5.471   8.426   2.140 -0.0867  0.4961 -0.0717
 5181W        W 5181   1.157   8.176   7.941  0.1607  0.2560 -0.3274
 5182W        W 5182   2.404   8.887   7.881 -0.2004  0.1247  0.0236
 5183W        W 5183   8.546   6.916   2.548 -0.1308 -0.1582 -0.0755
 5184W        W 5184   5.384   2.609   6.074 -0.2098 -0.0911 -0.2630
 5185W        W 5185   2.852   6.230   8.857  0.2221  0.1049 -0.1573
 5186W        W 5186   5.847   1.047   4.094 -0.1409 -0.0972  0.1198
 5187W        W 5187   2.623   2.518   7.245 -0.2027  0.1697  0.1690
 5188W        W 5188   1.978   0.077   6.382  0.1513 -0.1265 -0.1341
 5189W        W 5189   6.872   5.034   8.673  0.0655  0.2318  0.0135
 5190W        W 5190   8.058   2.923   7.903  0.0579 -0.0159  0.1504
 5191W        W 5191   5.352   5.850   9.272 -0.1748  0.0676  0.2851
 5192W        W 5192  10.140   7.558   1.447 -0.1004  0.1121 -0.1223
 5193W        W 5193   7.029   3.623  10.326 -0.1044  0.0640  0.1843
 5194W        W 5194   9.748   5.045   6.671 -0.2200  0.1751  0.0302
 5195W        W 5195   7.520   3.620   3.379 -0.1647  0.0484 -0.3424
 5196W        W 5196   6.817   0.857   1.327 -0.1057  0.1763 -0.0729
 5197W        W 5197  10.263   2.321   2.517 -0.0290 -0.1343 -0.2100
 5198W        W 5198   9.555   5.711   7.077 -0.0684 -0.1635  0.0612
 5199W        W 5199   2.940   9.358   7.505 -0.2128  0.2691  0.0665
 5200W        W 5200   6.433   4.564   7.396 -0.0061 -0.0194  0.2249
 5201W        W 5201  10.304   0.725   4.763  0.2687  0.0037  0.0471
 5202W        W 5202   7.040   0.845   6.603 -0.1831 -0.2354  0.1824
 5203W        W 5203   3.278   9.723   6.834  0.0809 -0.0505 -0.0066
 5204W        W 5204   6.862   7.637   7.171  0.2479  0.0093  0.0608
 5205W        W 5205   2.107   8.199   0.334  0.0845  0.0083  0.1744
 5206W        W 5206   2.150   2.878   0.672  0.1738 -0.0406 -0.1912
 5207W        W 5207   8.917   3.295   6.898 -0.0425  0.0090  0.0896
 5208W        W 5208   7.097   1.898   6.837 -0.2737  0.0448  0.1243
 5209W        W 5209   7.997   7.273   1.296 -0.0675  0.1091 -0.1030
 5210W        W 5210   6.675   5.122   5.688  0.0151 -0.0389  0.1623
 5211W        W 5211   8.716   7.634   0.530  0.0524 -0.2497 -0.1328
 5212W        W 5212   5.247   6.739   3.599  0.1356 -0.3163  0.0923
 5213W        W 5213   0.341   4.148   1.505  0.0813 -0.0717 -0.2024
 5214W        W 5214   0.983   4.268   7.689  0.1506  0.1091  0.0524
 5215W        W 5215   3.852   3.406   3.816  0.0458 -0.2300  0.1779
 5216W        W 5216   7.218   1.793   6.219  0.0361 -0.0116  0.0309
 5217W        W 5217   3.014   4.807   9.212 -0.0030  0.0355 -0.1413
 5218W        W 5218   9.157   6.659   1.003 -0.2372  0.1702  0.1153
 5219W        W 5219   5.942   6.763   6.090  0.1317 -0.1283  0.0939
 5220W        W 5220   8.175   9.119   1.817  0.0255 -0.2124  0.1489
 5221W        W 5221   5.155   0.416   3.567 -0.0813  0.2749 -0.0694
 5222W        W 5222   3.254   6.373   0.475 -0.1120 -0.0655 -0.1621
 5223W        W 5223   8.071   6.239   3.608  0.0562 -0.4056  0.4091
 5224W        W 5224   9.533   1.630   7.489  0.1027 -0.1347 -0.1145
 5225W        W 5225   3.069   3.837   4.062 -0.2267 -0.2146 -0.1058
 5226W        W 5226   5.534   8.066   7.816  0.0973 -0.1810 -0.1940
 5227W        W 5227   9.645   2.685   5.650 -0.0708  0.1657 -0.1164
 5228W        W 5228   3.549   4.292   9.758  0.0810  0.0859 -0.5125
 5229W        W 5229   3.970   0.262   8.971 -0.1255  0.0973 -0.0314
 5230W        W 5230   7.764   3.939   3.666  0.0429  0.3318  0.0444
 5231W        W 5231   1.472   6.230   9.760  0.3528  0.2274 -0.1247
 5232W        W 5232   7.386   5.347   3.713  0.4574  0.1168 -0.0751
 5233W        W 5233   6.992   3.504   6.497  0.1504  0.0700  0.1775
 5234W        W 5234   5.110   8.293   1.544  0.1729  0.1223  0.0726
 5235W        W 5235   3.054   1.519   7.133 -0.0035  0.1482  0.2238
 5236W        W 5236   1.352   9.603   3.700  0.0756  0.0676  0.0689
 5237W        W 5237   4.946  10.116   7.024  0.3370  0.3748  0.1729
 5238W        W 5238   6.192   1.352   6.757 -0.0460  0.0055 -0.1333
 5239W        W 5239   2.723   1.077   1.072  0.2668  0.4573 -0.1823
 5240W        W 5240   7.720   4.962   9.057  0.0091  0.3487  0.0024
 5241W        W 5241   8.814   5.049   7.538 -0.1922 -0.0624 -0.2114
 5242W        W 5242   4.593   1.995   4.933 -0.1993 -0.1753 -0.1175
 5243W        W 5243   6.662   7.123   7.632 -0.1346 -0.2826 -0.0160
 5244W        W 5244   7.309   0.240   5.894 -0.3545  0.0893  0.3694
 5245W        W 5245   8.339  10.245   5.041 -0.2504  0.0520  0.1916
 5246W        W 5246   7.370   5.073   9.513  0.0965 -0.0217  0.2327
 5247W        W 5247   5.087   2.600   0.748  0.0671  0.1235  0.2215
 5248W        W 5248   6.053   4.515   8.358 -0.0643  0.2940 -0.2488
 5249W        W 5249   7.052   6.248   0.090  0.2582  0.1217  0.2136
 5250W        W 5250   5.412   3.468   8.862 -0.0565  0.1471  0.2443
 5251W        W 5251   6.246   1.847   2.754  0.1547  0.1067 -0.0022
 5252W        W 5252  10.125   3.701   4.904 -0.0444  0.0320 -0.0319
 5253W        W 5253   3.132   7.132   7.837 -0.1527 -0.0949 -0.0797
 5254W        W 5254   1.321   4.810   1.383  0.1552  0.2941  0.0271
 5255W        W 5255   3.440   1.179   6.073  0.1023  0.2469  0.2457
 5256W        W 5256   0.112   0.885   7.054  0.0760  0.2009 -0.3208
 5257W        W 5257   3.317   3.652   3.696 -0.0523 -0.0455  0.1913
 5258W        W 5258   9.940   5.901   4.575  0.0549  0.0156  0.0960
 5259W        W 5259   5.119   7.044   9.823 -0.1332  0.4915 -0.1491
 5260W        W 5260   5.890   8.193   0.978 -0.0079 -0.4997 -0.0320
 5261W        W 5261   1.834   8.931   9.035 -0.0798  0.0581 -0.0065
 5262W        W 5262   4.768   5.941   5.991  0.0571  0.2735  0.2442
 5263W        W 5263   2.619   4.687   7.812 -0.4077 -0.1859 -0.3727
 5264W        W 5264   1.314   5.138   8.757  0.0230  0.0001  0.0811
 5265W        W 5265   6.062   4.811   7.534 -0.0792  0.1262 -0.2172
 5266W        W 5266   7.619   5.871   6.318  0.0143  0.2069 -0.0229
 5267W        W 5267   0.443   8.880   0.125  0.2914  0.0210  0.0668
 5268W        W 5268  10.351   2.000   7.423  0.1585 -0.1399 -0.0585
 5269W        W 5269   5.237   0.829   0.129  0.0153 -0.0639 -0.0593
 5270W        W 5270   6.886   6.032   6.758  0.1247 -0.0254  0.1520
 5271W        W 5271   0.423   3.639   9.888 -0.1673  0.0635 -0.3003
 5272W        W 5272   8.867   9.322   0.137  0.2007  0.0966  0.0691
 5273W        W 5273   5.999   5.630   4.663  0.1719 -0.1097  0.1153
 5274W        W 5274   0.509   5.783  10.159 -0.0347  0.0125  0.1631
 5275W        W 5275   2.203   6.214   8.265  0.1273  0.1962 -0.2715
 5276W        W 5276   7.969   0.866   8.092  0.2493 -0.3348  0.2606
 5277W        W 5277   2.628   7.699   4.695  0.1329 -0.0051 -0.1995
 5278W        W 5278   4.170   8.536   9.105  0.0179 -0.1113 -0.2386
 5279W        W 5279   6.948   3.087   6.828  0.0436  0.0793  0.1898
 5280W        W 5280   2.359   0.544   3.831 -0.0587  0.1238 -0.1798
 5281W        W 5281   8.266   3.049   3.144 -0.0472 -0.1688 -0.0281
 5282W        W 5282   6.592  10.067   8.590  0.0416 -0.1355 -0.1484
 5283W        W 5283   6.537   9.630   2.261 -0.2142 -0.3123  0.1204
 5284W        W 5284   9.550   8.930   3.245  0.2990  0.1372 -0.0499
 5285W        W 5285   0.111   7.128   3.954 -0.0933  0.0985 -0.1129
 5286W        W 5286   4.431   3.869   8.592 -0.0657  0.0750 -0.4593
 5287W        W 5287   8.860   4.102   3.279  0.0397  0.1433  0.2043
 5288W        W 5288   8.713   0.334   8.924  0.4123 -0.0906 -0.1277
 5289W        W 5289   9.554   3.389   7.453  0.1047  0.2117  0.0546
 5290W        W 5290   2.640   0.787   6.146 -0.2166  0.0166  0.0146
 5291W        W 5291   2.096   5.360   7.745 -0.2938  0.2619 -0.1320
 5292W        W 5292   5.567   5.161   9.476  0.1116  0.0113  0.1902
 5293W        W 5293   2.605   0.246   4.413 -0.2580 -0.1841 -0.1200
 5294W        W 5294   5.649   7.957  10.262  0.1622  0.0322  0.3786
 5295W        W 5295   6.289   7.809   2.315 -0.0304  0.0243 -0.0250
 5296W        W 5296   8.785   3.135   3.144  0.1086 -0.1881  0.1131
 5297W        W 5297   1.660   6.309   8.330  0.1420 -0.0181 -0.1531
 5298W        W 5298   2.752   4.513   4.624 -0.2134 -0.2025  0.3544
 5299W        W 5299   6.652   9.358   5.614  0.0158  0.2402 -0.5189
 5300W        W 5300   5.950   3.335  10.264  0.1227  0.1076 -0.1214
 5301W        W 5301   4.511   0.419   1.330  0.3728 -0.1304  0.1257
 5302W        W 5302   7.130   3.325   7.308 -0.0041 -0.0644 -0.0518
 5303W        W 5303   3.207   6.008   1.341 -0.0032 -0.0595  0.1384
 5304W        W 5304   0.598   9.716   0.379 -0.0447 -0.3010 -0.0355
 5305W        W 5305   8.103   4.358   7.710  0.2828 -0.0403  0.0617
 5306W        W 5306   9.321   9.622   2.607 -0.1168 -0.3680  0.0255
 5307W        W 5307   7.809   0.025  10.274  0.2599 -0.0034 -0.0504
 5308W        W 5308   7.480   7.172  10.097  0.1236 -0.0599  0.3988
 5309W        W 5309   6.349   3.181   6.022  0.2679  0.1377 -0.2981
 5310W        W 5310   2.758   9.446   5.177 -0.4292  0.0106 -0.3174
 5311W        W 5311   1.387  10.180   6.872 -0.0885 -0.0003  0.1272
 5312W        W 5312   0.400   6.906   4.842  0.0610  0.1654 -0.1781
 5313W        W 5313   0.497   6.228   4.140  0.2432 -0.1285  0.0152
 5314W        W 5314   8.636   2.083   4.005 -0.1385 -0.0155  0.1475
 5315W        W 5315   3.669   9.465   1.703  0.1410  0.1977  0.0931
 5316W        W 5316   4.900   0.930   3.431  0.0921 -0.2594  0.0154
 5317W        W 5317   0.523   5.131   5.214 -0.0391  0.0938  0.0693
 5318W        W 5318   0.524   0.580   3.081 -0.0365  0.1022 -0.0497
 5319W        W 5319   3.187   3.782   7.100  0.0999 -0.0173 -0.2307
 5320W        W 5320   4.932   9.898   1.106  0.0930  0.0377  0.3769
 5321W        W 5321   3.640   0.218   4.733  0.2828 -0.3775 -0.2222
 5322W        W 5322   7.969   7.180   6.641 -0.0743  0.2457  0.2862
 5323W        W 5323   4.399   3.640   5.419 -0.1328  0.0106  0.0679
 5324W        W 5324   1.703   3.386   4.761  0.0707  0.2083 -0.2146
 5325W        W 5325   5.979   6.226   4.049 -0.0617 -0.0040  0.1498
 5326W        W 5326   0.955   4.887   9.563 -0.1041  0.1186 -0.3036
 5327W        W 5327   7.218   3.025   6.332 -0.1304 -0.5000 -0.1118
 5328W        W 5328   4.856   2.196  10.069 -0.0395 -0.0042  0.1651
 5329W        W 5329   7.723   9.144   2.695 -0.3776  0.0229  0.0122
 5330W        W 5330   3.168   5.322   9.407  0.0333  0.1589 -0.0156
 5331W        W 5331   3.136   1.226   0.499  0.2979  0.0714  0.0392
 5332W        W 5332   7.374   4.251   7.180 -0.2095 -0.1562 -0.0228
 5333W        W 5333   4.852   6.325   6.319  0.2354 -0.2782  0.0056
 5334W        W 5334   2.615   4.756   3.199  0.3477 -0.0524  0.1750
 5335W        W 5335   1.025   4.985   6.518  0.1800 -0.0177 -0.2767
 5336W        W 5336   4.106   0.703   1.275 -0.0140  0.0615  0.2894
 5337W        W 5337   9.755   7.397   0.166  0.0307 -0.1903  0.1702
 5338W        W 5338   4.329   1.002   3.482 -0.0796  0.2295 -0.0073
 5339W        W 5339   2.149   1.583   6.174 -0.2667 -0.2471 -0.1722
 5340W        W 5340   1.138   8.272   3.687 -0.2324  0.0520 -0.1167
 5341W        W 5341   1.774   9.383   7.462  0.3331 -0.2055  0.1549
 5342W        W 5342   1.656   9.756   6.998 -0.4401  0.0361  0.0294
 5343W        W 5343   0.855   7.811   6.610  0.1372 -0.0195 -0.3790
 5344W        W 5344   6.430   0.858   3.276 -0.1213  0.2256 -0.3606
 5345W        W 5345   1.322   5.916   7.626  0.1926  0.0557 -0.1463
 5346W        W 5346   1.192   2.492   3.757  0.0191  0.2123 -0.0601
 5347W        W 5347   5.260   3.664   1.562  0.1457 -0.2277 -0.0330
 5348W        W 5348   9.643   0.724   5.713 -0.0683  0.0397 -0.2414
 5349W        W 5349   9.241   9.193   5.992  0.0035 -0.1461 -0.0304
 5350W        W 5350   3.152   9.338   4.891 -0.3325  0.2089  0.2192
 5351W        W 5351   8.173   4.150   3.971  0.0606 -0.1069 -0.2267
 5352W        W 5352   2.460   1.231   4.533 -0.1567  0.2853 -0.1483
 5353W        W 5353   6.810   8.131   8.140  0.0767  0.0681 -0.0690
 5354W        W 5354   0.073   1.842   3.150  0.2106 -0.3220  0.0085
 5355W        W 5355   6.234   3.663   1.732  0.2536 -0.1629 -0.4294
 5356W        W 5356   2.958   2.441   9.240  0.1808 -0.1939 -0.3278
 5357W        W 5357   1.256   0.392   6.618  0.0438 -0.0905  0.1685
 5358W        W 5358  10.287   2.563   7.385  0.2783 -0.1813 -0.0354
 5359W        W 5359   9.659   7.941   9.684  0.0514 -0.0754 -0.2231
 5360W        W 5360   8.403   6.899   0.514  0.0721 -0.1701 -0.1690
 5361W        W 5361   9.966   0.837   3.719 -0.3610  0.0905 -0.0490
 5362W        W 5362   9.592   1.855   9.604 -0.1806 -0.0495  0.0047
 5363W        W 5363   4.398   1.169   5.787  0.1306  0.1803  0.0049
 5364W        W 5364   2.544   7.996   0.097 -0.1688 -0.0533  0.4383
 5365W        W 5365   9.519   2.746   2.988  0.0375 -0.1933 -0.1551
 5366W        W 5366   9.085   0.545   2.109 -0.0882  0.1262  0.2623
 5367W        W 5367   3.975   1.191   3.130 -0.2996 -0.1935 -0.2841
 5368W        W 5368   0.923   3.879   5.023 -0.0496  0.0906 -0.1452
 5369W        W 5369   0.891   3.311   1.865  0.0786 -0.2715 -0.0105
 5370W        W 5370   9.090   6.963   3.443  0.0567 -0.3441  0.0923
 5371W        W 5371   9.254   1.423   1.258 -0.3598 -0.3659 -0.1204
 5372W        W 5372   8.681   4.144   4.107  0.0730  0.0104 -0.3957
 5373W        W 5373   7.699   1.819   8.911  0.2020 -0.0562  0.0649
 5374W        W 5374   6.695   3.020   0.660 -0.1756  0.0492 -0.0179
 5375W        W 5375   8.911   0.792   3.836 -0.0707 -0.1385 -0.1200
 5376W        W 5376   7.768   2.875   5.661 -0.3029 -0.0137  0.0946
 5377W        W 5377   5.973   6.475   9.554 -0.2162  0.0487 -0.1587
 5378W        W 5378   6.807   6.108   1.799  0.1073 -0.0189  0.1270
 5379W        W 5379   7.737   1.877   9.874  0.0081  0.1734 -0.1931
 5380W        W 5380   8.373   5.008   1.430 -0.4168 -0.0269 -0.0249
 5381W        W 5381   8.736   1.128  10.051 -0.2584 -0.0766  0.2074
 5382W        W 5382   6.066   7.273   8.801 -0.1123  0.0867  0.1582
 5383W        W 5383   1.528   7.997   2.416  0.1122 -0.1250  0.2863
 5384W        W 5384   5.340   0.540   5.755  0.0609  0.0981 -0.1314
 5385W        W 5385   6.501   8.657   7.632  0.0445 -0.2090  0.3500
 5386W        W 5386   0.261   8.158   7.462 -0.0353 -0.0968 -0.2534
 5387W        W 5387   2.174   0.905   1.794  0.0511  0.0408 -0.1020
 5388W        W 5388   0.525   6.464   9.327  0.0885 -0.0919  0.2064
 5389W        W 5389  10.277   9.914   0.562 -0.0934  0.0066  0.0390
 5390W        W 5390   4.751  10.319   1.984 -0.0123  0.0624 -0.0388
 5391W        W 5391   5.058   7.257   3.027  0.0873  0.1150 -0.0204
 5392W        W 5392   5.802   2.076   0.406 -0.0269  0.2181 -0.2184
 5393W        W 5393   9.000   1.737   6.466  0.1824  0.1657  0.2639
 5394W        W 5394   0.347   8.510   2.271 -0.0658  0.0145  0.0343
 5395W        W 5395   1.254   2.315   4.603  0.1507  0.0499 -0.2350
 5396W        W 5396   2.033   3.968   7.968  0.0821  0.1967 -0.1396
 5397W        W 5397   3.526   7.113   1.703  0.0067 -0.0235  0.0811
 5398W        W 5398   6.364   6.288   9.335 -0.0064 -0.1212 -0.0906
 5399W        W 5399   6.746   5.548   1.007 -0.2546 -0.3626 -0.0731
 5400W        W 5400   3.732   6.267   0.635 -0.0710 -0.0715  0.0878
 5401W        W 5401   5.483   7.076   3.340 -0.0499  0.0267  0.1975
 5402W        W 5402   2.405   8.918   2.037 -0.1098  0.0754  0.0603
 5403W        W 5403   1.939   8.681   6.885  0.0513 -0.1907 -0.0521
 5404W        W 5404   7.116   7.241   2.214 -0.3776  0.2113  0.3616
 5405W        W 5405   2.459   8.202   5.999 -0.0094  0.0732 -0.3222
 5406W        W 5406   5.584   4.691   9.239 -0.0724  0.0363 -0.0446
 5407W        W 5407   7.048   4.512   1.411  0.0290  0.3399 -0.0503
 5408W        W 5408   2.924   7.253   7.367  0.0184  0.2376  0.1133
 5409W        W 5409   1.503   9.540   3.165 -0.1600 -0.1329  0.0328
 5410W        W 5410   8.213   1.721   1.172  0.1677 -0.3398 -0.2994
 5411W        W 5411   4.918   1.713   8.428 -0.1196  0.0031 -0.0585
 5412W        W 5412   0.907   4.279   5.654 -0.0948 -0.1566 -0.0347
 5413W        W 5413   8.196   0.351   5.216  0.0496 -0.2287 -0.0740
 5414W        W 5414   5.047   0.442   1.480 -0.1125 -0.1541 -0.0695
 5415W        W 5415   6.453   5.798   4.500 -0.3951  0.0758 -0.0517
 5416W        W 5416   7.587   5.242   5.570 -0.0282  0.1082 -0.2469
 5417W        W 5417   5.351   1.148   6.508  0.1439 -0.1176 -0.2571
 5418W        W 5418   4.736   6.231   0.123 -0.1149  0.3235 -0.2153
 5419W        W 5419   0.976   6.966   2.852 -0.1568 -0.1374 -0.0445
 5420W        W 5420   5.248   4.703   5.059  0.1345 -0.0069  0.0706
 5421W        W 5421   6.098   8.493   7.225 -0.2220 -0.2895 -0.1727
 5422W        W 5422   5.943   3.251   7.912 -0.1276 -0.0205 -0.0445
 5423W        W 5423   5.402   8.138   3.951 -0.1096 -0.4511  0.1898
 5424W        W 5424   6.201   1.641   1.729  0.2853 -0.3651  0.0208
 5425W        W 5425   7.564   1.850  10.338 -0.1286  0.0647  0.2622
 5426W        W 5426   2.494   6.312   0.991  0.1284  0.1127 -0.1902
 5427W        W 5427   7.032   1.566   2.693 -0.1351 -0.1304  0.2190
 5428W        W 5428   9.514   2.786   5.173 -0.3393 -0.2928 -0.1229
 5429W        W 5429   8.371   5.586   8.559  0.0759 -0.0153  0.1840
 5430W        W 5430   6.091  10.202   0.017  0.2019 -0.2875  0.1249
 5431W        W 5431   3.098   2.345   3.941 -0.0879  0.0841  0.2124
 5432W        W 5432   9.125   2.172   1.582 -0.0374  0.0430  0.1117
 5433W        W 5433   0.530  10.177   6.616  0.0049  0.2188  0.1405
 5434W        W 5434   1.235   1.534   8.614  0.0413 -0.2237 -0.2373
 5435W        W 5435   7.653   3.575   8.135 -0.1622  0.1353 -0.0311
 5436W        W 5436   5.853   2.192   8.611  0.3180 -0.1571 -0.2987
 5437W        W 5437   1.904   5.206   3.690 -0.1736 -0.2755  0.2567
 5438W        W 5438   3.145  10.202   6.161 -0.0741 -0.0964 -0.0188
 5439W        W 5439   2.209   1.402  10.046  0.1618 -0.0825 -0.0520
 5440W        W 5440   3.775   6.882   8.867  0.0460 -0.0912 -0.2295
 5441W        W 5441   8.390   1.924   0.141  0.0015  0.3050  0.0287
 5442W        W 5442   7.891   7.212   2.085 -0.1132  0.1142 -0.0624
 5443W        W 5443   3.711   1.729   5.926 -0.0336  0.2305 -0.0606
 5444W        W 5444   1.908   0.354   9.868  0.0362  0.1381  0.2967
 5445W        W 5445   0.261   7.660   5.527 -0.0358  0.1309  0.0715
 5446W        W 5446   1.604   4.543   2.495  0.2822 -0.0318  0.1081
 5447W        W 5447   9.950   8.518   9.100  0.1251  0.0331 -0.2040
 5448W        W 5448   4.092   6.104   3.044 -0.0950 -0.0488 -0.2172
 5449W        W 5449   2.489   3.149   1.485 -0.1185  0.1285 -0.0017
 5450W        W 5450   6.816   3.434   4.007  0.0724 -0.2976  0.1189
 5451W        W 5451   4.508   3.218   4.297  0.3236 -0.2589  0.0294
 5452W        W 5452   0.869   8.785   1.211 -0.0745  0.1200 -0.0453
 5453W        W 5453   5.994   1.810   3.220  0.1377 -0.1559 -0.1608
 5454W        W 5454   6.279   3.552   4.006 -0.0730 -0.3548 -0.0135
 5455W        W 5455   9.144   8.393   3.437  0.3230 -0.1414 -0.1496
 5456W        W 5456   2.402   2.483   6.359  0.0319  0.1497  0.0568
 5457W        W 5457   5.626   0.166   1.690 -0.0706 -0.0921  0.4077
 5458W        W 5458   3.925   9.781   8.905 -0.0103  0.0261  0.1291
 5459W        W 5459   9.382   9.928   9.653  0.0208 -0.3546  0.2828
 5460W        W 5460   7.787   5.364   6.196  0.2883  0.1583  0.5581
 5461W        W 5461   9.982   5.084   4.998  0.0714  0.1902  0.0150
 5462W        W 5462   8.187   3.594   4.089  0.0930 -0.1060  0.0395
 5463W        W 5463   3.874   6.223   1.213  0.1816 -0.0431  0.0100
 5464W        W 5464   8.991   2.438   4.244 -0.0769  0.1177  0.3637
 5465W        W 5465   7.527   7.919   5.983  0.1643 -0.0868 -0.0048
 5466W        W 5466   5.726   6.328   5.967  0.0428 -0.1318  0.1098
 5467W        W 5467  10.013   5.027   5.488 -0.1583 -0.0732 -0.0154
 5468W        W 5468   4.865   9.549   6.959 -0.0092 -0.0591  0.2053
 5469W        W 5469   9.592   0.745  10.245  0.2002 -0.0868 -0.0736
 5470W        W 5470   6.859   6.720   7.829  0.4208  0.1738  0.0855
 5471W        W 5471   8.897   7.220   6.939 -0.0597  0.1267  0.0349
 5472W        W 5472   0.012   7.655   8.451  0.2829  0.1157 -0.2487
 5473W        W 5473   1.495   2.200   7.476 -0.2388  0.0377 -0.3065
 5474W        W 5474   6.243   4.540   6.327  0.0809  0.1693 -0.1737
 5475W        W 5475   4.931   7.733   0.553  0.1511 -0.0452  0.0415
 5476W        W 5476   4.592   1.521   2.285 -0.1204  0.0233  0.2790
 5477W        W 5477   4.902   0.236  10.337  0.0647  0.0083 -0.2098
 5478W        W 5478   5.820   2.856   8.083 -0.0322  0.0768 -0.1519
 5479W        W 5479   1.703   2.232   1.990  0.1028  0.0903 -0.0567
 5480W        W 5480   1.929   8.224   0.883 -0.1183 -0.0335  0.3610
 5481W        W 5481   0.940   2.851   4.310 -0.0129 -0.0649 -0.0014
 5482W        W 5482   9.675  10.106   8.856  0.0963 -0.2551 -0.0137
 5483W        W 5483   0.322   0.938   8.197 -0.0389 -0.1339  0.1864
 5484W        W 5484   3.296   8.801   0.805 -0.0146  0.1712 -0.4367
 5485W        W 5485   3.620   6.644   2.444 -0.1863 -0.1188  0.0687
 5486W        W 5486   0.439   7.562   8.292 -0.0303  0.0446  0.2400
 5487W        W 5487   3.930   2.452   2.279  0.0435 -0.1930 -0.2719
 5488W        W 5488   7.597   9.475   3.023  0.0672 -0.1963  0.2180
 5489W        W 5489   7.412   1.582   1.405  0.1538 -0.2348  0.1619
 5490W        W 5490   9.631   7.347   2.391 -0.0382  0.1124 -0.4221
 5491W        W 5491   7.714   2.184   7.905  0.2080 -0.2040 -0.1131
 5492W        W 5492   7.397   6.584   1.175 -0.0912  0.2218  0.1858
 5493W        W 5493   9.845  10.193   2.117 -0.1005 -0.2039  0.1696
 5494W        W 5494   4.756   2.229   8.436  0.0292  0.0519 -0.0963
 5495W        W 5495   9.199   2.831   8.817  0.1872 -0.2982 -0.2948
 5496W        W 5496   4.465   0.564   6.486 -0.0529 -0.1212  0.0196
 5497W        W 5497   0.461   9.873  10.088 -0.1052  0.3303 -0.1408
 5498W        W 5498   7.517   5.187  10.186  0.2054 -0.1177 -0.1333
 5499W        W 5499   1.107   0.557   0.280  0.1598  0.0783 -0.0323
 5500W        W 5500   5.491   2.018   0.835 -0.2465 -0.0664 -0.3709
 5501W        W 5501   3.631   6.971   5.001 -0.0394  0.3703 -0.0632
 5502W        W 5502   5.804   3.475   6.090  0.1432  0.0395  0.1721
 5503W        W 5503   3.166   5.336   8.918  0.0468  0.2237  0.1433
 5504W        W 5504   8.891   4.425  10.021 -0.1454 -0.0812 -0.1856
 5505W        W 5505   2.222   7.263  10.277  0.2250  0.1435  0.0414
 5506W        W 5506   7.262   8.434   7.811  0.0612 -0.0226  0.0505
 5507W        W 5507   6.661   5.916   7.543  0.4378  0.0646 -0.0700
 5508W        W 5508   8.908   9.890   9.837  0.0475 -0.0035 -0.2995
 5509W        W 5509   6.320   0.497   6.691 -0.2911 -0.2719 -0.2270
 5510W        W 5510   2.112   4.069  10.208  0.0209  0.1690  0.0277
 5511W        W 5511  10.134  10.069   2.497 -0.0107  0.1412  0.0064
 5512W        W 5512   5.116   7.731   2.142  0.1717  0.0912  0.0048
 5513W        W 5513  10.072   5.325   6.387  0.0037  0.1195  0.0809
 5514W        W 5514   8.351   1.078   2.295  0.3051 -0.1105 -0.0372
 5515W        W 5515   8.852  10.187   8.820 -0.2534  0.0276 -0.0806
 5516W        W 5516   0.907   4.268   1.576 -0.0517 -0.1697  0.3387
 5517W        W 5517   3.358   0.956   0.172 -0.1517 -0.2741  0.0731
 5518W        W 5518   5.952   5.559   7.040  0.2738  0.1681 -0.2368
 5519W        W 5519   5.889   9.068   1.892  0.1463  0.2647  0.1519
 5520W        W 5520   2.529   3.785   6.530  0.2617 -0.0728 -0.2031
 5521W        W 5521   8.067   0.864   0.636 -0.0412  0.0335 -0.1301
 5522W        W 5522   0.304   8.234   9.729 -0.1515 -0.0931  0.1996
 5523W        W 5523   3.747   0.729   3.112  0.1884  0.1151 -0.1479
 5524W        W 5524   3.101   9.524   4.475  0.1001  0.2090  0.1205
 5525W        W 5525   3.986   8.399   3.885 -0.1406  0.0025 -0.1193
 5526W        W 5526   2.895   3.356   9.034  0.1241 -0.0769  0.0184
 5527W        W 5527   5.289   4.465  10.036  0.0573 -0.0399  0.0760
 5528W        W 5528   8.041   0.309   9.144 -0.1064 -0.1551  0.0666
 5529W        W 5529   1.180   0.575   1.277  0.0436 -0.0186  0.0776
 5530W        W 5530  10.247   0.459   9.027 -0.1434  0.0235 -0.3181
 5531W        W 5531   3.806   4.843   9.772 -0.1386 -0.1475  0.0044
 5532W        W 5532   7.135   5.885   7.292  0.0686 -0.0740 -0.1998
 5533W        W 5533   3.351   4.024   3.337  0.1750  0.2436 -0.0683
 5534W        W 5534   7.667   6.286   3.327 -0.1670  0.2275 -0.0522
 5535W        W 5535   5.933   8.526   1.845 -0.0273  0.0930  0.0473
 5536W        W 5536   9.252   8.208   9.693 -0.3834  0.1766  0.0445
 5537W        W 5537   6.456   6.595   6.220  0.2108 -0.1475  0.0756
 5538W        W 5538   2.794   0.676   6.710  0.1898 -0.1591 -0.0658
 5539W        W 5539   1.104   5.139   8.325 -0.0410 -0.1220 -0.1645
 5540W        W 5540   5.334  10.191  10.293 -0.3242 -0.0555  0.0533
 5541W        W 5541  10.162   8.235   2.259  0.1762 -0.0800  0.0566
 5542W        W 5542   1.595   5.309   0.694 -0.1641  0.0861  0.0048
 5543W        W 5543   9.446   7.526   4.363  0.0454 -0.1630  0.0957
 5544W        W 5544   1.343   7.768   5.309  0.0569  0.2000  0.0216
 5545W        W 5545   0.229   3.154   0.832 -0.0223 -0.1183  0.0481
 5546W        W 5546   3.189   2.229   0.703  0.1204 -0.1040  0.1430
 5547W        W 5547   3.575   9.975   2.196 -0.0834 -0.2118  0.0955
 5548W        W 5548   2.015   5.548   3.269  0.1046  0.0935 -0.1462
 5549W        W 5549   1.067   4.539   6.025  0.2515  0.2596 -0.4277
 5550W        W 5550   1.832   3.854   4.936  0.1971 -0.4773  0.3441
 5551W        W 5551  10.350   7.254   9.659 -0.2916 -0.0726 -0.0043
 5552W        W 5552   8.211   7.136   3.591 -0.0991 -0.1011 -0.0097
 5553W        W 5553   1.720   2.783   0.914  0.2579  0.3542  0.0174
 5554W        W 5554   9.102   5.447   9.513  0.0298 -0.0848  0.0410
 5555W        W 5555   1.042   6.535   6.952  0.0590 -0.0337  0.0932
 5556W        W 5556   2.090   2.211   9.388  0.0689 -0.0396  0.1930
 5557W        W 5557   2.820   3.661   8.173  0.2708 -0.2101 -0.0232
 5558W        W 5558   2.632   3.328   0.272  0.3859  0.1863 -0.0427
 5559W        W 5559   6.797   7.169   1.276 -0.0563 -0.1799 -0.0398
 5560W        W 5560   0.214   1.293   0.720 -0.2458  0.0246  0.1480
 5561W        W 5561   0.868   6.907   5.108 -0.1114  0.0191  0.2688
 5562W        W 5562   9.256   2.593   6.512 -0.1042 -0.1789 -0.1992
 5563W        W 5563   0.595   6.970   7.920  0.0625 -0.0036  0.0947
 5564W        W 5564   0.809   6.377   4.998  0.2198 -0.1477  0.3921
 5565W        W 5565   9.303   5.722   3.640  0.3487  0.1884  0.1896
 5566W        W 5566   4.971   0.879   5.738  0.0632 -0.0616 -0.0223
 5567W        W 5567   5.701   9.773   6.949 -0.0257 -0.1806 -0.0418
 5568W        W 5568   4.512   2.964   8.413 -0.1527 -0.2140 -0.0620
 5569W        W 5569   0.482   8.701   4.413 -0.1334  0.0444 -0.0195
 5570W        W 5570  10.070   5.525   8.281 -0.0279 -0.0419 -0.3365
 5571W        W 5571   9.635   8.328   5.152  0.2523 -0.3298 -0.1200
 5572W        W 5572   8.373   7.648   1.383  0.0623  0.2370  0.1352
 5573W        W 5573   1.670   1.789   7.193  0.3618 -0.3096  0.0042
 5574W        W 5574   6.607   8.186   1.555  0.0688  0.2088 -0.2205
 5575W        W 5575  10.064   3.045   9.820  0.0902 -0.0906  0.4982
 5576W        W 5576   4.181   2.934   1.946 -0.4354 -0.3545  0.0815
 5577W        W 5577   4.284   6.309   8.550 -0.0568 -0.3126 -0.2235
 5578W        W 5578   1.259   8.707   1.777  0.1920  0.0751  0.0265
 5579W        W 5579   6.002   2.903   0.322  0.1134  0.1446 -0.3497
 5580W        W 5580   6.441   1.338   3.573 -0.0690  0.0430 -0.0102
 5581W        W 5581   5.865   5.941   8.280 -0.1464  0.1541 -0.2062
 5582W        W 5582   0.252   7.663   3.548  0.0426 -0.1556  0.1785
 5583W        W 5583   0.738   7.599   1.375 -0.1698  0.0491  0.0796
 5584W        W 5584   8.627   1.955   7.139  0.1158  0.2236  0.2082
 5585W        W 5585   8.808   3.493   5.967 -0.0405  0.0797  0.1207
 5586W        W 5586   8.176   8.899  10.198  0.1427  0.1326 -0.1875
 5587W        W 5587   7.680   4.446   6.237 -0.0525  0.1541 -0.0512
 5588W        W 5588   1.577   6.923   9.963  0.1869 -0.1028 -0.2797
 5589W        W 5589   4.418   0.279   6.085  0.2236 -0.2455 -0.2054
 5590W        W 5590   6.511   8.227   0.438  0.0706  0.1326  0.1141
 5591W        W 5591   0.722   2.951   0.075 -0.2576 -0.0822  0.0771
 5592W        W 5592   2.492   0.007   6.596  0.1347 -0.0520 -0.0081
 5593W        W 5593   7.198   2.800   1.196 -0.2524 -0.0221 -0.0671
 5594W        W 5594   4.703   4.963   9.582 -0.3841 -0.3309 -0.1366
 5595W        W 5595   2.427   6.515   5.619 -0.3286 -0.1428 -0.2711
 5596W        W 5596   9.808   6.138   2.784  0.2761  0.1254  0.4611
 5597W        W 5597   1.607   7.591   9.617 -0.0012 -0.0702  0.1076
 5598W        W 5598   7.809   1.691   0.785  0.1597 -0.2658  0.1220
 5599W        W 5599   3.459   0.072   0.657 -0.0770 -0.0903  0.1773
 5600W        W 5600   9.656   5.182   9.913  0.0642 -0.1758  0.1503
 5601W        W 5601   0.052   4.083   0.517  0.0610 -0.1113  0.0526
 5602W        W 5602  10.062   1.610   8.818 -0.0371  0.0298 -0.0355
 5603W        W 5603   1.785   2.406   3.145  0.1705 -0.0050  0.2320
 5604W        W 5604   5.260   7.574   3.871 -0.0849 -0.3487  0.2793
 5605W        W 5605   6.297   2.358   7.725  0.2858  0.0340 -0.0060
 5606W        W 5606   8.697   2.137   6.154 -0.1927  0.0601 -0.4813
 5607W        W 5607   3.640   3.552   4.244 -0.3191  0.0094  0.1356
 5608W        W 5608   4.447   6.234   9.016  0.0296  0.3619  0.2682
 5609W        W 5609   0.829   7.352   0.038 -0.0056  0.1491 -0.0179
 5610W        W 5610   7.449   0.985   6.350 -0.2089 -0.0212 -0.1695
 5611W        W 5611   8.386   0.038   5.952  0.0678 -0.1348  0.3084
 5612W        W 5612   7.670   2.078   7.031 -0.0431 -0.2110 -0.0834
 5613W        W 5613   1.578   8.745  10.167  0.1143 -0.2274  0.0989
 5614W        W 5614   4.348   3.206  10.099  0.0164  0.0401 -0.2046
 5615W        W 5615   9.534   1.934   1.270  0.0277  0.1435 -0.0374
 5616W        W 5616   7.282   1.688   7.630  0.0674 -0.1214 -0.1923
 5617W        W 5617   1.618   1.989   1.185 -0.0042  0.0979 -0.3767
 5618W        W 5618   5.420   2.269   7.417  0.1112  0.0027 -0.0675
 5619W        W 5619   2.503   6.833   5.244  0.0892  0.1529  0.0207
 5620W        W 5620   8.718   4.858   8.705  0.0047  0.1124 -0.0695
 5621W        W 5621   3.088   4.421   9.729  0.0906 -0.1394 -0.0152
 5622W        W 5622   5.960   3.699   4.445 -0.0632  0.4228  0.0500
 5623W        W 5623   4.330   2.206   2.797  0.0927 -0.0749 -0.2405
 5624W        W 5624  10.307   3.360   7.144 -0.0760 -0.0748  0.0203
 5625W        W 5625   1.653   0.164   7.888 -0.0064  0.0013  0.0236
 5626W        W 5626   2.423   9.203   5.562  0.1746 -0.1618  0.1516
 5627W        W 5627   6.914   6.060   2.657 -0.1366 -0.2440  0.0077
 5628W        W 5628   8.237   0.589   6.145  0.3351  0.1864 -0.1635
 5629W        W 5629   2.410   7.146   2.029  0.1489 -0.0239  0.1071
 5630W        W 5630   5.676   7.918   8.348 -0.0148 -0.1217  0.1733
 5631W        W 5631   8.792   8.784   9.179  0.1519  0.1566  0.1435
 5632W        W 5632   0.160   6.775   8.573  0.0143 -0.2105 -0.2115
 5633W        W 5633   5.521   3.138   1.730  0.2826  0.0057  0.0881
 5634W        W 5634   0.722   4.814   3.153 -0.2048  0.1339  0.2859
 5635W        W 5635   3.738   1.179  10.330 -0.0154 -0.2265  0.0108
 5636W        W 5636   3.164   9.127   0.298  0.0394 -0.0203  0.0144
 5637W        W 5637   1.361   1.246   1.961  0.1701 -0.3179  0.2615
 5638W        W 5638   4.400   9.026   3.283 -0.0345 -0.0420 -0.2243
 5639W        W 5639   8.079   8.162   7.733  0.2189  0.1089 -0.1553
 5640W        W 5640   1.905   6.946   2.718  0.1629  0.0818 -0.0167
 5641W        W 5641   2.753   8.783   1.707 -0.0197  0.0719 -0.3256
 5642W        W 5642   2.593   2.421   3.366  0.4160  0.0123 -0.0257
 5643W        W 5643   9.577   7.367   5.130  0.0683  0.0449  0.1949
 5644W        W 5644   5.650   5.955   4.908  0.0355  0.1563  0.0271
 5645W        W 5645   6.662   8.366   5.433 -0.1942  0.0729 -0.0539
 5646W        W 5646   2.901   2.163   6.203  0.2483 -0.0267 -0.1716
 5647W        W 5647   1.520   5.499   3.793 -0.1341  0.1946  0.0548
 5648W        W 5648   4.215   1.671   1.330 -0.2064  0.0063 -0.1868
 5649W        W 5649   8.142   8.878   0.676  0.1373  0.2469  0.2178
 5650W        W 5650   2.083   9.348   3.913 -0.2126  0.1586  0.0979
 5651W        W 5651  10.335   0.528   8.256  0.5089  0.4027 -0.0674
 5652W        W 5652   1.999   1.350   0.804 -0.1150  0.0584 -0.3889
 5653W        W 5653   5.661   3.295   0.337 -0.0630  0.2378  0.0519
 5654W        W 5654   0.587   1.027   6.975  0.0114  0.0123  0.1039
 5655W        W 5655   8.394   1.515   8.752  0.1909 -0.3285 -0.1250
 5656W        W 5656   0.449   4.021   4.917 -0.0271  0.2150  0.0958
 5657W        W 5657   6.509   4.102   4.945  0.1484  0.0615  0.1552
 5658W        W 5658   4.597   4.145   0.294  0.3394 -0.0011 -0.1193
 5659W        W 5659  10.300   5.873   8.632  0.2212  0.1899  0.0137
 5660W        W 5660   6.937   9.376   4.356 -0.0519  0.0735  0.1347
 5661W        W 5661   1.174   8.162   8.488  0.0099  0.0936  0.2355
 5662W        W 5662   3.249   1.862   2.402 -0.0003 -0.0034  0.0333
 5663W        W 5663   2.724   4.700   6.764 -0.0060 -0.1876  0.1752
 5664W        W 5664   6.802   3.449   0.415 -0.0224  0.1572 -0.0551
 5665W        W 5665   7.502   5.700   1.929 -0.0466  0.1124 -0.0414
 5666W        W 5666   9.642   6.860   9.649 -0.2368  0.1259  0.2100
 5667W        W 5667   4.887   0.449   6.057  0.0874  0.1226  0.1630
 5668W        W 5668   9.985   6.385   1.438 -0.0416  0.0392  0.3125
 5669W        W 5669   8.727   2.642   7.869  0.1417 -0.3611  0.0538
 5670W        W 5670   9.006   3.348   8.310  0.1492 -0.0271  0.0135
 5671W        W 5671   2.053   1.970   8.957  0.1699 -0.2711  0.1283
 5672W        W 5672   5.992   0.021   4.666 -0.1315  0.1064 -0.1985
 5673W        W 5673   4.679   1.156   0.686 -0.1323  0.2375  0.0671
 5674W        W 5674   1.384   9.123   7.372  0.4785 -0.3232 -0.0959
 5675W        W 5675   3.206   7.806   2.791  0.1969 -0.1312  0.2190
 5676W        W 5676   7.131  10.180   4.604  0.1989 -0.1612 -0.0630
 5677W        W 5677   0.100   6.964   4.425  0.1720 -0.0444 -0.0453
 5678W        W 5678   9.282   1.993   8.260 -0.1289  0.0726  0.2385
 5679W        W 5679   0.912   1.366   6.100  0.1635 -0.0771  0.2161
 5680W        W 5680   2.267   9.758   3.497  0.1967  0.2135 -0.0336
 5681W        W 5681   1.456  10.229   7.382  0.1698  0.0249 -0.1468
 5682W        W 5682   2.427   7.533   0.368  0.1343  0.1076 -0.3541
 5683W        W 5683   7.020   3.782   0.864  0.0276  0.0892  0.1598
 5684W        W 5684   0.321   9.497   8.255 -0.1824 -0.2902 -0.2622
 5685W        W 5685   4.774   3.771   6.729  0.1374 -0.2123  0.1779
 5686W        W 5686   2.339   2.995   1.961  0.0565 -0.2272  0.2924
 5687W        W 5687   8.713   8.243   3.769 -0.0320  0.0362 -0.2696
 5688W        W 5688   5.878   3.477   8.763  0.2479  0.0479  0.0377
 5689W        W 5689   2.388  10.203   6.075  0.0382 -0.0897  0.0772
 5690W        W 5690   9.509   3.196   0.666 -0.1764 -0.2559 -0.0483
 5691W        W 5691   8.108  10.155   0.302 -0.0573 -0.1538 -0.0851
 5692W        W 5692   6.479   2.100   8.416  0.2059 -0.0333  0.1894
 5693W        W 5693   4.800   6.479   2.751  0.1803 -0.1279  0.1100
 5694W        W 5694   0.362   4.099   7.724  0.2302 -0.0877  0.2381
 5695W        W 5695   2.324   3.866   3.120  0.1111 -0.0235  0.1453
 5696W        W 5696   4.389   0.499   1.887  0.0990 -0.5252 -0.2113
 5697W        W 5697   9.038   4.443   8.728 -0.3360 -0.1676  0.1900
 5698W        W 5698   3.259   7.180   7.024 -0.3028  0.1353 -0.0718
 5699W        W 5699   2.617   2.648   4.812  0.2394  0.2267  0.1328
 5700W        W 5700   2.881   5.637   0.252  0.0696  0.2633  0.0144
 5701W        W 5701   6.856   8.123   6.751 -0.0832 -0.0805 -0.1132
 5702W        W 5702   5.515   2.373   9.385  0.2750 -0.2170 -0.0825
 5703W        W 5703   0.659   1.898   7.285  0.2924  0.1871 -0.1235
 5704W        W 5704   3.621   5.638   2.139 -0.1594 -0.2176  0.1022
 5705W        W 5705   9.469   1.415   9.537  0.1086 -0.0370 -0.2110
 5706W        W 5706   1.813   0.154   4.659  0.0607 -0.0366 -0.3450
 5707W        W 5707   4.645   1.108   0.148  0.0136  0.1060  0.1822
 5708W        W 5708   5.905   7.638   7.779  0.2343 -0.1863 -0.0314
 5709W        W 5709   5.344   4.269   9.218  0.0265 -0.1014 -0.1142
 5710W        W 5710   8.901   5.411   8.637  0.0347 -0.0063 -0.2352
 5711W        W 5711   4.350   0.798   2.291 -0.0421 -0.0651  0.0405
 5712W        W 5712   8.036   3.121   4.137 -0.0956  0.2215 -0.0314
 5713W        W 5713   1.270   3.517   0.545 -0.3401 -0.2537  0.1037
 5714W        W 5714   9.474   0.983   3.976  0.0121 -0.0400  0.0928
 5715W        W 5715   1.824   3.729   4.454 -0.1453  0.0902 -0.0832
 5716W        W 5716   8.592   7.305   8.167  0.1242 -0.0800  0.0438
 5717W        W 5717   5.114   9.059   8.161  0.0188 -0.0506  0.0479
 5718W        W 5718   9.464   3.035   4.684  0.4135  0.2778 -0.0827
 5719W        W 5719   0.110   2.156   1.251 -0.0477  0.1539 -0.1104
 5720W        W 5720   8.736  10.251   3.782  0.0043 -0.0150  0.2966
 5721W        W 5721   3.341   6.405   2.793  0.4423 -0.0464 -0.1433
 5722W        W 5722   2.315   6.782   2.925  0.0737  0.1113  0.0318
 5723W        W 5723   5.487   0.690   7.179 -0.0877 -0.1023 -0.2616
 5724W        W 5724   6.131   8.321   1.391 -0.2234  0.2826  0.1631
 5725W        W 5725   2.991   6.775   6.788  0.2835 -0.1297 -0.0582
 5726W        W 5726   3.166   3.338   2.563 -0.1065  0.0302  0.1838
 5727W        W 5727   9.857  10.330   3.711  0.2400 -0.0339 -0.0899
 5728W        W 5728   9.041   4.576   3.909  0.1414  0.0842 -0.2149
 5729W        W 5729   5.738   3.330   9.346  0.0933  0.0444  0.0876
 5730W        W 5730   3.844   7.783   6.349  0.1747  0.1664  0.1703
 5731W        W 5731   9.445  10.011   7.793 -0.2200  0.0469  0.0980
 5732W        W 5732   5.239   8.371   9.400 -0.3938  0.2689 -0.2692
 5733W        W 5733   1.489   0.628   3.260 -0.1815  0.1903 -0.0741
 5734W        W 5734   3.121   4.429   2.579  0.0427  0.3594 -0.1589
 5735W        W 5735   0.029   0.486   0.401  0.2421  0.0001 -0.2050
 5736W        W 5736   0.670   1.146  10.185 -0.0283 -0.1495 -0.0689
 5737W        W 5737   6.386   8.727   0.454  0.0730 -0.1875  0.2387
 5738W        W 5738   0.866   6.714   0.685 -0.1459 -0.2381  0.1071
 5739W        W 5739   2.037   9.774   4.378 -0.0498 -0.0418 -0.3519
 5740W        W 5740   6.545   5.107   6.553 -0.0640  0.2819 -0.2303
 5741W        W 5741   1.858   9.426   9.142 -0.2704  0.1931  0.2482
 5742W        W 5742   7.033   9.086   9.594  0.0585 -0.2613  0.3077
 5743W        W 5743   0.160   6.826   7.042 -0.1123 -0.2338  0.3021
 5744W        W 5744   8.601   1.160   3.673 -0.3802 -0.3350  0.2210
 5745W        W 5745   7.912   2.583  10.352 -0.0871  0.0205  0.2023
 5746W        W 5746   2.947   1.314   5.288 -0.0293 -0.0968  0.2919
 5747W        W 5747   0.255   3.070   1.902 -0.1705  0.1323  0.3040
 5748W        W 5748   5.380   5.756   6.617 -0.2209 -0.1363  0.0646
 5749W        W 5749   9.949   6.584   3.066 -0.1121  0.1247  0.0125
 5750W        W 5750   6.821   0.144   2.916  0.2343 -0.3183 -0.4146
 5751W        W 5751   1.494   8.529   1.031  0.0926 -0.1972 -0.2460
 5752W        W 5752   2.262   2.879   7.209 -0.0993 -0.0273  0.0607
 5753W        W 5753   0.664   3.955   6.589  0.2326 -0.0344  0.2164
 5754W        W 5754   0.742   2.257   3.773  0.0286 -0.3018 -0.2974
 5755W        W 5755   5.429   8.549   4.823 -0.2549 -0.0036 -0.1469
 5756W        W 5756   0.378   0.308   8.113 -0.4043 -0.2094  0.0377
 5757W        W 5757   3.795   2.593   4.543 -0.0723 -0.1713  0.2367
 5758W        W 5758   3.611   4.285   6.016  0.0587 -0.0378 -0.2895
 5759W        W 5759   8.552   9.995   3.414 -0.0873  0.0101  0.6252
 5760W        W 5760   3.144   1.593   3.408 -0.0200  0.1465  0.0453
 5761W        W 5761   6.526   7.151   9.122  0.1356  0.0793  0.1184
 5762W        W 5762   0.023   9.344   6.713 -0.3134 -0.0073  0.2600
 5763W        W 5763   3.813   1.070   6.427  0.2961  0.0721  0.2826
 5764W        W 5764   5.347   8.052   8.710  0.0056  0.1169  0.1066
 5765W        W 5765   5.783   5.679   0.463 -0.1578 -0.1392  0.3174
 5766W        W 5766   8.076   5.751   7.371  0.0517 -0.2902  0.0574
 5767W        W 5767   7.097   3.313   2.267 -0.0052  0.2095 -0.5216
 5768W        W 5768   3.392   4.856   6.644  0.0469 -0.0182  0.0277
 5769W        W 5769   9.847   3.265   8.014 -0.2547 -0.1552  0.0951
 5770W        W 5770   1.249   1.863   9.347  0.0879  0.1097  0.2987
 5771W        W 5771   7.388   4.052   0.185 -0.3173 -0.0681  0.3207
 5772W        W 5772   5.569   7.482   0.445  0.1804 -0.0659 -0.0402
 5773W        W 5773   0.910   1.394   9.844  0.1299  0.0552 -0.1997
 5774W        W 5774   4.842   4.671   6.209  0.3867  0.1126  0.1572
 5775W        W 5775   1.615   1.357   8.321  0.0602 -0.1476  0.1280
 5776W        W 5776   7.559   0.813   0.529 -0.1214  0.2512  0.0243
 5777W        W 5777   6.476   9.832   2.707 -0.0942 -0.3390  0.1594
 5778W        W 5778   5.645   6.226   1.256  0.1074  0.0080 -0.3373
 5779W        W 5779   1.418   0.261   1.524  0.1541  0.1590 -0.2181
 5780W        W 5780   3.083   9.015   4.479  0.1613  0.0040  0.2465
 5781W        W 5781   6.122   1.756   9.976 -0.0461  0.1565 -0.0756
 5782W        W 5782   1.957   8.935   6.377  0.1609 -0.3128  0.0991
 5783W        W 5783   8.346   1.749   5.847 -0.1375 -0.0518  0.1041
 5784W        W 5784   8.262   8.952   6.160  0.1459 -0.1687 -0.0347
 5785W        W 5785   2.301   4.612   9.835  0.0848 -0.1090  0.2937
 5786W        W 5786   8.475   9.990   4.187 -0.0467 -0.1118 -0.1062
 5787W        W 5787   0.476   1.568   8.928  0.3724  0.1209 -0.1324
 5788W        W 5788   1.030   3.751   8.875  0.3929 -0.3016 -0.0568
 5789W        W 5789   1.859   2.164   8.558  0.1009 -0.0179 -0.0574
 5790W        W 5790   2.970  10.277   1.669  0.3368 -0.3019 -0.0648
 5791W        W 5791   7.967   5.872   2.102 -0.0210  0.1810  0.0606
 5792W        W 5792  10.048   6.468   7.920 -0.3709 -0.0490  0.3107
 5793W        W 5793   2.904   2.164   2.110  0.0948 -0.3253  0.2497
 5794W        W 5794   0.580   9.034   8.333 -0.3807 -0.1455  0.2205
 5795W        W 5795   2.126   3.150   5.632  0.1817  0.2115 -0.1857
 5796W        W 5796   4.504   1.351   8.252 -0.2658 -0.1317 -0.3292
 5797W        W 5797   1.097   1.906   1.292 -0.1722 -0.0400 -0.3039
 5798W        W 5798   0.590   3.062   3.354 -0.0859  0.2771 -0.1166
 5799W        W 5799   4.621   7.901   8.085  0.3466 -0.0556  0.1298
 5800W        W 5800   9.310   6.756   8.131  0.2679 -0.4735  0.0909
 5801W        W 5801   5.399   3.880   8.082  0.1474 -0.0977 -0.1026
 5802W        W 5802   7.913   4.654   1.598 -0.3068  0.0111 -0.2289
 5803W        W 5803   0.770   3.545   9.263 -0.4213 -0.2279  0.1716
 5804W        W 5804   5.133   6.479   1.216 -0.1034  0.0050 -0.1179
 5805W        W 5805   1.374   5.192   7.390 -0.1655 -0.1075 -0.2498
 5806W        W 5806   2.099   9.773   2.233 -0.1311 -0.0884  0.0433
 5807W        W 5807   9.918   0.539   1.337  0.1175 -0.0100  0.4337
 5808W        W 5808   9.925   7.055   5.336  0.1980  0.1355 -0.1370
 5809W        W 5809  10.342   2.325   9.507 -0.1180 -0.1483 -0.3550
 5810W        W 5810   1.131   5.007   0.883 -0.1222  0.0432  0.0778
 5811W        W 5811   5.791   3.402   4.017 -0.1817 -0.0838 -0.0525
 5812W        W 5812   3.799   8.822   0.871 -0.3138 -0.1234 -0.1681
 5813W        W 5813   3.672   5.218   8.305  0.0326  0.0672 -0.0405
 5814W        W 5814   1.732   9.801   3.972 -0.0549 -0.3144  0.0853
 5815W        W 5815   6.608   5.556   0.552  0.1701 -0.0462 -0.0365
 5816W        W 5816   2.613   4.786   8.359  0.1706 -0.3033 -0.0869
 5817W        W 5817   7.284   7.918   8.590 -0.2375 -0.1299 -0.0057
 5818W        W 5818   5.660   2.701   0.901 -0.1627  0.1748 -0.0121
 5819W        W 5819   8.410   1.392   9.739 -0.2320  0.0794  0.1281
 5820W        W 5820   2.327   4.747   5.831  0.3051  0.1421  0.0015
 5821W        W 5821   2.792   2.398   0.991  0.2623 -0.1317  0.3072
 5822W        W 5822   8.585   8.165   0.559 -0.3247  0.0460  0.1574
 5823W        W 5823   0.856   1.027   5.006  0.2289  0.0946  0.1216
 5824W        W 5824   9.335   2.095   6.348 -0.0293 -0.2000 -0.1324
 5825W        W 5825   2.894   8.962   5.059 -0.0434 -0.1651 -0.2730
 5826W        W 5826   2.954   4.302  10.218 -0.1215  0.1893  0.2919
 5827W        W 5827   6.238   7.799   9.581 -0.2134 -0.2166 -0.1307
 5828W        W 5828   3.680   5.837   2.980 -0.0800  0.1140  0.0175
 5829W        W 5829   9.058   9.445  10.065 -0.1063 -0.0273 -0.1698
 5830W        W 5830   0.938   1.508   1.553  0.2240 -0.0621  0.0297
 5831W        W 5831   7.299   7.470   0.563 -0.0723  0.3467  0.1458
 5832W        W 5832   0.888   4.740   0.144  0.1107  0.0557 -0.2141
 5833W        W 5833   5.474   9.832   0.878 -0.1913 -0.2038  0.0666
 5834W        W 5834   2.485   1.842   5.896 -0.2690 -0.0365 -0.1489
 5835W        W 5835   3.023   3.256  10.289 -0.3668 -0.2883  0.0693
 5836W        W 5836   5.371   2.349   5.647  0.0416  0.1377 -0.0940
 5837W        W 5837   8.167   2.424   7.987  0.0599  0.0978 -0.0487
 5838W        W 5838   3.919   2.578   0.100 -0.0441  0.1685 -0.2001
 5839W        W 5839   5.559   5.962   3.858  0.0753  0.2606 -0.1641
 5840W        W 5840   1.928   3.118   6.776 -0.0177  0.0483 -0.0014
 5841W        W 5841   0.819   2.871   2.255  0.1819 -0.0154 -0.0544
 5842W        W 5842   6.176   1.110   4.672  0.0530 -0.0087 -0.0191
 5843W        W 5843   2.537   9.387   7.820  0.0733 -0.2375  0.0819
 5844W        W 5844   3.973  10.332   4.461 -0.1287  0.1391 -0.0505
 5845W        W 5845  10.158   6.114   3.202  0.0279  0.0003  0.2576
 5846W        W 5846   0.858   0.204   1.197  0.1428  0.1654 -0.1966
 5847W        W 5847   8.981   6.043   7.556 -0.2308  0.4427  0.0286
 5848W        W 5848   2.813   5.588   7.179  0.2280  0.0671  0.0247
 5849W        W 5849   3.539   4.993   3.454 -0.1203 -0.3131  0.2431
 5850W        W 5850   3.682  10.064   4.047  0.0834  0.0026  0.0957
 5851W        W 5851   1.626   0.421  10.276  0.0755 -0.0997  0.0402
 5852W        W 5852   3.873   2.482   5.420  0.0847  0.0733  0.0229
 5853W        W 5853   4.281   0.622   0.450  0.0153  0.1690 -0.2086
 5854W        W 5854   7.955   8.599   6.987 -0.1424  0.2553  0.2689
 5855W        W 5855   0.198   1.354   3.160 -0.0811 -0.2427  0.0674
 5856W        W 5856   0.261   5.723   4.019  0.0314  0.0579 -0.2255
 5857W        W 5857   8.535   8.532   2.804  0.2710 -0.2405  0.0849
 5858W        W 5858   3.503   3.725   8.961  0.2021 -0.0771  0.0062
 5859W        W 5859   7.892   9.310   0.410 -0.4219  0.0103  0.1838
 5860W        W 5860   6.865   4.136   3.579  0.3053 -0.2524  0.1749
 5861W        W 5861   5.339   1.318   2.708  0.3509  0.0315 -0.0878
 5862W        W 5862   1.748   8.504   5.527  0.2411 -0.1571  0.0920
 5863W        W 5863   0.342   3.550   5.728 -0.2167  0.0773 -0.0016
 5864W        W 5864   5.485   6.428   4.965 -0.0773  0.0105  0.1514
 5865W        W 5865   7.159   4.996   3.295  0.2607 -0.2038 -0.2761
 5866W        W 5866   0.475   2.363   5.136  0.2535 -0.0890  0.2425
 5867W        W 5867   5.407   5.667   3.076 -0.0502  0.1821  0.0733
 5868W        W 5868   5.657   8.298   3.556  0.1250  0.0284 -0.1507
 5869W        W 5869   7.910   4.960   4.378 -0.1535  0.2689 -0.3092
 5870W        W 5870   4.389   3.097   6.720 -0.0213 -0.0506  0.3039
 5871W        W 5871   3.205   5.981   3.013  0.1195 -0.1109 -0.0181
 5872W        W 5872   8.377   0.984   0.230 -0.2045  0.0371 -0.0186
 5873W        W 5873   3.319   5.125   4.055 -0.0705  0.1340  0.0979
 5874W        W 5874   5.937   7.372   4.609 -0.1243 -0.3223 -0.4097
 5875W        W 5875   1.440   5.038   5.343 -0.1012 -0.0875  0.0242
 5876W        W 5876   9.540   7.357   6.171 -0.1276 -0.0724  0.1570
 5877W        W 5877   1.349   1.906   4.909  0.1021  0.0292  0.0292
 5878W        W 5878   6.840   4.107   1.156 -0.1398 -0.0943 -0.2044
 5879W        W 5879   1.333   7.787   6.111 -0.2820  0.1607 -0.1072
 5880W        W 5880  10.235   4.136   8.190  0.3372  0.1146 -0.3466
 5881W        W 5881   2.835   4.881   1.402  0.0749 -0.2391 -0.0253
 5882W        W 5882   0.702   2.828   9.786  0.0397  0.1024  0.1560
 5883W        W 5883   0.064   2.572   1.614 -0.1935  0.1013 -0.0278
 5884W        W 5884   7.197  10.049   5.872 -0.1328 -0.0404  0.2481
 5885W        W 5885   5.774   5.906   8.767  0.1918 -0.0732  0.1846
 5886W        W 5886   0.595   3.009   4.723 -0.0049 -0.1146 -0.0072
 5887W        W 5887   8.011   0.606   4.241  0.1491 -0.0494 -0.1648
 5888W        W 5888   4.313   8.807  10.313 -0.2051 -0.2173  0.1710
 5889W        W 5889   5.660   0.244   4.400 -0.1141  0.0108 -0.2969
 5890W        W 5890   9.542   8.641   3.748 -0.0920  0.0593  0.2126
 5891W        W 5891   6.686   4.545   4.673  0.0475 -0.1762  0.1174
 5892W        W 5892   2.305   3.252   3.593 -0.0655  0.0924 -0.2241
 5893W        W 5893   0.728   6.159   5.998 -0.2652  0.1952  0.1264
 5894W        W 5894   7.837   5.926   8.504 -0.3868 -0.0686 -0.1401
 5895W        W 5895   0.072   5.062   0.232 -0.0570 -0.1228  0.0450
 5896W        W 5896   8.982   0.352   6.888 -0.1025  0.1948  0.0076
 5897W        W 5897   2.386   3.816   4.819  0.2412  0.0229  0.0466
 5898W        W 5898   0.456   7.063   3.070 -0.0508 -0.0076 -0.0590
 5899W        W 5899   4.843   3.286  10.092  0.1007 -0.2282 -0.0926
 5900W        W 5900   4.921   5.674   4.419  0.1612  0.4131 -0.1896
 5901W        W 5901   1.754   7.622   6.350  0.2655 -0.0826  0.0627
 5902W        W 5902   3.718   7.021   4.078 -0.0849  0.3575  0.1446
 5903W        W 5903   2.167   8.445   6.358  0.1823  0.1569  0.2312
 5904W        W 5904   4.279   2.698   6.304  0.0651 -0.0113 -0.1290
 5905W        W 5905   7.824   3.510   7.225 -0.0988 -0.2875  0.0531
 5906W        W 5906   1.682   6.166   2.197 -0.2063  0.4591  0.0212
 5907W        W 5907   4.126   9.944   5.383 -0.2902  0.3724 -0.0414
 5908W        W 5908   2.489   0.694   4.520 -0.3267  0.1230 -0.2737
 5909W        W 5909   8.038   4.870   6.264 -0.1706  0.0701  0.2377
 5910W        W 5910   8.023   7.550   9.169  0.0351 -0.2391  0.0460
 5911W        W 5911   6.429  10.339   2.654 -0.2958 -0.2834 -0.2208
 5912W        W 5912   7.369   9.830   2.576  0.2678 -0.2295  0.1526
 5913W        W 5913   8.722   8.131   7.034 -0.3707 -0.0229 -0.2706
 5914W        W 5914   9.566   5.392   6.291  0.1964  0.2351  0.0737
 5915W        W 5915   9.240   2.328   8.924  0.0614  0.2004  0.3525
 5916W        W 5916   8.406  10.064   2.911  0.3584  0.0177  0.2681
 5917W        W 5917   2.938   2.963   9.397  0.0653  0.0654  0.4078
 5918W        W 5918   9.375   3.404   7.909 -0.3640  0.1680  0.0488
 5919W        W 5919   0.736   3.898   1.063  0.2149 -0.3895  0.1006
 5920W        W 5920   9.564   2.531   8.452 -0.0596  0.0654  0.1384
 5921W        W 5921   7.773   7.283   8.064 -0.1847  0.0404 -0.4052
 5922W        W 5922   2.581   1.891   7.990  0.0862 -0.0261  0.1494
 5923W        W 5923   6.706   2.050   0.033 -0.0014  0.1535 -0.0906
 5924W        W 5924   4.849   5.036   5.044 -0.0961  0.0721  0.4683
 5925W        W 5925   2.733   1.386   1.562  0.3908 -0.4119 -0.0076
 5926W        W 5926   4.027   1.306   2.262  0.0284  0.0808  0.0420
 5927W        W 5927   7.684   7.338   5.647  0.2294  0.1003  0.1196
 5928W        W 5928   3.939   6.021   4.873  0.5916  0.3955 -0.1494
 5929W        W 5929   0.474   8.092   9.290 -0.4784 -0.1009 -0.1863
 5930W        W 5930  10.200   5.540   4.794  0.1732  0.0522  0.0183
 5931W        W 5931   0.952   1.094   1.229 -0.2288 -0.2313 -0.0146
 5932W        W 5932   1.341   3.664   8.472 -0.0208 -0.0170 -0.0271
 5933W        W 5933   1.883   5.159   6.713  0.1668  0.0469  0.1617
 5934W        W 5934   6.005   8.086   7.929  0.1036 -0.0931  0.0309
 5935W        W 5935   2.181   4.787   3.519  0.0382  0.0020 -0.0805
 5936W        W 5936   3.071   1.826  10.284 -0.0693 -0.0446  0.3400
 5937W        W 5937   4.050   2.062   5.646  0.0951  0.4761  0.0984
 5938W        W 5938   0.231   4.946   7.131 -0.3641 -0.1307 -0.1553
 5939W        W 5939   6.204   2.270   6.972 -0.3021  0.0513 -0.1353
 5940W        W 5940   7.075   8.014   7.561 -0.1194 -0.2799  0.2070
 5941W        W 5941   1.082  10.034   8.139 -0.1636 -0.3247 -0.4020
 5942W        W 5942   7.674   8.267   8.057  0.3136 -0.1391  0.2414
 5943W        W 5943   7.820   8.182   4.159 -0.1531 -0.2956 -0.0941
 5944W        W 5944   2.750   0.434   5.023 -0.1959 -0.1047  0.2100
 5945W        W 5945   9.902   7.211   6.489 -0.2327 -0.2845 -0.0194
 5946W        W 5946   9.376   0.423   1.371  0.1210 -0.0039  0.0273
 5947W        W 5947   0.470   5.222   9.556  0.2192  0.2649  0.1633
 5948W        W 5948  10.242   3.423   1.479 -0.0123 -0.0063  0.2642
 5949W        W 5949   9.551   4.171   6.107  0.3600  0.0603 -0.1180
 5950W        W 5950   5.847   3.095   2.663  0.3205  0.0042  0.3836
 5951W        W 5951   4.706   8.481   9.195 -0.0970  0.2373 -0.2354
 5952W        W 5952   1.349   1.216   2.491 -0.2867 -0.1322  0.2932
 5953W        W 5953   5.661   9.493   1.852 -0.2399  0.2126 -0.0704
 5954W        W 5954   0.752   1.968   2.314 -0.2034 -0.2389 -0.3246
 5955W        W 5955   5.275   5.169   7.387  0.0570 -0.0717  0.1712
 5956W        W 5956   9.329   1.311   2.466 -0.1043  0.0837 -0.0712
 5957W        W 5957   1.375   3.856   0.190 -0.1339 -0.0835 -0.2392
 5958W        W 5958   5.578   8.511   6.837 -0.0710  0.0516  0.0468
 5959W        W 5959  10.163   6.636   1.839  0.3780  0.0294 -0.0408
 5960W        W 5960   8.694   6.488   0.378 -0.2150 -0.4956  0.0548
 5961W        W 5961   7.000   7.444  10.017  0.1458 -0.2144 -0.0885
 5962W        W 5962   4.793   0.087   1.110 -0.1147  0.0763  0.1113
 5963W        W 5963   8.484   3.028   7.656 -0.0943 -0.0809 -0.2324
 5964W        W 5964   8.627  10.060   0.443 -0.3149  0.1760  0.3266
 5965W        W 5965   5.791   6.445   2.643 -0.2828 -0.1083  0.0740
 5966W        W 5966   2.594   0.801   0.661 -0.1815  0.0769 -0.0313
 5967W        W 5967   9.673   1.513   1.533 -0.0016  0.2261  0.0204
 5968W        W 5968   0.815   5.026   6.077  0.2826 -0.0883  0.1247
 5969W        W 5969   2.551   7.539   5.880 -0.0424  0.0317 -0.0240
 5970W        W 5970   0.790   6.462   6.458  0.0646  0.1167 -0.1166
 5971W        W 5971  10.180   8.643   1.495 -0.3037  0.0124  0.0437
 5972W        W 5972   8.232   1.489   7.472  0.1394  0.1854  0.1624
 5973W        W 5973   3.103   6.895   1.846  0.0733 -0.2601  0.4111
 5974W        W 5974   5.694   5.896   9.603 -0.4424  0.1186 -0.4824
 5975W        W 5975   2.496   2.630   9.218 -0.2479  0.2463  0.0012
 5976W        W 5976   5.736   2.537   0.067 -0.2807  0.2030  0.0099
 5977W        W 5977   1.064   6.784   3.788  0.0376  0.0319 -0.2830
 5978W        W 5978   6.725  10.090   6.050  0.2128 -0.0318  0.0070
 5979W        W 5979   3.543  10.244   7.742  0.2063  0.0697 -0.0524
 5980W        W 5980   9.485   9.088   7.782 -0.3231 -0.0470  0.0620
 5981W        W 5981   4.877   0.914   8.513 -0.2380 -0.0817 -0.1167
 5982W        W 5982   1.918   3.589   3.335  0.0049 -0.0537  0.1158
 5983W        W 5983   2.324   1.446   7.852  0.1865 -0.0032 -0.3516
 5984W        W 5984   8.180   7.052   8.114 -0.0213 -0.0568 -0.0859
 5985W        W 5985   7.627   0.390   0.206  0.0079 -0.2989 -0.1280
 5986W        W 5986   3.597   5.249   6.396  0.0609  0.0181 -0.1087
 5987W        W 5987   8.759   9.448   6.893  0.1731  0.0295 -0.1070
 5988W        W 5988   7.782   6.639   8.751  0.0203 -0.2082  0.1342
 5989W        W 5989   8.682   3.659   7.714 -0.2122 -0.1313  0.1964
 5990W        W 5990   1.521   1.519   0.933 -0.1370 -0.0399  0.0315
 5991W        W 5991   5.083   7.772   7.844 -0.1180  0.1429 -0.0708
 5992W        W 5992   0.375   1.035   1.146 -0.3077  0.2683  0.1790
 5993W        W 5993   5.059   9.324   9.120  0.3738  0.1106 -0.1978
 5994W        W 5994   9.253   9.332   3.167  0.2679  0.1124 -0.2973
 5995W        W 5995  10.048   2.678   0.154 -0.1034  0.1609  0.3629
 5996W        W 5996   5.550   4.722   7.505 -0.3924 -0.1022 -0.0950
 5997W        W 5997   4.755   5.542   0.437  0.0778 -0.0012  0.2340
 5998W        W 5998   3.346   8.808   5.372  0.0461 -0.1703 -0.4083
 5999W        W 5999   4.529   5.105   0.877  0.0518  0.0572 -0.3118
 6000W        W 6000   3.014   0.762   5.310 -0.0929 -0.1222 -0.4431
 6001W        W 6001   3.572   9.228   2.114 -0.3148  0.1372  0.0483
 6002W        W 6002   5.589   6.841   2.920 -0.1220 -0.1997 -0.0673
 6003W        W 6003   1.380   2.039   2.358  0.3272 -0.0420  0.0606
 6004W        W 6004   1.016   7.037   4.225  0.2384 -0.2426 -0.2821
 6005W        W 6005   4.195   2.321   6.634  0.0181 -0.1570  0.2191
 6006W        W 6006   8.165   0.558   0.251  0.3998  0.0729  0.0171
 6007W        W 6007   3.962   5.478   7.971 -0.0941  0.3865  0.3195
 6008W        W 6008   1.367   9.161  10.332 -0.0429  0.0479  0.0446
 6009W        W 6009   5.501   6.784   2.353 -0.3468 -0.2504  0.0800
 6010W        W 6010   1.065   6.241   3.347 -0.0970 -0.1599  0.1585
 6011W        W 6011   0.153   6.108   3.695 -0.3562  0.1987 -0.0254
 6012W        W 6012   1.598   7.813  10.187 -0.1455  0.0760 -0.1022
 6013W        W 6013   1.459  10.033   7.838  0.1724 -0.1316  0.0793
 6014W        W 6014  10.151   1.852   7.928  0.1351 -0.0593 -0.0455
 6015W        W 6015   5.992   5.456   1.742  0.3951 -0.1133 -0.0376
 6016W        W 6016   2.820   5.906   8.501 -0.1256 -0.0126 -0.2930
 6017W        W 6017   3.641   0.706   6.105 -0.4581  0.0137 -0.0438
 6018W        W 6018   7.156   0.497   3.043  0.0416  0.5087 -0.0708
 6019W        W 6019   1.681   2.886   0.451 -0.2953 -0.0004  0.0632
 6020W        W 6020   7.142   9.252   3.901  0.1169  0.0595 -0.3108
 6021W        W 6021   1.714   3.349   0.633 -0.1716 -0.0840  0.0403
 6022W        W 6022   2.486   3.626   9.095 -0.3420  0.0162 -0.2093
 6023W        W 6023  10.134   3.129   2.899 -0.0718  0.1123 -0.1793
 6024W        W 6024   5.740   2.011  10.172  0.0486 -0.0511  0.1504
 6025W        W 6025   4.019   7.745   4.030 -0.0203 -0.0947 -0.0869
 6026W        W 6026   8.457   1.647   3.687  0.0403  0.1031  0.2100
 6027W        W 6027   6.802   2.382   4.480 -0.0217 -0.0542 -0.0493
 6028W        W 6028   2.480   6.552   6.100 -0.1885 -0.0143  0.0278
 6029W        W 6029   1.269   8.302   9.061  0.1407  0.2451  0.0554
 6030W        W 6030   0.613   6.565   8.359  0.0809  0.0728 -0.0543
 6031W        W 6031   4.466   2.924   5.864  0.5341  0.2479  0.2075
 6032W        W 6032   2.926   4.235   7.119  0.0823  0.2678  0.2697
 6033W        W 6033   4.922   2.394   5.275 -0.2051 -0.0746 -0.0648
 6034W        W 6034   5.686   5.233   7.600  0.0911 -0.3827 -0.0992
 6035W        W 6035   5.123   2.761  10.174  0.0166  0.2482 -0.4214
 6036W        W 6036   3.001   2.297   2.811  0.0927 -0.3990 -0.1598
 6037W        W 6037   1.607   7.776   7.450  0.0391 -0.2225 -0.1525
 6038W        W 6038   4.760   5.087   1.558  0.3393  0.1662  0.3456
 6039W        W 6039   2.432   9.190   7.374  0.1266  0.0983  0.0005
 6040W        W 6040   3.156   3.368   4.085 -0.1321  0.1580  0.0395
 6041W        W 6041  10.156   5.911   6.836 -0.2569  0.2063 -0.0228
 6042W        W 6042   6.788   4.509   6.999  0.2646 -0.1474 -0.1151
 6043W        W 6043   3.597   3.980   1.764  0.2706  0.0105 -0.0084
 6044W        W 6044   7.214   9.219   7.241 -0.2805 -0.4974 -0.1199
 6045W        W 6045   6.755   7.567   4.657 -0.0721  0.0601 -0.0875
 6046W        W 6046   3.349   0.519   1.425  0.0849  0.1138 -0.1906
 6047W        W 6047   7.594   4.048   1.791 -0.3914  0.0992 -0.3322
 6048W        W 6048   5.631   9.412   5.115  0.2153  0.0882  0.0636
 6049W        W 6049   1.724   0.812   5.563 -0.0616  0.1377  0.3705
 6050W        W 6050   2.267   9.654   5.968  0.3788 -0.0306 -0.0386
 6051W        W 6051   1.040   0.354   3.326  0.3037  0.2352  0.0642
 6052W        W 6052   8.435   1.508   1.608  0.2235  0.0228 -0.0140
 6053W        W 6053   0.547   4.853   2.609  0.0445 -0.0371 -0.0220
 6054W        W 6054   0.630   2.779   0.542  0.2648  0.1864  0.3490
 6055W        W 6055   5.008   2.372   2.063 -0.2178  0.0131 -0.0145
 6056W        W 6056   1.359   5.115   1.762  0.2552 -0.2109 -0.2580
 6057W        W 6057   9.926   4.788   1.371 -0.0357 -0.1987  0.1765
 6058W        W 6058   9.343   8.126   2.315  0.2097  0.4858  0.0956
 6059W        W 6059   7.329   2.313   6.063 -0.5196  0.0099 -0.0578
 6060W        W 6060   4.181   8.700   5.741 -0.1591  0.0235 -0.1708
 6061W        W 6061   1.564   1.333   9.053 -0.0313 -0.0642 -0.1907
 6062W        W 6062   0.608   7.375   5.949 -0.1626  0.1679 -0.1281
 6063W        W 6063   3.695   3.700   4.843  0.1202  0.1409  0.0119
 6064W        W 6064   4.890   9.728   0.654  0.3139  0.0949  0.0920
 6065W        W 6065   6.177   3.067   7.272 -0.1785 -0.1580 -0.0570
 6066W        W 6066   1.564   9.854   1.547  0.2085 -0.0096  0.3367
 6067W        W 6067   5.303   2.681   0.314  0.2175 -0.4318 -0.0394
 6068W        W 6068   9.570   6.324   8.815  0.4473 -0.2532 -0.0241
 6069W        W 6069   9.705   1.491   6.976  0.0133  0.1296 -0.3464
 6070W        W 6070   1.110   9.325   0.499 -0.0274 -0.0035 -0.0946
 6071W        W 6071   5.035   7.257   6.632  0.2883  0.1736 -0.1125
 6072W        W 6072   7.797   0.307   6.150 -0.1799 -0.1782  0.1783
 6073W        W 6073   9.965   0.909   1.640 -0.1662 -0.2960 -0.1562
 6074W        W 6074   5.280   2.919   7.427 -0.2425  0.0689 -0.0997
 6075W        W 6075   4.599   4.129   8.025 -0.3861 -0.0247 -0.2326
 6076W        W 6076   9.642   7.685   6.541 -0.2318  0.7909 -0.2421
 6077W        W 6077   4.481   4.771   7.614  0.0206 -0.0542  0.0744
 6078W        W 6078   0.309   7.975   3.968 -0.4202  0.0971 -0.1881
 6079W        W 6079   4.730   9.546   7.881  0.1008  0.2471 -0.2658
 6080W        W 6080   5.033   2.681   5.702  0.1538 -0.0867 -0.2269
 6081W        W 6081   4.251   1.031   1.807  0.1032 -0.3674 -0.1644
 6082W        W 6082   3.559   3.392   3.382 -0.0506 -0.0825 -0.0968
 6083W        W 6083   5.209   9.576   2.146 -0.0835  0.2526  0.0297
 6084W        W 6084   0.983   7.397   1.744  0.0520  0.2311  0.2577
 6085W        W 6085   4.356   3.721   9.687  0.1617  0.0046  0.1221
 6086W        W 6086   0.925   7.375   8.658  0.2454  0.2751  0.2521
 6087W        W 6087   3.422   4.874   8.889  0.0416  0.2064 -0.0027
 6088W        W 6088   4.949   2.753   8.166 -0.0792 -0.1997 -0.1322
 6089W        W 6089   9.415   4.938   9.563  0.0099  0.2574 -0.2804
 6090W        W 6090   8.501   1.119   5.425 -0.0509 -0.1736  0.1454
 6091W        W 6091   4.418   8.383   8.100 -0.1292 -0.0470 -0.1117
 6092W        W 6092   0.160   2.512   4.682  0.0046  0.2884  0.0907
 6093W        W 6093   1.846   4.697   4.510 -0.1255  0.0586  0.1643
 6094W        W 6094   9.239   9.482   4.032 -0.0663  0.3268 -0.2742
 6095W        W 6095   5.592   2.385   8.238 -0.1605 -0.0890  0.2012
 6096W        W 6096   6.290   7.770   5.537 -0.0705  0.1685 -0.1940
 6097W        W 6097   3.812   2.920   3.495 -0.3713  0.0473 -0.0243
 6098W        W 6098  10.332   8.984  10.138 -0.4214  0.0992 -0.0878
 6099W        W 6099   2.712   7.011   9.232  0.1870 -0.0156 -0.1644
 6100W        W 6100   2.256   4.875   9.273 -0.1497 -0.1333 -0.4571
 6101W        W 6101   1.028   6.856   1.955  0.0016  0.0279 -0.2346
 6102W        W 6102   4.152   8.488   5.103  0.3377 -0.0073 -0.1746
 6103W        W 6103   5.681   5.343   1.380 -0.1214 -0.0689 -0.0110
 6104W        W 6104   7.720   3.808   1.339  0.0033  0.0098 -0.2378
 6105W        W 6105   2.209   2.189   7.268  0.4154 -0.0616  0.1918
 6106W        W 6106   3.844   7.905   8.997 -0.0364  0.1097 -0.0164
 6107W        W 6107   8.615   2.856   3.464  0.0684 -0.0045 -0.3306
 6108W        W 6108   1.202   1.243   0.592 -0.0718 -0.1931  0.4624
 6109W        W 6109   6.633  10.155   2.178 -0.2477 -0.0162 -0.0408
 6110W        W 6110   9.912   2.409   5.381 -0.0978  0.0516 -0.0815
 6111W        W 6111   6.378   9.978   6.413 -0.0905 -0.3455  0.0011
 6112W        W 6112   4.339  10.151   8.225  0.1870  0.0857 -0.0070
 6113W        W 6113   0.773   9.172   4.437  0.4610 -0.0064  0.0227
 6114W        W 6114   0.589   1.768   5.904 -0.1338 -0.1209 -0.1139
 6115W        W 6115   5.709   4.618   2.331  0.0561  0.0818 -0.1684
 6116W        W 6116   8.976   3.829   0.147  0.1105  0.2567  0.0362
 6117W        W 6117   7.132   8.558   5.491  0.0540 -0.1677  0.0539
 6118W        W 6118   1.795   9.448   3.512 -0.0173 -0.1850 -0.0293
 6119W        W 6119   9.679   3.154   2.650 -0.1649 -0.0977  0.3495
 6120W        W 6120   8.551   8.635  10.039  0.1395 -0.1375 -0.0559
 6121W        W 6121   5.856  10.155   0.450  0.0054  0.1506  0.0023
 6122W        W 6122   7.725   8.146   9.907  0.0441  0.0686  0.4353
 6123W        W 6123   2.158   7.074   5.568  0.3693 -0.0734 -0.0508
 6124W        W 6124   8.215   7.784   2.912 -0.0781  0.4642  0.0285
 6125W        W 6125   8.374   9.521   4.088  0.1481  0.3437 -0.1657
 6126W        W 6126   9.098   9.647   7.789  0.2645 -0.2967 -0.0521
 6127W        W 6127   6.785   7.650   8.292 -0.0161  0.0160 -0.1212
 6128W        W 6128   1.449   0.917   8.202 -0.2707  0.1661  0.0139
 6129W        W 6129   5.460   8.278   4.414  0.3754  0.1798 -0.4607
 6130W        W 6130   0.204   8.837   1.865  0.0189  0.3156 -0.1331
 6131W        W 6131   7.570   2.658   3.740 -0.0534  0.1175  0.0433
 6132W        W 6132   7.185  10.204   0.764 -0.2114 -0.1666  0.0920
 6133W        W 6133   1.746   4.744   0.524  0.1634  0.0655 -0.0450
 6134W        W 6134   2.697   7.125   0.235  0.1047 -0.4914 -0.0223
 6135W        W 6135  10.201   7.592   2.447 -0.0225 -0.5008  0.1724
 6136W        W 6136   7.241   3.181   0.839 -0.1019 -0.1473  0.1268
 6137W        W 6137   0.089   9.704   4.853  0.1154 -0.1097  0.3234
 6138W        W 6138   8.363   9.360   5.153  0.2550 -0.0542  0.2292
 6139W        W 6139   1.433   7.254   6.202 -0.2201  0.0226  0.1570
 6140W        W 6140   1.780   0.517   8.225 -0.0880 -0.1021  0.1406
 6141W        W 6141   9.296   8.389   6.092  0.2318  0.1735 -0.1919
 6142W        W 6142   2.755  10.189   8.838  0.0933  0.2787  0.2392
 6143W        W 6143   2.024   3.325  10.189 -0.1994  0.0895 -0.3383
 6144W        W 6144   2.431   2.066   5.418  0.1319  0.0818  0.0808
 6145W        W 6145   1.185   0.224  10.161 -0.1053 -0.1294  0.1213
 6146W        W 6146  10.259   5.230   7.555 -0.1270  0.0195 -0.2951
 6147W        W 6147   2.318   2.271   4.540  0.0044 -0.2608 -0.3583
 6148W        W 6148   3.959   2.850   3.984  0.0042  0.1211 -0.2616
 6149W        W 6149   9.073   2.777   5.042  0.0549 -0.4359  0.1530
 6150W        W 6150  10.036   3.956   4.384 -0.0032  0.0832  0.3977
 6151W        W 6151   5.946   9.855   4.406  0.4231  0.1936 -0.1245
 6152W        W 6152   9.338   3.632   1.859 -0.1359  0.3865 -0.0658
 6153W        W 6153   1.984   8.292   1.432  0.0400  0.1699 -0.0080
 6154W        W 6154   2.853   2.787   1.418  0.0690 -0.1035 -0.1018
 6155W        W 6155   6.101   2.401   3.921 -0.1809  0.1940  0.0730
 6156W        W 6156   2.250   2.519   8.643  0.1315 -0.0741  0.2011
 6157W        W 6157   8.861   4.984   9.607 -0.2210  0.0088 -0.0201
 6158W        W 6158   7.635   8.934   4.582  0.0473 -0.0168  0.0387
 6159W        W 6159   0.220   8.609   7.290  0.0443 -0.0488  0.1218
 6160W        W 6160   7.479   2.163   7.477 -0.1385  0.1224 -0.3199
 6161W        W 6161   4.062   3.560   2.759  0.4008  0.4110 -0.2213
 6162W        W 6162   9.887   8.066   5.601 -0.0122  0.0156  0.0475
 6163W        W 6163   2.825   3.413   7.354  0.2007 -0.0621 -0.1981
 6164W        W 6164   0.389   5.400   2.934  0.2465 -0.0145 -0.0541
 6165W        W 6165   9.086   4.688   7.373  0.2106  0.1773 -0.2089
 6166W        W 6166  10.037   3.554   2.654 -0.1532 -0.3431  0.0865
 6167W        W 6167   6.394   8.284   9.489 -0.2530 -0.0882 -0.0639
 6168W        W 6168   6.372   5.284   7.012  0.4003  0.2048 -0.1999
 6169W        W 6169   4.328   3.468   0.865  0.0136 -0.0981 -0.1489
 6170W        W 6170   0.392   2.574   9.128 -0.1567 -0.1749  0.0392
 6171W        W 6171   1.264   3.253   4.444 -0.0423  0.3541 -0.0806
 6172W        W 6172   3.895   4.496   2.966 -0.1032  0.3453  0.1008
 6173W        W 6173   0.080   4.563   6.667 -0.1928 -0.0040  0.1050
 6174W        W 6174   2.750   4.142   9.421  0.0128 -0.0740  0.0394
 6175W        W 6175   2.962   1.975   4.663  0.3213  0.0185  0.1912
 6176W        W 6176   0.504   6.946   9.456 -0.1106  0.0508  0.0026
 6177W        W 6177   6.918   8.648   1.968 -0.0807 -0.0676  0.0477
 6178W        W 6178   1.644   9.558   8.735  0.4204  0.1353  0.0990
 6179W        W 6179   2.770   5.110   7.013  0.1464  0.0521 -0.2615
 6180W        W 6180   9.606   0.140   7.965  0.1098 -0.1532 -0.0765
 6181W        W 6181   7.569   5.685   7.457  0.4016  0.0640  0.2686
 6182W        W 6182   6.350   2.089   3.566  0.0769 -0.0871  0.1294
 6183W        W 6183   1.628  10.188   1.959  0.4038 -0.0150 -0.4564
 6184W        W 6184   6.761   4.244   2.371  0.1443 -0.1977 -0.0370
 6185W        W 6185   4.003   9.806   4.387 -0.4783  0.1792 -0.3052
 6186W        W 6186   2.006   8.844  10.006  0.1308 -0.1861 -0.1932
 6187W        W 6187   0.271   1.876   0.304  0.0528 -0.2251  0.2252
 6188W        W 6188   0.520   4.628   1.563 -0.0776  0.0690 -0.2236
 6189W        W 6189   8.242   9.394   0.778 -0.1352  0.1272  0.3395
 6190W        W 6190   3.081   2.622   0.301  0.1909 -0.2147 -0.0009
 6191W        W 6191   3.154   1.071   3.787  0.0442 -0.1774 -0.0689
 6192W        W 6192   5.190   7.461   0.879 -0.0234  0.0874  0.0922
 6193W        W 6193   1.293   0.271   7.099  0.0900  0.0441  0.1532
 6194W        W 6194   8.632   4.235   6.615 -0.1703  0.1813 -0.1364
 6195W        W 6195   2.292   9.268   5.065 -0.1306  0.3076  0.0128
 6196W        W 6196   6.950   0.778   2.448  0.0178  0.0035  0.3097
 6197W        W 6197   5.383   4.013   3.270 -0.0469  0.0035 -0.0723
 6198W        W 6198   8.794   7.279   1.553 -0.0727  0.0154  0.1272
 6199W        W 6199   0.897   3.702   2.275 -0.0534 -0.1370  0.1932
 6200W        W 6200   6.855   6.291   5.144 -0.4119  0.0335 -0.2797
 6201W        W 6201   3.041   9.420   6.016  0.0345  0.0756 -0.1154
 6202W        W 6202   6.054   1.090   0.655 -0.1596  0.2422  0.0185
 6203W        W 6203   6.972   0.904   5.209 -0.1363  0.2053 -0.2592
 6204W        W 6204   6.309   1.831   4.189 -0.0070 -0.0868  0.0194
 6205W        W 6205   7.702   1.264   4.300 -0.3816 -0.3522  0.0466
 6206W        W 6206  10.234   2.115   4.533 -0.0394  0.1635 -0.1704
 6207W        W 6207   0.767   9.064   3.024  0.2845  0.2544  0.0434
 6208W        W 6208  10.071   7.209   2.755  0.1783 -0.1814  0.0462
 6209W        W 6209   6.479   5.067   1.771 -0.0339  0.1708  0.2149
 6210W        W 6210   9.982   8.652   4.418  0.0309  0.0490  0.2742
 6211W        W 6211   6.385   7.424   3.292 -0.0731 -0.1276  0.0350
 6212W        W 6212   2.342   6.020   7.648  0.3052  0.3244  0.0546
 6213W        W 6213   7.714   0.469  10.012 -0.6074 -0.1035 -0.2347
 6214W        W 6214   3.872   7.052   3.367 -0.0758 -0.1821  0.1024
 6215W        W 6215   4.907   6.220   4.675 -0.1442 -0.1367  0.4297
 6216W        W 6216   2.044   7.507   2.453  0.0390  0.0428  0.2109
 6217W        W 6217   6.792   9.628   1.764 -0.1070  0.1521 -0.1535
 6218W        W 6218   0.916   3.622   9.734  0.1248 -0.0800  0.1677
 6219W        W 6219   8.604   6.112   5.569  0.4497  0.3972 -0.3444
 6220W        W 6220   5.673   1.771   2.385 -0.0749 -0.1384  0.2563
 6221W        W 6221   3.070   2.201   3.282 -0.2195 -0.0002 -0.1304
 6222W        W 6222   2.729   3.174   2.786  0.0347 -0.2441  0.1451
 6223W        W 6223   0.295   6.201   8.375  0.2139  0.0139 -0.1376
 6224W        W 6224   5.371   7.873   5.941 -0.0318  0.3698 -0.0991
 6225W        W 6225   1.290   0.334   2.841 -0.3572  0.2185  0.1119
 6226W        W 6226  10.295   5.948   1.417 -0.1125  0.1089 -0.0848
 6227W        W 6227   9.418   8.422   9.249 -0.0018  0.0451 -0.0006
 6228W        W 6228   1.473   7.997   6.600  0.1784  0.2659 -0.0400
 6229W        W 6229   1.219   7.672   0.578  0.3700 -0.0020 -0.2188
 6230W        W 6230   4.546   5.318   5.238 -0.0882  0.0588  0.2978
 6231W        W 6231   4.708   3.831   2.025 -0.0423 -0.1884  0.1955
 6232W        W 6232   7.177   4.740   0.348 -0.1520 -0.0668 -0.2077
 6233W        W 6233   4.002   8.268   6.023 -0.3551  0.0135 -0.0288
 6234W        W 6234   4.586   6.126   4.279  0.2886  0.4292  0.2407
 6235W        W 6235   8.668   4.050   8.794  0.2091 -0.1578  0.4028
 6236W        W 6236   3.018   5.737   7.622 -0.3170 -0.1940  0.0727
 6237W        W 6237   5.203   1.315   8.533 -0.3124 -0.3413  0.2254
 6238W        W 6238   4.377   1.441   5.235  0.0797 -0.1175 -0.0745
 6239W        W 6239   1.621   5.647   7.130  0.2169 -0.2456  0.0123
 6240W        W 6240   6.507   1.192   5.125  0.0640  0.1329 -0.3909
 6241W        W 6241   1.282   2.857   1.546 -0.0392 -0.1355 -0.0927
 6242W        W 6242   5.743   7.961   2.844  0.1514  0.0553 -0.1227
 6243W        W 6243   9.247   7.747   9.289 -0.1257  0.0788  0.2127
 6244W        W 6244   9.965   0.590   8.630 -0.0946  0.1372  0.1175
 6245W        W 6245   2.523   0.632   7.199  0.1058  0.1799 -0.1196
 6246W        W 6246   6.486   4.200   8.611  0.2925  0.1601 -0.1100
 6247W        W 6247   1.098   5.388   7.918 -0.1155 -0.0398  0.0114
 6248W        W 6248   4.407   7.060   3.525 -0.1403  0.0369 -0.2371
 6249W        W 6249   8.493   9.572   3.135 -0.0859 -0.1777 -0.1841
 6250W        W 6250   8.683   3.018  10.261  0.1920  0.3188  0.1344
 6251W        W 6251   4.702   8.278  10.127 -0.0241 -0.1087  0.2337
 6252W        W 6252   8.310   0.673   8.841  0.2799 -0.0498 -0.3544
 6253W        W 6253   6.934   6.632   1.083 -0.1460 -0.2187 -0.1817
 6254W        W 6254   3.737   2.907   9.170  0.0247  0.1256 -0.1966
 6255W        W 6255   4.746   0.249   8.265 -0.4343  0.2866  0.1895
 6256W        W 6256   7.314   5.308   8.864 -0.2119  0.0755  0.1819
 6257W        W 6257   9.382   9.246   5.047 -0.0813 -0.3212 -0.0969
 6258W        W 6258   3.628   0.064  10.252  0.0536 -0.1751 -0.0324
 6259W        W 6259   5.169   1.877   1.205  0.0015 -0.1313 -0.1719
 6260W        W 6260   3.853   5.968   9.766  0.3326 -0.2477  0.0520
 6261W        W 6261   4.719   2.662   6.660  0.1712 -0.0874  0.1992
 6262W        W 6262   8.648   7.220   6.492  0.0775 -0.1833 -0.0964
 6263W        W 6263   5.014   7.638   8.438  0.1056  0.1893 -0.1979
 6264W        W 6264   1.440   3.504   5.177  0.0067 -0.2842  0.1003
 6265W        W 6265   3.540   4.326   5.332 -0.0044 -0.1035 -0.0003
 6266W        W 6266   5.530   1.029   0.822 -0.0446 -0.1518 -0.0513
 6267W        W 6267   7.416   4.497   3.258  0.0868 -0.0138  0.2875
 6268W        W 6268   2.331  10.185   4.506 -0.1208 -0.1891 -0.0232
 6269W        W 6269   4.136   5.925   6.843 -0.3517 -0.0816  0.0452
 6270W        W 6270   2.520   2.167   2.925  0.0721 -0.0390 -0.1305
 6271W        W 6271   6.790   3.684   7.567 -0.0301  0.0099  0.0293
 6272W        W 6272   2.684   1.560  10.028  0.1677 -0.1551  0.0269
 6273W        W 6273   2.083   6.120   7.180  0.1012 -0.2129 -0.1056
 6274W        W 6274   1.525   6.664   1.927  0.2919  0.1285 -0.1246
 6275W        W 6275   3.862   0.767   0.155  0.1421 -0.2532  0.1483
 6276W        W 6276   3.415   7.570   1.790 -0.2973  0.1998  0.1962
 6277W        W 6277   7.855   0.022   8.221 -0.2486 -0.1771 -0.1556
 6278W        W 6278   6.635   9.158   9.919 -0.1030 -0.2678 -0.3281
 6279W        W 6279   0.007   9.020   8.273  0.0578 -0.2238 -0.0943
 6280W        W 6280   4.501   4.219   1.585 -0.2644  0.0323 -0.1363
 6281W        W 6281   6.298   4.341   2.485  0.0134 -0.1474  0.0492
 6282W        W 6282   2.773   0.941   4.122 -0.2948 -0.0999  0.0354
 6283W        W 6283   7.352   3.633   4.748  0.1464  0.0755  0.1375
 6284W        W 6284   3.475   5.286   9.795 -0.1166 -0.1829 -0.2868
 6285W        W 6285  10.257   0.193  10.152 -0.2194 -0.1383  0.2457
 6286W        W 6286   4.329   5.794   4.522  0.1405  0.2510  0.2057
 6287W        W 6287   1.101   4.033   1.987  0.2720  0.3892 -0.3677
 6288W        W 6288   5.178   6.545   4.418 -0.0312 -0.2209  0.1448
 6289W        W 6289   0.425   2.121   8.969 -0.0442 -0.3447 -0.3057
 6290W        W 6290   7.033   1.687   1.725  0.0122 -0.1178 -0.0965
 6291W        W 6291   8.201   1.029   7.579  0.0531  0.1135  0.0421
 6292W        W 6292   2.319   7.248   3.136 -0.1923 -0.3043  0.0832
 6293W        W 6293   3.834   0.730   4.912  0.2092  0.0565  0.1530
 6294W        W 6294   0.754   9.062   7.312 -0.1275 -0.0724  0.6775
 6295W        W 6295   0.969   4.242   4.189  0.1340  0.0770  0.1629
 6296W        W 6296   9.860   0.881   7.659  0.1997  0.0295  0.1775
 6297W        W 6297   5.956   3.197   3.196 -0.0333  0.0738 -0.0938
 6298W        W 6298   1.846   6.981   3.223 -0.0244  0.2565  0.0555
 6299W        W 6299   4.950   2.132   5.793  0.1399 -0.2565 -0.1078
 6300W        W 6300   1.042   4.211   0.165  0.1713  0.0117 -0.1423
 6301W        W 6301   9.060   4.087   0.994  0.1871 -0.3672  0.1437
 6302W        W 6302   7.463   2.768   0.491  0.1875 -0.2383 -0.1221
 6303W        W 6303   6.769   3.026   1.962  0.1733 -0.0005 -0.1660
 6304W        W 6304   9.447   6.980   4.349 -0.1224 -0.2228  0.0015
 6305W        W 6305   4.058   9.362   9.249 -0.0784  0.0150  0.1441
 6306W        W 6306   8.051   7.276   5.272  0.0935 -0.1154 -0.3492
 6307W        W 6307   7.558   4.946   2.957  0.0680 -0.3107  0.0677
 6308W        W 6308   0.493  10.210   0.293 -0.0689 -0.2593 -0.1345
 6309W        W 6309   0.193   5.845   0.992 -0.1805  0.0700  0.4520
 6310W        W 6310   0.760   4.309   5.185 -0.3358 -0.0960  0.0243
 6311W        W 6311   4.846   9.090   9.622 -0.0126  0.3184  0.1219
 6312W        W 6312   6.202   0.498   4.666 -0.2124  0.2805 -0.3405
 6313W        W 6313   0.753   9.110   9.570  0.5061  0.3325  0.0501
 6314W        W 6314   0.143   2.142   1.970  0.0711 -0.3747 -0.0233
 6315W        W 6315   1.913   8.462   3.906  0.1316 -0.0808 -0.1188
 6316W        W 6316   1.138   8.381   7.278  0.1975  0.1756 -0.2929
 6317W        W 6317   3.551   9.540   0.326 -0.0813 -0.1291  0.1337
 6318W        W 6318   4.853   2.814   9.748 -0.1050  0.0437  0.4031
 6319W        W 6319   6.690   1.242   2.573 -0.1728 -0.0898  0.0320
 6320W        W 6320   3.645   0.492   9.235 -0.1115  0.2120 -0.0082
 6321W        W 6321   7.931   1.578   8.490 -0.0498  0.0777 -0.0890
 6322W        W 6322  10.202   2.914   6.952  0.0401  0.1509  0.0285
 6323W        W 6323   9.458   9.490   1.740 -0.1983 -0.0104  0.1617
 6324W        W 6324   4.405   5.030   1.932 -0.0951 -0.1157 -0.2286
 6325W        W 6325   1.593   9.161   3.942  0.0621  0.0612 -0.0460
 6326W        W 6326   1.127   3.267   2.344 -0.0680  0.1821  0.0071
 6327W        W 6327   6.902   8.178  10.276 -0.0430  0.1006 -0.0093
 6328W        W 6328   6.311   0.287   7.534 -0.2108 -0.0810 -0.3297
 6329W        W 6329   5.775   2.636   4.206  0.0111  0.1343  0.1510
 6330W        W 6330   0.818   3.723   0.456 -0.1350 -0.0906  0.0733
 6331W        W 6331   9.044   1.491   7.513  0.1045 -0.0333 -0.1063
 6332W        W 6332   8.125   7.914   3.714 -0.3539 -0.1003 -0.1801
 6333W        W 6333   3.982   2.361   9.245 -0.1289  0.0125  0.1068
 6334W        W 6334   2.210   0.666   2.708  0.2472  0.2064  0.1292
 6335W        W 6335   1.142  10.085   2.359  0.1212  0.0753 -0.0075
 6336W        W 6336   2.299   0.292   4.856  0.3252  0.0535 -0.0739
 6337W        W 6337   6.281   4.022   3.704 -0.0644  0.0941 -0.0675
 6338W        W 6338   9.323   9.109   6.488  0.3325  0.3144 -0.1177
 6339W        W 6339   4.187   4.011   0.657 -0.0259 -0.3035  0.0378
 6340W        W 6340   9.632   9.474   9.419  0.1392 -0.1971 -0.1298
 6341W        W 6341   0.757   6.057   3.715  0.2193 -0.1432 -0.0808
 6342W        W 6342   4.186   9.507   1.559 -0.0798  0.0282  0.1344
 6343W        W 6343   1.525   0.751   7.039 -0.1071  0.2263 -0.1215
 6344W        W 6344   5.821   7.769   8.821 -0.1545  0.1929 -0.0379
 6345W        W 6345  10.299   8.923   7.523 -0.0496 -0.0930  0.2346
 6346W        W 6346   3.303   0.832   6.456 -0.0271  0.0221 -0.2842
 6347W        W 6347   0.497  10.259   2.102  0.0440  0.1468  0.0691
 6348W        W 6348   8.421   7.076  10.087 -0.0957 -0.2467 -0.2727
 6349W        W 6349   6.845   4.495   1.922  0.3360 -0.1452  0.1459
 6350W        W 6350   8.327   4.509   4.405  0.3191  0.2323 -0.2321
 6351W        W 6351   5.866   7.841   3.312  0.0430  0.0711 -0.1081
 6352W        W 6352   3.946   4.630  10.213  0.0866 -0.0062  0.3362
 6353W        W 6353   7.014   4.613   9.479  0.1242 -0.0700 -0.1888
 6354W        W 6354   4.987   7.517   4.333 -0.1538 -0.0224  0.0768
 6355W        W 6355   5.416   8.792   2.528 -0.2566 -0.2123 -0.1686
 6356W        W 6356   7.297   0.040   2.857 -0.0946 -0.1381 -0.0245
 6357W        W 6357   3.343   9.505   3.448 -0.3452 -0.2803 -0.0674
 6358W        W 6358   5.291   2.567   4.109  0.1178  0.0005  0.1625
 6359W        W 6359   0.859   9.508   9.821 -0.2020 -0.2668 -0.1177
 6360W        W 6360   4.494   9.933   1.323 -0.1145  0.0876  0.3030
 6361W        W 6361   7.503   6.846   5.516 -0.0819  0.1740  0.2333
 6362W        W 6362   5.426   1.363   3.515 -0.1994  0.3399 -0.2065
 6363W        W 6363   2.557   0.346   2.532  0.0797  0.2262 -0.0441
 6364W        W 6364  10.340   8.752   0.209  0.2442  0.2433  0.0228
 6365W        W 6365   7.111   5.237   5.337 -0.1818 -0.1286  0.2546
 6366W        W 6366   7.789   8.563  10.139  0.0169  0.1752 -0.1990
 6367W        W 6367   6.277   5.880   8.042 -0.0175 -0.0669  0.0969
 6368W        W 6368   6.019   7.344   5.720  0.2021 -0.0669  0.0875
 6369W        W 6369   5.721   0.954   6.821 -0.1554  0.2047 -0.0708
 6370W        W 6370   9.803   6.860   2.404  0.1143 -0.1486  0.0514
 6371W        W 6371   7.017   2.597   6.508 -0.0299  0.1064  0.0116
 6372W        W 6372   6.409   6.454   9.824 -0.0474 -0.2179  0.1329
 6373W        W 6373   9.953   3.399   9.537  0.1652  0.0828  0.1833
 6374W        W 6374   3.748   5.079   9.220  0.2342  0.0233 -0.0630
 6375W        W 6375   8.803   7.141   0.839  0.0050  0.0367 -0.2610
 6376W        W 6376   5.636   0.038   0.863  0.1740 -0.0257 -0.0572
 6377W        W 6377   1.410   6.410   3.893  0.0157  0.0779 -0.0993
 6378W        W 6378   6.720   6.791   5.154  0.0722 -0.0392 -0.0009
 6379W        W 6379   5.018   2.122   1.606  0.2441  0.1877  0.0970
 6380W        W 6380   6.396   7.978   0.929 -0.0115 -0.0038 -0.0679
 6381W        W 6381   1.335   3.029   0.144  0.2943  0.1137  0.0497
 6382W        W 6382   8.431   0.513   0.776  0.2609 -0.0595 -0.1222
 6383W        W 6383   3.014   0.292   5.570 -0.1041 -0.1484  0.4330
 6384W        W 6384   4.418   4.759   6.464  0.1105  0.1868 -0.1243
 6385W        W 6385   1.737   4.099   9.260  0.0127  0.2672 -0.0588
 6386W        W 6386   4.667   1.899   5.458  0.1249  0.1588  0.0852
 6387W        W 6387   2.934   3.026   6.224 -0.0495  0.0620  0.2518
 6388W        W 6388   8.322   8.548   7.938  0.0474 -0.0122  0.1588
 6389W        W 6389   2.433   7.975   5.077  0.4109 -0.1545  0.1860
 6390W        W 6390   8.891   1.175   4.741  0.1063  0.1360  0.0918
 6391W        W 6391   1.640   8.998   0.915  0.0633  0.1646  0.3339
 6392W        W 6392   4.013   0.207   2.896  0.0443 -0.0941 -0.1374
 6393W        W 6393   6.759   9.050   6.857  0.1435  0.0794  0.1520
 6394W        W 6394   2.688   5.018   0.905  0.0505  0.2435 -0.0391
 6395W        W 6395   9.402   2.963   8.274  0.2402 -0.0126 -0.0122
 6396W        W 6396   6.436   2.984   9.434 -0.1237  0.0529 -0.0021
 6397W        W 6397   0.730   7.284   6.703 -0.0491  0.2891  0.1238
 6398W        W 6398   2.994   7.815   7.171  0.2128 -0.1276 -0.0719
 6399W        W 6399   6.825   4.029   5.867 -0.0043 -0.3100  0.0637
 6400W        W 6400   6.804   0.219   7.441  0.0834 -0.0799  0.3455
 6401W        W 6401   5.040   7.927   5.137 -0.0218  0.4157  0.3877
 6402W        W 6402   7.181   4.854   9.017 -0.2125 -0.1684 -0.2560
 6403W        W 6403   5.354   8.067   5.465  0.1554  0.1763  0.4078
 6404W        W 6404   8.535   5.865   6.097  0.0139 -0.1423 -0.3379
 6405W        W 6405   0.238  10.344   9.042  0.0076  0.0998 -0.0096
 6406W        W 6406   5.267   4.120   5.059 -0.1308 -0.0095 -0.1127
 6407W        W 6407   0.225   5.198   6.228  0.2916  0.1625  0.2149
 6408W        W 6408   3.492   0.746   7.287  0.1678 -0.0147  0.0135
 6409W        W 6409   6.998   9.097   0.231 -0.0374 -0.1316  0.1418
 6410W        W 6410   1.435   8.488   4.509 -0.4697 -0.1533  0.0379
 6411W        W 6411   1.510   1.899   4.298  0.0073  0.0828 -0.5069
 6412W        W 6412   5.496   5.442   9.865  0.3612 -0.0133 -0.1239
 6413W        W 6413   8.598   9.162  10.056 -0.3027 -0.2046  0.0186
 6414W        W 6414   6.098   5.436   6.584  0.0922 -0.2689 -0.1643
 6415W        W 6415   2.650   3.400   8.573  0.1465 -0.0562 -0.0907
 6416W        W 6416   4.651   3.074   0.909 -0.2446 -0.1571  0.1528
 6417W        W 6417   6.278   6.760   7.913 -0.0731  0.6551 -0.0949
 6418W        W 6418   0.091   3.317   9.664  0.2055  0.0786  0.1029
 6419W        W 6419   8.895   0.308   3.974 -0.1383  0.0241 -0.1197
 6420W        W 6420   5.149   9.722   1.486  0.2565  0.0262 -0.0283
 6421W        W 6421   1.752   9.590   9.649  0.2125  0.0386  0.0926
 6422W        W 6422   8.501   1.277   1.194  0.0489 -0.0328  0.0090
 6423W        W 6423   6.466   7.921   3.363  0.1322  0.2853  0.2247
 6424W        W 6424   8.198   1.091   8.543 -0.2509 -0.0074 -0.1081
 6425W        W 6425   5.782   8.507   7.622  0.1041 -0.0746  0.0370
 6426W        W 6426  10.008   5.023   8.411 -0.1228 -0.3075 -0.3497
 6427W        W 6427   7.685   5.461   2.636  0.0373  0.3911 -0.2019
 6428W        W 6428   1.669   9.627   2.058  0.0714 -0.3152 -0.1198
 6429W        W 6429   6.239   0.009   0.758 -0.0279  0.1296 -0.1237
 6430W        W 6430   2.498   9.794   4.777  0.1474 -0.3725  0.0682
 6431W        W 6431   3.721   4.767   6.225  0.1280  0.2407  0.1304
 6432W        W 6432   1.077   4.860   7.905  0.1234  0.0632 -0.0199
 6433W        W 6433   5.458   0.102   3.333  0.2268  0.0056 -0.0905
 6434W        W 6434   3.395   1.370   6.529  0.1407  0.2930  0.0421
 6435W        W 6435   5.624   9.322   0.041  0.0507  0.0573  0.0384
 6436W        W 6436   0.290   9.963   4.082  0.0889 -0.0236 -0.2228
 6437W        W 6437   6.461   3.769   4.532  0.0381 -0.0031 -0.3795
 6438W        W 6438   2.808   6.843   5.643  0.1670 -0.0679 -0.4660
 6439W        W 6439   8.059   4.362   3.544  0.2070  0.0615 -0.0416
 6440W        W 6440   2.825   1.063   2.108  0.0199  0.1307 -0.2008
 6441W        W 6441   4.418   0.996   8.703  0.1379  0.2873 -0.2559
 6442W        W 6442   0.233   7.689   9.587 -0.1036  0.0409  0.2204
 6443W        W 6443   7.491   0.947   9.199  0.1548  0.1089 -0.1616
 6444W        W 6444   4.279   4.286   4.882  0.0831 -0.0163 -0.2313
 6445W        W 6445   4.987   3.919   7.744 -0.1176  0.0039 -0.4242
 6446W        W 6446   4.679   5.841   9.999  0.0786 -0.1286 -0.2710
 6447W        W 6447  10.204   6.247   5.825 -0.1032  0.1272  0.1173
 6448W        W 6448   9.621   4.572   6.458 -0.3025 -0.0928  0.2654
 6449W        W 6449   5.222   5.492   5.695  0.0977  0.0689  0.4166
 6450W        W 6450   5.632   1.720   9.770  0.0002  0.0735  0.2795
 6451W        W 6451   8.893   3.707   7.202 -0.0001 -0.0612  0.1776
 6452W        W 6452   1.072   5.740   1.790 -0.1519 -0.0717  0.3929
 6453W        W 6453   7.748   8.604   0.399  0.1298 -0.1397  0.1105
 6454W        W 6454   5.783   0.308   7.531 -0.2201  0.1477 -0.2928
 6455W        W 6455   7.064   6.114   5.545  0.0788  0.1491 -0.1272
 6456W        W 6456   3.300   5.059   6.032 -0.1019 -0.2267 -0.2971
 6457W        W 6457   8.953   4.895   9.140  0.0869 -0.2435 -0.1113
 6458W        W 6458   4.843   3.668   9.734  0.1261  0.0429 -0.0515
 6459W        W 6459   8.156   3.861   4.894 -0.2735 -0.0620  0.2122
 6460W        W 6460   6.765   3.638   9.439 -0.2514  0.1558 -0.2303
 6461W        W 6461   5.029   9.442   3.981 -0.2158  0.1504 -0.1072
 6462W        W 6462   8.058   3.656  10.350 -0.0848  0.1700  0.2559
 6463W        W 6463   9.494   2.303   3.926 -0.3233  0.1680  0.1938
 6464W        W 6464   7.671  10.030   2.939  0.1051 -0.2507  0.1028
 6465W        W 6465   3.347   1.644   4.493  0.0531  0.2458  0.2817
 6466W        W 6466   4.094   3.311   3.405  0.0164  0.0770 -0.1524
 6467W        W 6467   3.368   4.682  10.095 -0.0180  0.0872  0.0505
 6468W        W 6468   7.495   3.779   5.346  0.2551 -0.0301 -0.0407
 6469W        W 6469   0.033   1.448   2.277 -0.2381 -0.1481 -0.3138
 6470W        W 6470   5.260   5.960   2.668  0.0031 -0.0442  0.1269
 6471W        W 6471   5.832   8.138   9.707 -0.0088  0.2032  0.1064
 6472W        W 6472   8.936   6.855   9.090 -0.0900  0.1675  0.1260
 6473W        W 6473   0.213   9.087   9.622 -0.2370  0.1189  0.0653
 6474W        W 6474   2.323   8.271   4.212  0.1530  0.3331  0.1354
 6475W        W 6475   1.767  10.146   2.398 -0.0727 -0.1457  0.0754
 6476W        W 6476   3.802   6.224   8.452 -0.4158  0.0714 -0.1248
 6477W        W 6477   3.007   9.699   1.781 -0.1694  0.3289  0.2170
 6478W        W 6478   7.918   0.467   2.489 -0.1049  0.1064 -0.1422
 6479W        W 6479   1.843   4.980   0.976  0.1227 -0.2364 -0.2387
 6480W        W 6480   3.574   5.757   7.550  0.0288 -0.0622 -0.0628
 6481W        W 6481   0.125   0.791   1.943  0.1284  0.1042  0.0164
 6482W        W 6482   8.650   4.746   4.134 -0.2268  0.2635  0.3223
 6483W        W 6483   8.228   5.515   3.147  0.1593 -0.0863 -0.1867
 6484W        W 6484   8.977   6.207   6.250 -0.0044 -0.0866 -0.0092
 6485W        W 6485   1.995   7.866   4.023 -0.0418 -0.1918  0.0508
 6486W        W 6486   1.111   5.629   8.899 -0.0706 -0.0893  0.1479
 6487W        W 6487   1.676   4.597   6.725 -0.0769 -0.2109 -0.1378
 6488W        W 6488   7.586   3.479   2.383 -0.1951 -0.0732 -0.2156
 6489W        W 6489   0.743   9.627   4.246 -0.0946 -0.0870  0.0574
 6490W        W 6490   3.744   3.813   2.459 -0.3907  0.0397  0.1235
 6491W        W 6491   4.344   4.702   9.807 -0.1778  0.0536  0.2036
 6492W        W 6492   4.886   3.177   5.991 -0.1128  0.1270  0.1562
 6493W        W 6493   1.693   9.150   6.839  0.2241 -0.1847  0.0348
 6494W        W 6494   6.845   3.204   9.741  0.0415 -0.1847  0.2157
 6495W        W 6495   5.478   2.696   2.139  0.0406 -0.2729 -0.0055
 6496W        W 6496   3.814   4.402   0.828  0.1374 -0.0779  0.1919
 6497W        W 6497   8.802   7.707   7.939 -0.4528 -0.0405 -0.1499
 6498W        W 6498   7.024   8.994   5.752 -0.1286  0.1157  0.2407
 6499W        W 6499   8.317   9.656   6.638  0.0523  0.1837  0.1181
 6500W        W 6500   5.170   0.059   5.878 -0.2072  0.1069  0.0459
 6501W        W 6501   2.251   4.399   7.933 -0.1338 -0.1837 -0.2120
 6502W        W 6502  10.116   5.044   4.431  0.0210  0.0272  0.3767
 6503W        W 6503   9.493   8.059   4.397  0.5829 -0.1754 -0.0588
 6504W        W 6504   4.548   9.655   9.699 -0.1396  0.2304  0.2067
 6505W        W 6505   8.366   3.735   2.419  0.0598  0.0941 -0.1745
 6506W        W 6506   7.281   6.569   4.605  0.2427  0.0809  0.0618
 6507W        W 6507   9.506   4.863   6.081 -0.0703 -0.2263 -0.2617
 6508W        W 6508   9.745   2.840  10.097 -0.0901 -0.1676  0.3549
 6509W        W 6509   6.140   3.755  10.083 -0.2736  0.0393  0.2003
 6510W        W 6510   9.718   2.174   3.390 -0.2603 -0.0181  0.0982
 6511W        W 6511   5.226   2.042   6.761 -0.0969  0.0122 -0.0484
 6512W        W 6512   4.945   6.450   3.843  0.0985  0.0061 -0.0195
 6513W        W 6513   0.479   2.733   4.302 -0.1388  0.3834  0.0066
 6514W        W 6514   7.066   6.622   5.544  0.1280 -0.0717  0.2011
 6515W        W 6515   8.458   8.874   7.083  0.1764  0.2430  0.0587
 6516W        W 6516   7.307   6.358   5.928  0.0940  0.0078 -0.0022
 6517W        W 6517   3.842   0.682   8.664  0.1779 -0.0801  0.0601
 6518W        W 6518   4.391   9.403   6.071  0.1765  0.1185 -0.1306
 6519W        W 6519   6.379   3.157   1.038  0.1071 -0.2640  0.0875
 6520W        W 6520   9.400   9.789   5.152 -0.0546 -0.3134 -0.0321
 6521W        W 6521   4.024   4.970   7.195 -0.3149  0.1484 -0.1313
 6522W        W 6522   7.762   0.954   2.211  0.1124  0.4086  0.1438
 6523W        W 6523   1.246   3.351   5.666  0.2119  0.4646  0.2624
 6524W        W 6524   6.098   2.599   2.811  0.2368 -0.0892  0.1131
 6525W        W 6525   1.303   9.251   5.139  0.0972 -0.1657 -0.0430
 6526W        W 6526   4.625   4.606   1.845  0.3444  0.0213  0.3547
 6527W        W 6527   7.019   0.764   6.125 -0.4498 -0.0803  0.1747
 6528W        W 6528   4.746   4.991   9.099 -0.4445  0.1121  0.1629
 6529W        W 6529   4.194   3.836   3.405 -0.0037 -0.1475 -0.1898
 6530W        W 6530   2.675   6.340   1.440 -0.0276  0.1009  0.0845
 6531W        W 6531   2.820   7.976   2.520  0.0871  0.0867 -0.1689
 6532W        W 6532   8.512   7.677   4.589 -0.3385  0.1079  0.2082
 6533W        W 6533  10.344   1.801  10.160 -0.0189 -0.0673 -0.0699
 6534W        W 6534   0.727   1.628   8.254  0.1557 -0.0463  0.1320
 6535W        W 6535   1.141   8.910   2.250 -0.0383  0.0874  0.0644
 6536W        W 6536   6.734   3.892   8.030  0.0520  0.0281  0.0895
 6537W        W 6537   9.943   1.618   1.960 -0.0900  0.1812  0.2362
 6538W        W 6538   5.147   7.334  10.237 -0.3526  0.3043  0.2328
 6539W        W 6539   1.930   4.938   2.442 -0.2090  0.1943 -0.0276
 6540W        W 6540   4.472   5.915   6.390  0.1083  0.0787  0.2621
 6541W        W 6541   6.506   1.099   8.297 -0.2095 -0.0762 -0.2873
 6542W        W 6542   1.964   0.869   4.625  0.0137 -0.0232 -0.0982
 6543W        W 6543   3.138   5.072   1.059  0.0607  0.1014  0.0769
 6544W        W 6544  10.147   8.119   8.893 -0.0611  0.2051  0.2482
 6545W        W 6545   9.053   9.295   1.885 -0.0825  0.3235 -0.4290
 6546W        W 6546   8.105   8.458   6.296  0.3613 -0.1470  0.0989
 6547W        W 6547  10.132   4.879   1.915  0.0416  0.0873  0.0181
 6548W        W 6548   0.565   1.070   2.947  0.2925  0.0964  0.2964
 6549W        W 6549   8.462   2.048   6.638  0.1576  0.0173 -0.0798
 6550W        W 6550   4.789   8.256   2.852 -0.0682 -0.0027  0.0748
 6551W        W 6551   2.305   7.051   6.923  0.0310  0.2489 -0.1292
 6552W        W 6552   4.047   7.632   0.961  0.1818  0.0673  0.1589
 6553W        W 6553   8.593   2.179   1.013  0.1944  0.1380 -0.1172
 6554W        W 6554   1.928   8.700   0.666 -0.1998  0.3257 -0.1131
 6555W        W 6555   0.755   1.428   5.576 -0.0639  0.0999  0.0496
 6556W        W 6556   1.538   7.998   4.193 -0.1450  0.1977 -0.0737
 6557W        W 6557   2.014   1.650   8.546  0.0410  0.3878 -0.2353
 6558W        W 6558   2.915   8.633   7.576 -0.0711 -0.0565 -0.2748
 6559W        W 6559   5.887   1.291   9.810 -0.0185  0.0362 -0.1717
 6560W        W 6560   4.948   0.778   2.960 -0.0142 -0.1733  0.3285
 6561W        W 6561  10.232   3.745   0.142 -0.1052  0.0973 -0.1455
 6562W        W 6562   3.634   7.043   6.638  0.1723 -0.1897  0.2265
 6563W        W 6563   4.895   8.606   0.131  0.2848  0.0649 -0.2047
 6564W        W 6564   3.208   6.064   0.112 -0.0058  0.1039  0.0876
 6565W        W 6565   7.617   4.907   5.162 -0.2523  0.0540 -0.0902
 6566W        W 6566   6.112   4.158   4.230  0.1768 -0.2412  0.1360
 6567W        W 6567   4.987   7.923   9.967  0.2141  0.0644  0.2480
 6568W        W 6568   5.260   1.216   0.412  0.1722  0.0352  0.1669
 6569W        W 6569   8.185   5.434   2.608  0.2436  0.0621  0.0535
 6570W        W 6570   2.833   3.993   1.836 -0.1909 -0.2574 -0.1468
 6571W        W 6571   8.156   6.814   1.383  0.1246  0.2858 -0.0272
 6572W        W 6572   4.827   5.029   7.882  0.1852 -0.0970  0.1915
 6573W        W 6573   7.764   5.579   7.005 -0.0805 -0.0336  0.2917
 6574W        W 6574   2.142   8.562   5.831  0.0454 -0.0137 -0.0574
 6575W        W 6575   0.839   3.777   1.613  0.3177  0.2663 -0.2532
 6576W        W 6576   9.864   2.883   8.655  0.0416  0.0001  0.0372
 6577W        W 6577   3.150   8.417   2.446 -0.1112  0.0898 -0.0870
 6578W        W 6578   6.535   6.939   0.890  0.1749  0.0483 -0.0576
 6579W        W 6579   4.511   6.478   2.192  0.1102 -0.0889 -0.2058
 6580W        W 6580   0.395   2.963   2.926 -0.1900 -0.0877 -0.0321
 6581W        W 6581   7.648   5.292   3.258 -0.1489 -0.2773 -0.0710
 6582W        W 6582   3.185   1.384   1.916  0.2057  0.1779 -0.2934
 6583W        W 6583   1.836   4.847   5.738 -0.0734 -0.0594  0.1111
 6584W        W 6584   2.659   3.736   2.735  0.0234 -0.1695  0.0028
 6585W        W 6585   0.809   2.654   3.430  0.0331  0.3424  0.1559
 6586W        W 6586   7.522   4.562   8.765  0.0613 -0.4434 -0.3113
 6587W        W 6587   2.593   4.235   9.920  0.1479  0.2539 -0.3846
 6588W        W 6588   7.983   3.400   9.864  0.0405 -0.3181 -0.1243
 6589W        W 6589   8.796   8.918   6.619 -0.1316 -0.0063  0.0683
 6590W        W 6590   8.791   9.606   4.396  0.1790  0.1167  0.1242
 6591W        W 6591   7.810   3.754   5.828  0.1302  0.0875  0.0247
 6592W        W 6592   7.912   2.007   5.661 -0.0748 -0.2256 -0.5816
 6593W        W 6593   8.146   5.873   9.827  0.0263  0.0047 -0.0822
 6594W        W 6594   6.004   7.712   4.980 -0.1131  0.1377 -0.0934
 6595W        W 6595   2.705   4.185   4.088 -0.3786  0.0419 -0.2315
 6596W        W 6596   0.171   7.796   9.056  0.0849 -0.3779 -0.1043
 6597W        W 6597   6.067   0.473   4.131 -0.0368  0.3457  0.1755
 6598W        W 6598   0.120   5.746   2.133  0.2728 -0.1074 -0.0586
 6599W        W 6599   9.834   5.617  10.179  0.3096  0.2214 -0.0610
 6600W        W 6600   4.579   0.621   0.890  0.2540 -0.0742  0.1993
 6601W        W 6601   5.684   4.482   4.875 -0.0285 -0.2842 -0.1523
 6602W        W 6602   7.081   5.578   7.805 -0.0994 -0.3874 -0.1440
 6603W        W 6603   1.472   8.964   4.434  0.4692  0.0141 -0.1068
 6604W        W 6604   7.876  10.142   0.940  0.1113  0.0864  0.0298
 6605W        W 6605   9.835   3.388  10.165 -0.0345 -0.2110 -0.2059
 6606W        W 6606   5.677   3.770   6.571  0.0543  0.2629  0.0965
 6607W        W 6607   1.184   1.860   7.190 -0.3362  0.0626  0.1189
 6608W        W 6608   7.952   1.347   1.426 -0.0380  0.0407  0.1511
 6609W        W 6609  10.301   0.768   4.198  0.0884  0.0522 -0.0495
 6610W        W 6610   3.981   6.631   0.897  0.0827  0.1816  0.1093
 6611W        W 6611   2.154  10.051   2.714 -0.0968  0.1286 -0.2252
 6612W        W 6612   1.590   8.890   0.316 -0.2546 -0.0757 -0.1344
 6613W        W 6613   2.878   2.011   9.802  0.0283  0.0228  0.0486
 6614W        W 6614   0.363   0.610   8.571  0.3857  0.1457  0.1331
 6615W        W 6615   0.706   8.887   3.475 -0.0017 -0.0540  0.0951
 6616W        W 6616   3.310   1.840   1.821  0.0947  0.1190  0.1450
 6617W        W 6617   2.112   2.096   3.548 -0.2663  0.0678 -0.1418
 6618W        W 6618   8.912   9.840   2.937 -0.1370 -0.2098  0.0038
 6619W        W 6619   6.932   4.555   3.335  0.3608  0.1970  0.2351
 6620W        W 6620   3.667   6.560   7.665 -0.0032  0.1294  0.0638
 6621W        W 6621   1.959   5.433   9.400  0.1572 -0.2965 -0.3651
 6622W        W 6622   5.852   6.112   0.190  0.2364 -0.0177 -0.1104
 6623W        W 6623   2.372   2.449   7.693  0.2394 -0.2775  0.0403
 6624W        W 6624   0.518   6.473   0.252  0.0885  0.0366 -0.4515
 6625W        W 6625   8.963   0.849   7.077  0.0506  0.2192 -0.1307
 6626W        W 6626   8.223   9.679   1.646  0.1505  0.1855 -0.0159
 6627W        W 6627   0.847   8.353   3.303  0.1350  0.1616  0.1707
 6628W        W 6628   3.575   1.237   4.646  0.4226 -0.1046 -0.1272
 6629W        W 6629   3.867   0.511   4.360 -0.2071  0.2951  0.0826
 6630W        W 6630   2.591   4.053   1.399  0.2193 -0.3009  0.0220
 6631W        W 6631  10.042   4.788   7.799  0.0122  0.2549 -0.0822
 6632W        W 6632   4.683  10.243   4.254  0.0232 -0.0737 -0.0490
 6633W        W 6633   3.285   2.705   4.488 -0.1653 -0.1044 -0.2409
 6634W        W 6634   5.518   9.623   3.896  0.0254  0.3100 -0.0237
 6635W        W 6635   7.377   2.054   8.552 -0.2464 -0.1215  0.0760
 6636W        W 6636   6.277   1.657   7.187 -0.0651 -0.2547 -0.3925
 6637W        W 6637   1.971  10.174   8.016 -0.1321 -0.0727  0.2267
 6638W        W 6638   9.310   1.096   8.553 -0.2095  0.2701  0.2973
 6639W        W 6639   4.973   8.020   9.147  0.0162  0.2389 -0.0024
 6640W        W 6640   4.064   5.893   9.274  0.1068 -0.1700  0.0264
 6641W        W 6641  10.330   4.157   4.757 -0.0368  0.4715  0.4851
 6642W        W 6642   0.500   0.003   3.844 -0.2088 -0.3615  0.3480
 6643W        W 6643   0.905   6.222   7.560 -0.0879 -0.2908 -0.0887
 6644W        W 6644   5.131   4.111   6.492  0.1772 -0.1887 -0.0380
 6645W        W 6645   8.799   5.227   6.383 -0.2836  0.2505  0.3884
 6646W        W 6646   1.077   8.783   5.248 -0.0715  0.3608  0.0500
 6647W        W 6647   3.988   7.999   9.526  0.0593 -0.1596  0.0450
 6648W        W 6648   4.647   8.908   5.986  0.0185  0.2128  0.5903
 6649W        W 6649   9.254   1.800   3.758 -0.2382 -0.2112 -0.2908
 6650W        W 6650   0.955   0.411   5.489  0.0041 -0.1261  0.3550
 6651W        W 6651   4.010   2.376   9.842 -0.2366  0.1494 -0.0617
 6652W        W 6652   5.872   8.390   3.087 -0.1570  0.1774  0.1805
 6653W        W 6653   8.234   9.460   9.769 -0.2726 -0.2266  0.0232
 6654W        W 6654   3.688   9.191   3.922  0.1247  0.0964  0.0650
 6655W        W 6655   3.279   5.306   0.052  0.0171 -0.0958 -0.1708
 6656W        W 6656   9.663   4.208   5.566 -0.0625 -0.0367  0.0354
 6657W        W 6657   9.223   9.331   7.386 -0.1451  0.2303 -0.1508
 6658W        W 6658   6.907   1.621   8.629  0.0077  0.0834 -0.0696
 6659W        W 6659   7.357   7.900   6.657 -0.3376  0.2642 -0.1175
 6660W        W 6660   1.645   2.644   8.531 -0.2728 -0.1414 -0.1459
 6661W        W 6661   1.047   3.217   9.546  0.0602  0.2275  0.0012
 6662W        W 6662   5.383   1.741   3.904  0.2023  0.2409  0.0706
 6663W        W 6663   1.871   2.057   2.451 -0.3132 -0.2290  0.0629
 6664W        W 6664   9.675   7.168   1.467  0.0863  0.2612 -0.0716
 6665W        W 6665   9.764   7.855   2.387 -0.1926  0.0223 -0.4775
 6666W        W 6666   1.205   2.831   4.845  0.1509  0.1358  0.2736
 6667W        W 6667  10.140   6.543   0.615 -0.3466  0.0792  0.0863
 6668W        W 6668   9.293   1.630   5.511 -0.1676 -0.1458  0.1280
 6669W        W 6669   9.603   3.639   4.835  0.0951  0.2279  0.1609
 6670W        W 6670   5.639   4.655   1.529 -0.4285 -0.1630  0.0735
 6671W        W 6671   8.081   7.053   8.635 -0.0087  0.1773  0.2105
 6672W        W 6672   3.372   2.083   4.872 -0.0880 -0.2941 -0.0348
 6673W        W 6673   0.438   9.049   9.174 -0.0781 -0.0918  0.2486
 6674W        W 6674   1.294   4.543   5.460  0.0804 -0.0111 -0.2846
 6675W        W 6675   9.199   3.999   8.827 -0.0250 -0.3080  0.0518
 6676W        W 6676   4.584   7.949   2.025 -0.2715  0.4315 -0.2840
 6677W        W 6677   0.517   4.063   0.166 -0.0334 -0.0446 -0.2673
 6678W        W 6678   0.336   1.277   6.648  0.1751  0.2617 -0.2024
 6679W        W 6679   3.914   9.430   5.449 -0.0055 -0.1664 -0.0386
 6680W        W 6680   6.252   5.849   2.780  0.0559 -0.0291 -0.1427
 6681W        W 6681   3.787   6.754   9.394 -0.0344  0.1025  0.1820
 6682W        W 6682   3.928   0.197   3.974  0.0990 -0.2283  0.1596
 6683W        W 6683  10.237   2.578   9.026 -0.1774 -0.2885 -0.2596
 6684W        W 6684   7.553   6.688   6.821 -0.1126 -0.0962  0.2037
 6685W        W 6685   4.166   7.118   9.219 -0.1186  0.2235 -0.3230
 6686W        W 6686   3.345   9.873   8.088 -0.0487  0.1020  0.2423
 6687W        W 6687   1.224   8.705   7.694  0.1364 -0.1662 -0.0080
 6688W        W 6688   1.355   3.088   8.639 -0.0028 -0.0957  0.0686
 6689W        W 6689   0.465   3.902   9.000 -0.1467  0.2606 -0.1575
 6690W        W 6690   4.434   0.205   3.186  0.0055 -0.1606  0.1435
 6691W        W 6691   4.283   7.079   5.303  0.3103 -0.2490 -0.4554
 6692W        W 6692   7.126   1.772   3.814  0.0989  0.1720  0.0118
 6693W        W 6693   0.933   1.815   8.882 -0.4279  0.1209 -0.1843
 6694W        W 6694   0.749   2.920   6.625  0.0353  0.0514  0.0132
 6695W        W 6695   0.242   9.076   7.157 -0.1661  0.1295 -0.0065
 6696W        W 6696   0.668   8.553   0.371  0.4446  0.0812  0.1263
 6697W        W 6697   0.598   7.082   8.473 -0.0362  0.0658  0.2459
 6698W        W 6698   0.884   8.620  10.161 -0.1234  0.0814 -0.1540
 6699W        W 6699   8.811   4.904   8.235  0.4185  0.1081  0.3802
 6700W        W 6700   8.563  10.172   2.467  0.2063 -0.2655 -0.2744
 6701W        W 6701   1.959   5.277   8.235 -0.2596 -0.1610  0.0099
 6702W        W 6702   0.711   2.364   6.572 -0.0866 -0.1854  0.0824
 6703W        W 6703   1.462   5.037  10.143 -0.2128 -0.0223  0.1269
 6704W        W 6704   8.478   9.410   6.161 -0.1848  0.2577 -0.0778
 6705W        W 6705   4.764   4.569   0.843 -0.0087  0.3503  0.2772
 6706W        W 6706   2.285   2.410   0.717  0.0477  0.3498 -0.6229
 6707W        W 6707   4.574   8.826   3.746 -0.0290 -0.0512  0.1450
 6708W        W 6708   7.429   1.427   9.970  0.1739  0.0445 -0.0008
 6709W        W 6709   0.161   7.494  10.029 -0.1314 -0.0052 -0.0661
 6710W        W 6710   8.039   1.761   1.899  0.0663  0.0296 -0.1622
 6711W        W 6711   6.901   7.555   3.071 -0.1723 -0.0703  0.0517
 6712W        W 6712   3.189   3.980   8.306 -0.2116  0.0844 -0.1247
 6713W        W 6713   9.320   4.185  10.102  0.4802 -0.0968 -0.1135
 6714W        W 6714   9.035   6.583   7.446 -0.1488 -0.0792 -0.1143
 6715W        W 6715   6.409   7.260   5.446 -0.1012 -0.2938 -0.3453
 6716W        W 6716   9.734   1.091   1.131 -0.0022  0.1561  0.3073
 6717W        W 6717   2.374   0.133   9.882  0.1371 -0.2857 -0.2246
 6718W        W 6718   4.605   7.641   7.684  0.2740  0.2015  0.1082
 6719W        W 6719   1.442   2.297   5.780 -0.3455  0.1008 -0.0714
 6720W        W 6720   8.083   7.833   0.619 -0.0055  0.2237 -0.3057
 6721W        W 6721   9.137   1.141   9.169  0.1057 -0.0725 -0.0876
 6722W        W 6722   9.669   9.056   5.730  0.3290 -0.0291  0.1900
 6723W        W 6723   1.787   4.590   1.427  0.1557  0.1803 -0.1043
 6724W        W 6724   1.328  10.107   3.777 -0.0523  0.1547 -0.0325
 6725W        W 6725   8.153   4.170   6.665 -0.1306  0.2925  0.1275
 6726W        W 6726   5.591   2.562   8.936 -0.0717  0.2106 -0.0998
 6727W        W 6727   3.773   6.072   7.939 -0.0356  0.1130  0.0422
 6728W        W 6728   7.484   4.401   5.345 -0.2162  0.1681 -0.1012
 6729W        W 6729  10.192   8.405  10.191  0.2596  0.0093 -0.1097
 6730W        W 6730   3.316   7.973   4.812  0.1119  0.2711  0.3692
 6731W        W 6731   1.490   5.528   9.678  0.0297  0.0305  0.0429
 6732W        W 6732   3.868   9.983   0.456 -0.0728 -0.0629  0.0927
 6733W        W 6733   2.759   5.037   5.329  0.1645  0.2625 -0.1155
 6734W        W 6734   6.321   4.561   0.811 -0.1547 -0.2297  0.1145
 6735W        W 6735   2.177   2.995   8.459 -0.2334  0.2166 -0.0182
 6736W        W 6736   9.627   4.297   7.054  0.0776  0.0452 -0.1778
 6737W        W 6737   8.569   4.004   9.432  0.0774 -0.0610  0.2188
 6738W        W 6738   0.432   1.156   2.069  0.0611 -0.1702  0.0202
 6739W        W 6739   5.579   7.059   0.648 -0.0069 -0.1867 -0.1587
 6740W        W 6740   1.311   9.086   3.367  0.1089 -0.3041 -0.0473
 6741W        W 6741   7.598  10.344   6.965 -0.2379  0.3715  0.2368
 6742W        W 6742   3.039   7.356   9.484  0.2824 -0.0699 -0.0849
 6743W        W 6743   3.461   0.333   5.364 -0.1882  0.0892 -0.2319
 6744W        W 6744   3.773   8.907   9.194  0.0239 -0.1200  0.2467
 6745W        W 6745   1.564   5.507   5.087 -0.1942 -0.5796  0.2847
 6746W        W 6746   8.326   1.690   4.168  0.0298 -0.2256 -0.2682
 6747W        W 6747   2.103   5.833   8.977  0.4884 -0.1016  0.2129
 6748W        W 6748   4.479   8.868   5.255  0.0365  0.0222  0.2092
 6749W        W 6749   4.178   0.165   0.695  0.1784  0.2172 -0.3108
 6750W        W 6750   1.538   7.016   7.123 -0.1489 -0.1052  0.2347
 6751W        W 6751   7.291   9.922   1.241 -0.0380 -0.1220 -0.1223
 6752W        W 6752   4.261   0.034   1.179 -0.1434  0.4073 -0.0924
 6753W        W 6753   0.457   0.727   6.565 -0.1215  0.2820 -0.0954
 6754W        W 6754   4.766   9.536   2.405 -0.2983 -0.0598 -0.0915
 6755W        W 6755   5.975   3.342   5.129  0.0148 -0.0708  0.1949
 6756W        W 6756   6.273   5.031   4.760  0.2444  0.0522  0.0485
 6757W        W 6757   6.514   2.115   7.328 -0.0907  0.1550 -0.0394
 6758W        W 6758   0.830   5.550   6.806 -0.0660  0.1870 -0.1419
 6759W        W 6759   8.494   0.613   5.455 -0.0109  0.1115  0.3108
 6760W        W 6760   3.487   6.357   8.953  0.1474 -0.0327  0.1267
 6761W        W 6761   0.203   2.324   6.506  0.0128 -0.1002  0.0220
 6762W        W 6762   6.377   0.777   7.500 -0.0502 -0.2900  0.2279
 6763W        W 6763   4.039   7.285   1.533 -0.1186 -0.0604 -0.2597
 6764W        W 6764   0.896  10.282   9.840  0.1473  0.2988  0.0326
 6765W        W 6765   7.063   9.510   5.882 -0.4296 -0.1491  0.1475
 6766W        W 6766   0.518   0.913   9.654  0.1253 -0.2786 -0.4370
 6767W        W 6767   5.147   2.347   4.851  0.0409  0.0439 -0.0161
 6768W        W 6768   8.821   6.522   5.868 -0.1573 -0.0878 -0.2240
 6769W        W 6769   2.977   4.207   5.419 -0.1472 -0.1719  0.2928
 6770W        W 6770   1.610   2.450   2.659  0.1388 -0.0703  0.1592
 6771W        W 6771   8.011   0.929   2.681 -0.0427  0.1155  0.7897
 6772W        W 6772   3.856   1.101   5.761 -0.0155  0.0751  0.0879
 6773W        W 6773   6.778   3.827   8.591  0.0621  0.0598  0.2332
 6774W        W 6774   0.720   2.440   2.011 -0.0452  0.2189 -0.1220
 6775W        W 6775   6.694   5.929   8.947  0.0454  0.0509 -0.2533
 6776W        W 6776   3.370  10.192   5.525  0.1160 -0.2516 -0.1965
 6777W        W 6777   2.333   4.493   6.521 -0.0656 -0.1097 -0.3220
 6778W        W 6778   6.275   3.641   7.874 -0.1517  0.0010 -0.0624
 6779W        W 6779   4.503   2.503   8.041  0.3225  0.0339 -0.4412
 6780W        W 6780   5.196  10.050   3.214 -0.1839 -0.1453  0.1329
 6781W        W 6781   2.816   3.672   3.637 -0.3465 -0.2161 -0.1294
 6782W        W 6782   8.901   4.679   1.064 -0.0486 -0.2125  0.2803
 6783W        W 6783   8.658   0.386   5.849  0.1203  0.0401 -0.0415
 6784W        W 6784   7.033   1.944   0.806 -0.0558 -0.3426 -0.4098
 6785W        W 6785   8.714   9.888   7.373 -0.1406 -0.0140 -0.1148
 6786W        W 6786   7.988   8.804   8.818  0.1227  0.0898  0.0821
 6787W        W 6787   5.026   8.935   3.931 -0.0462 -0.1154  0.0975
 6788W        W 6788   2.934   5.365   1.433  0.0338 -0.1535 -0.0071
 6789W        W 6789  10.338   9.281   2.037  0.4041  0.0239 -0.1785
 6790W        W 6790   0.753   9.599   0.856 -0.0054  0.0328 -0.1143
 6791W        W 6791   7.556   5.743   8.909 -0.3546 -0.0301 -0.0353
 6792W        W 6792   4.964   3.825   7.185  0.1598 -0.0028 -0.0839
 6793W        W 6793   9.791   9.936   9.362 -0.1617  0.2450 -0.0156
 6794W        W 6794   6.859   3.175  10.235 -0.1284 -0.3893  0.0455
 6795W        W 6795   2.290   1.817   9.704 -0.1565 -0.0699  0.1342
 6796W        W 6796   1.914   9.739   0.818 -0.1216  0.2496  0.1617
 6797W        W 6797   9.469   6.185   9.850  0.1346  0.0099 -0.2608
 6798W        W 6798   8.095   8.753   5.082  0.4265 -0.1748 -0.1197
 6799W        W 6799   4.208   6.912   4.503 -0.2510 -0.2698  0.0510
 6800W        W 6800   4.712  10.177   2.509 -0.0428 -0.4261 -0.1315
 6801W        W 6801   5.840   7.309   5.172  0.5430  0.0115 -0.2009
 6802W        W 6802   8.276   5.481   6.980  0.0795  0.0996 -0.0944
 6803W        W 6803   0.300   0.310   1.921 -0.0756 -0.3870 -0.0036
 6804W        W 6804   8.605   0.697   6.719  0.1890 -0.2128  0.0727
 6805W        W 6805   7.643   7.243   6.180  0.0929 -0.1853 -0.1177
 6806W        W 6806   6.658   1.815   2.488  0.2071 -0.2483 -0.1016
 6807W        W 6807   5.610   0.564   5.331 -0.2602 -0.4688  0.0603
 6808W        W 6808   9.145   2.850   3.318  0.1890  0.0464 -0.1328
 6809W        W 6809   0.855   6.090   6.822  0.0071  0.3803 -0.0114
 6810W        W 6810   7.041   8.942   3.490 -0.1286  0.1122  0.1160
 6811W        W 6811   2.539   0.893   3.013 -0.1086  0.2071 -0.3707
 6812W        W 6812   3.378   3.639   2.054 -0.0135  0.0913 -0.2073
 6813W        W 6813   6.593   5.545   7.856  0.0083  0.1842 -0.2033
 6814W        W 6814   4.019   2.986   6.007 -0.4567  0.0079  0.0040
 6815W        W 6815   1.109   3.884   8.106 -0.1453  0.1441  0.1745
 6816W        W 6816   0.990   2.067   8.358  0.2083 -0.0225  0.0849
 6817W        W 6817   7.648   9.669   3.957 -0.2377  0.0478  0.4026
 6818W        W 6818   7.423   7.627   7.457 -0.0823 -0.0232 -0.3119
 6819W        W 6819   5.117   0.295   4.997  0.0277  0.1574  0.4680
 6820W        W 6820   4.439   8.979   1.583  0.2117  0.1096 -0.2377
 6821W        W 6821   6.896   0.021   5.668 -0.2729  0.2142  0.2070
 6822W        W 6822   0.022   0.275   5.344  0.0821 -0.2541  0.1664
 6823W        W 6823   9.107   2.385   4.716  0.1432  0.3320 -0.2909
 6824W        W 6824   6.747   7.989   4.414 -0.2761  0.2178  0.1066
 6825W        W 6825   3.765   3.102   2.982 -0.0886  0.0221 -0.1293
 6826W        W 6826   0.824   6.144   1.555  0.2446 -0.0418  0.3988
 6827W        W 6827   2.126   3.178   0.294  0.3884  0.0456  0.1002
 6828W        W 6828   9.683   2.628   3.509  0.1543  0.0365  0.0464
 6829W        W 6829   4.602   8.996   9.134 -0.0486 -0.0470 -0.2582
 6830W        W 6830   2.425   8.905   2.550 -0.0210  0.1340 -0.4103
 6831W        W 6831   1.383   0.905   4.463  0.1382 -0.0272  0.0065
 6832W        W 6832   5.638   9.056   4.689 -0.0423 -0.1607  0.0400
 6833W        W 6833   2.355   5.039   7.430 -0.0044 -0.0980  0.2104
 6834W        W 6834   2.044   3.681   6.513  0.1122 -0.0262  0.2864
 6835W        W 6835   1.243   2.479   1.974  0.3505  0.1390  0.0873
 6836W        W 6836   1.741   7.729   0.859 -0.1272 -0.2007  0.1822
 6837W        W 6837   5.934   3.670   0.673  0.1249  0.0073  0.1739
 6838W        W 6838   8.124   1.243   1.906 -0.1783  0.0087  0.0911
 6839W        W 6839   4.302   8.095   3.622 -0.0765 -0.5575 -0.0304
 6840W        W 6840   7.324  10.282   5.444  0.0329  0.0498 -0.0295
 6841W        W 6841   3.124   3.766   4.991 -0.0947  0.1211  0.0705
 6842W        W 6842   2.414   5.071  10.118 -0.2073 -0.2079 -0.3003
 6843W        W 6843   7.685   6.588   3.888 -0.3118  0.0610  0.2212
 6844W        W 6844   2.343   2.601   5.447  0.0281 -0.1411 -0.2475
 6845W        W 6845   0.869   0.760   4.545  0.0773  0.2532 -0.1497
 6846W        W 6846   5.478   1.854   7.213 -0.0114  0.1195 -0.0523
 6847W        W 6847   6.521   5.976   5.378 -0.3051  0.1215  0.0799
 6848W        W 6848   0.356   0.361   9.916 -0.2855 -0.0690  0.0915
 6849W        W 6849   7.238  10.248   7.425  0.0576 -0.1891  0.1303
 6850W        W 6850   7.278   6.314   2.883 -0.1442 -0.3670  0.1281
 6851W        W 6851   5.467   3.039   8.451  0.0297 -0.0090  0.3722
 6852W        W 6852  10.340   5.531   2.597 -0.2634 -0.0511  0.0794
 6853W        W 6853   1.867   1.635   8.016  0.1823 -0.1254  0.2895
 6854W        W 6854   7.900   5.364   2.168 -0.0134  0.1894  0.2640
 6855W        W 6855   4.677   5.961   3.534  0.0425 -0.1977  0.2222
 6856W        W 6856  10.205   9.844   7.414 -0.0369  0.3008  0.0150
 6857W        W 6857  10.042   6.727   8.749  0.1339 -0.0333 -0.1109
 6858W        W 6858   8.338   9.359   8.160 -0.2612 -0.2331 -0.0241
 6859W        W 6859   4.405   5.283   7.717 -0.0730 -0.0386  0.1556
 6860W        W 6860   2.966   9.623   8.736  0.1850 -0.0004  0.3732
 6861W        W 6861   4.780   3.698   1.477 -0.0669 -0.1030 -0.2070
 6862W        W 6862   8.463   0.543   9.341  0.2057 -0.0002 -0.0407
 6863W        W 6863   6.471   1.978   4.710  0.1095 -0.1248  0.1784
 6864W        W 6864   5.496   6.161   7.997 -0.1336  0.0009 -0.0454
 6865W        W 6865   3.839   5.748   5.587  0.4046 -0.0119 -0.2484
 6866W        W 6866   2.408  10.081   5.608  0.1135  0.1915 -0.0335
 6867W        W 6867   2.479   4.193   7.521 -0.0487 -0.0716 -0.1985
 6868W        W 6868   6.077   1.234   8.474  0.1054  0.0705  0.1264
 6869W        W 6869   6.328   7.351   6.523 -0.2233 -0.1438 -0.1957
 6870W        W 6870   7.097   5.716   8.698 -0.0676 -0.0576 -0.1145
 6871W        W 6871   6.642   0.431   4.272  0.3861 -0.1515  0.2635
 6872W        W 6872   9.063   0.929   6.563 -0.2366 -0.1882 -0.0424
 6873W        W 6873   4.355   3.399   6.120 -0.1921  0.1787  0.1399
 6874W        W 6874   2.261   6.156   0.526 -0.2729 -0.1170 -0.3865
 6875W        W 6875   0.826  10.078   1.157  0.1247  0.0282  0.2218
 6876W        W 6876   8.423   0.544   4.462 -0.2248  0.0232 -0.0314
 6877W        W 6877   5.259   8.793   4.427 -0.1011  0.0265  0.5526
 6878W        W 6878   1.810   2.899  10.339  0.0409  0.2512 -0.0527
 6879W        W 6879   3.036   2.822   4.083 -0.1545 -0.0875  0.3461
 6880W        W 6880   0.545   1.368   0.312  0.1432 -0.2547 -0.4628
 6881W        W 6881   0.696   6.013   2.177 -0.0739  0.0630 -0.0082
 6882W        W 6882   6.861   7.466   5.605  0.0068  0.2006  0.3903
 6883W        W 6883   3.426  10.192   7.231 -0.2500  0.0668 -0.0839
 6884W        W 6884   9.153   7.268   9.315 -0.2926 -0.1889 -0.3382
 6885W        W 6885   3.863   7.213   0.472  0.1525  0.2050  0.3077
 6886W        W 6886   3.170   5.092   0.551  0.1081 -0.3555 -0.1414
 6887W        W 6887   5.508  10.344   9.724  0.0801 -0.3819 -0.3908
 6888W        W 6888   6.218   9.024   2.969 -0.1156 -0.4483 -0.0112
 6889W        W 6889  10.036   6.096   8.992  0.1913  0.0351  0.0495
 6890W        W 6890   8.430   5.821   3.591 -0.1227 -0.3475 -0.0519
 6891W        W 6891   5.401   1.922   8.419  0.2802 -0.0293  0.1218
 6892W        W 6892   5.408   4.208   0.912 -0.0308  0.2126  0.1530
 6893W        W 6893   5.233   4.690   0.743 -0.3346 -0.0086  0.1970
 6894W        W 6894   9.093   5.364   8.152  0.0426 -0.1369 -0.1532
 6895W        W 6895   1.365   9.663   5.464 -0.0703  0.2678 -0.0808
 6896W        W 6896   8.409   1.330   2.790 -0.1860  0.1089 -0.0147
 6897W        W 6897   2.920   2.480   8.646  0.2074  0.1025 -0.2020
 6898W        W 6898   9.347   9.150   2.706  0.2748 -0.2179  0.3794
 6899W        W 6899   3.689   1.321   7.965  0.0192 -0.2349 -0.4589
 6900W        W 6900   9.647   0.233   0.935  0.1537  0.2350 -0.0774
 6901W        W 6901  10.327   8.182   6.964 -0.0296 -0.0376  0.1770
 6902W        W 6902   7.406   9.248   6.815  0.1959 -0.1809  0.1134
 6903W        W 6903   4.420   9.921   8.952 -0.2498  0.1941 -0.1748
 6904W        W 6904   4.335   2.844   9.657 -0.0777  0.2154 -0.1362
 6905W        W 6905   7.509   4.753   5.753 -0.1385 -0.2208 -0.1857
 6906W        W 6906   7.166   8.729   6.968 -0.0951 -0.2394  0.0216
 6907W        W 6907   1.479   8.645   4.046  0.1244  0.3385  0.0539
 6908W        W 6908   6.487   7.867   6.533 -0.3009 -0.1199 -0.0661
 6909W        W 6909   8.307   1.356  10.284 -0.2216  0.0088 -0.1675
 6910W        W 6910   6.715   1.043   4.453 -0.2129  0.1428 -0.0471
 6911W        W 6911   2.656   3.670   9.592  0.1388 -0.1564  0.1472
 6912W        W 6912   1.491   0.085   9.809 -0.1857 -0.2920  0.3071
 6913W        W 6913   3.170   8.030   0.311 -0.0330  0.0832 -0.4859
 6914W        W 6914   6.981   4.758   8.199 -0.1097 -0.1126  0.3610
 6915W        W 6915   0.637   3.072   9.129  0.0360 -0.2691 -0.2689
 6916W        W 6916  10.035   5.787   6.264 -0.1041 -0.3150 -0.2666
 6917W        W 6917   9.960   1.403   7.774 -0.1894  0.0259 -0.0113
 6918W        W 6918   2.033   1.428   2.645 -0.0695  0.0032 -0.0676
 6919W        W 6919   7.838   5.112   9.691 -0.4920 -0.0165 -0.0206
 6920W        W 6920   4.313   4.345   3.352  0.1220 -0.0201  0.3108
 6921W        W 6921   3.273   9.768   6.327  0.0252 -0.0379  0.1388
 6922W        W 6922   7.775   0.044   3.655  0.1587  0.1044  0.0837
 6923W        W 6923   7.341   6.039   8.277 -0.0499  0.0196  0.0094
 6924W        W 6924   6.289   9.931   5.352  0.2638 -0.0568 -0.0874
 6925W        W 6925   0.337   3.512   0.107  0.0275 -0.4530  0.0564
 6926W        W 6926   4.793   8.597   3.218 -0.2183  0.0525  0.0410
 6927W        W 6927   8.613   3.308   0.999 -0.0566  0.2678  0.2677
 6928W        W 6928   0.089   0.373   6.803  0.1309 -0.1105  0.0165
 6929W        W 6929   7.359   2.234   2.191 -0.0475  0.3528  0.0363
 6930W        W 6930   1.113   7.996   5.730 -0.0982 -0.1216 -0.3060
 6931W        W 6931   9.460   4.896   1.554 -0.0780  0.0895 -0.0244
 6932W        W 6932   9.933  10.249   2.972 -0.1632  0.0730 -0.1712
 6933W        W 6933   3.688   8.962   7.097 -0.0743 -0.1536 -0.4814
 6934W        W 6934   7.692   1.098   5.526  0.0664  0.0842  0.0464
 6935W        W 6935   1.530   3.628   4.077  0.1129 -0.0955  0.0458
 6936W        W 6936   9.410   1.736  10.141  0.1354  0.1828 -0.0600
 6937W        W 6937   7.028   4.680   5.532  0.1983  0.2024  0.2349
 6938W        W 6938   5.280   3.149   0.811 -0.1531 -0.1546 -0.2316
 6939W        W 6939   5.649   1.339   3.068 -0.1964 -0.2124 -0.3702
 6940W        W 6940   3.242   8.386   1.487  0.1869 -0.0055 -0.0718
 6941W        W 6941   7.411   7.523   9.139  0.1891 -0.1002  0.0857
 6942W        W 6942   6.819   4.538   3.831 -0.1751 -0.2012 -0.0966
 6943W        W 6943   6.658   0.656   7.085  0.0535  0.2262  0.0441
 6944W        W 6944   8.592   0.717   3.378 -0.1991  0.2732  0.0173
 6945W        W 6945   8.056   6.413   0.147 -0.1675 -0.0102  0.0421
 6946W        W 6946   5.239   9.435   0.446  0.0250 -0.0591  0.0461
 6947W        W 6947   8.001   2.482   6.911  0.1446 -0.0102  0.1009
 6948W        W 6948   6.280   9.621   5.795  0.0167  0.2684  0.1502
 6949W        W 6949   0.412   5.201   9.072  0.1370 -0.0780  0.2934
 6950W        W 6950   4.044   1.360   6.126  0.0066  0.2778 -0.2220
 6951W        W 6951  10.001   0.614   6.769 -0.0875 -0.1335 -0.0092
 6952W        W 6952   2.275   6.229   2.987 -0.2292  0.2517  0.0305
 6953W        W 6953   8.471   2.487   4.243 -0.0749  0.1748  0.3591
 6954W        W 6954   2.818   9.186   9.631  0.0816  0.0555  0.1956
 6955W        W 6955   6.001   1.599   0.882 -0.0481  0.0962  0.0051
 6956W        W 6956   0.998   8.717   3.820 -0.1963  0.0594  0.0001
 6957W        W 6957   8.239   9.692   7.257 -0.1703 -0.0601 -0.1523
 6958W        W 6958   4.722   1.438   6.195  0.0258 -0.0009  0.2919
 6959W        W 6959   1.216   6.006   1.312 -0.1480 -0.0377 -0.1016
 6960W        W 6960   8.776   3.989   2.166 -0.1884 -0.0049 -0.0507
 6961W        W 6961   4.043   3.888   6.052 -0.0713  0.0717 -0.0372
 6962W        W 6962   9.658   2.851   9.540  0.0548  0.2111  0.3523
 6963W        W 6963   4.175   0.628   2.879 -0.0565  0.1571 -0.1333
 6964W        W 6964   0.895   8.000   7.541  0.0909  0.2711  0.0948
 6965W        W 6965   2.083   5.488   1.557  0.1324  0.0674  0.0799
 6966W        W 6966   4.193   9.563   4.016  0.0270 -0.0893  0.0050
 6967W        W 6967   9.954   0.185   2.519  0.0536 -0.2014  0.0102
 6968W        W 6968   8.509   3.590   8.859  0.2802  0.1794  0.0382
 6969W        W 6969   0.631   4.709   8.381 -0.1880 -0.4101 -0.0788
 6970W        W 6970   6.057   5.483   0.825  0.2286  0.1988  0.0713
 6971W        W 6971   0.972   2.158   4.978  0.2631  0.1014  0.0897
 6972W        W 6972   2.686   2.293   0.362 -0.2312 -0.0566  0.3460
 6973W        W 6973   0.851   8.682   7.020  0.1416 -0.0028 -0.0261
 6974W        W 6974   2.183   6.968   3.622  0.1816 -0.2208  0.0816
 6975W        W 6975   3.542   9.286   9.463 -0.4274  0.2309 -0.0309
 6976W        W 6976   6.922   8.622   9.527  0.1887  0.2975 -0.1161
 6977W        W 6977   6.162   4.729   0.328  0.2186  0.1934 -0.1085
 6978W        W 6978   4.216   5.439   2.202 -0.2505  0.1415  0.0879
 6979W        W 6979   6.401   6.178   6.733  0.3707  0.0697  0.2587
 6980W        W 6980   5.431   7.076   6.111 -0.1195  0.1646  0.3069
 6981W        W 6981   0.421   5.361   7.285  0.1439 -0.1988 -0.2466
 6982W        W 6982   0.342   0.605   5.547  0.2132  0.0593  0.1857
 6983W        W 6983   8.089   6.283   7.481  0.0848  0.1348  0.1761
 6984W        W 6984   0.086   1.301   7.929  0.2496 -0.1278 -0.0763
 6985W        W 6985   9.158   0.074   5.734  0.1571  0.1443 -0.0993
 6986W        W 6986   4.460  10.143   2.955  0.1745 -0.3898 -0.1342
 6987W        W 6987   6.306   6.154  10.344  0.2973 -0.0310  0.2990
 6988W        W 6988   8.199   3.339   6.581  0.0328 -0.0120 -0.2240
 6989W        W 6989   5.025   5.615   7.310  0.0422  0.0657 -0.0073
 6990W        W 6990   5.216   7.391   1.756  0.0011 -0.0170 -0.1783
 6991W        W 6991   7.574   9.149   7.593  0.4506  0.0530 -0.0412
 6992W        W 6992   3.463  10.003   1.650 -0.1387 -0.0353  0.1347
 6993W        W 6993   0.814   7.764  10.133  0.1805  0.2661  0.0975
 6994W        W 6994   3.121   3.008   6.689 -0.0410  0.1386  0.3321
 6995W        W 6995   6.362   8.555   8.126 -0.1157  0.3675 -0.0184
 6996W        W 6996   0.114   6.464   1.519 -0.1029  0.2170  0.1854
 6997W        W 6997   4.750   8.115   8.573  0.0111 -0.2816  0.2747
 6998W        W 6998   6.797   6.530   6.739  0.0550 -0.0629 -0.0008
 6999W        W 6999   8.563   7.949   8.439 -0.0942  0.1004 -0.1275
 7000W        W 7000   1.504   8.579   2.150 -0.1288 -0.2224  0.1810
 7001W        W 7001   2.540   9.728   2.628 -0.1212  0.3855  0.1992
 7002W        W 7002   2.138   6.687   9.117 -0.1053  0.0847  0.0397
 7003W        W 7003   1.497   7.173   4.209  0.0841 -0.1643 -0.0311
 7004W        W 7004   7.078   4.023   5.449 -0.3214 -0.0573 -0.2594
 7005W        W 7005   7.770   8.163   0.926 -0.2897  0.2411 -0.0880
 7006W        W 7006   0.118   5.550   6.604 -0.1810 -0.0318 -0.1159
 7007W        W 7007   5.943   0.789   4.996 -0.2043 -0.0809  0.1799
 7008W        W 7008   3.497   2.462   3.574  0.1006  0.0122 -0.2016
 7009W        W 7009   3.231   0.895   1.833  0.0878  0.0694  0.2446
 7010W        W 7010   3.009   1.522   0.954  0.2831 -0.2409 -0.2178
 7011W        W 7011   4.202   9.702   3.220  0.0918  0.0037  0.2355
 7012W        W 7012   7.509   9.960   8.236  0.1541 -0.0377 -0.2023
 7013W        W 7013   1.670   9.502   6.080  0.2733 -0.0070 -0.1304
 7014W        W 7014   9.124  10.276   8.085 -0.3724  0.2753  0.1257
 7015W        W 7015   7.455   4.009   0.749 -0.1365  0.0177  0.1323
 7016W        W 7016  10.066   4.680   3.444  0.1082  0.1608  0.2432
 7017W        W 7017   6.240   0.910   6.487 -0.0785  0.3391  0.1104
 7018W        W 7018   5.852   8.762   2.298 -0.1504  0.0796  0.5473
 7019W        W 7019   0.370   7.630   7.366  0.4580 -0.1089  0.3108
 7020W        W 7020   8.757   0.946   2.970 -0.1341 -0.3208 -0.2474
 7021W        W 7021   7.962   9.746   5.057  0.1273  0.2376 -0.0207
 7022W        W 7022   1.026   5.346   1.426 -0.1543  0.0604  0.0957
 7023W        W 7023   5.801   5.430   3.717  0.2258  0.2125  0.0122
 7024W        W 7024   2.324   9.852   3.952 -0.0893 -0.1964 -0.3465
 7025W        W 7025   9.444   6.815   5.329 -0.0544  0.0756  0.1070
 7026W        W 7026   5.673   7.457  10.313  0.0802  0.0449 -0.2186
 7027W        W 7027   4.817   0.359   4.009 -0.0386 -0.0783 -0.1077
 7028W        W 7028   0.317   6.521   4.528 -0.1786  0.0943 -0.0175
 7029W        W 7029   5.985   4.231   7.427  0.1026  0.1061  0.0181
 7030W        W 7030   3.007   4.905   8.675 -0.0289 -0.2340 -0.0323
 7031W        W 7031   2.765   0.696   3.595 -0.0165 -0.1595  0.4410
 7032W        W 7032   7.266   3.577   8.822  0.5483  0.0858 -0.2332
 7033W        W 7033   6.263   5.893   6.353  0.5393 -0.0447 -0.0025
 7034W        W 7034   2.143   5.482   6.463 -0.2067 -0.1353 -0.2719
 7035W        W 7035   4.733   4.137   4.703 -0.0935 -0.0688  0.0827
 7036W        W 7036   3.755   4.235   4.885 -0.0024 -0.0627 -0.2441
 7037W        W 7037   3.846   4.998   1.883 -0.1242  0.3669 -0.0425
 7038W        W 7038   0.112   1.977   5.941 -0.1377  0.1341  0.2711
 7039W        W 7039   2.056   9.817   9.361 -0.0662 -0.0336 -0.2278
 7040W        W 7040   3.316   8.769   3.223  0.1649  0.2375 -0.3857
 7041W        W 7041   1.403   8.909   1.362  0.1487 -0.0500  0.0828
 7042W        W 7042   9.053   8.275   7.731  0.3078  0.0349  0.0241
 7043W        W 7043   8.877   3.736   9.172 -0.0645 -0.0374  0.1367
 7044W        W 7044   6.701   9.605   6.153  0.0264  0.1273  0.2221
 7045W        W 7045  10.334  10.307   3.822  0.0258 -0.1053 -0.0941
 7046W        W 7046   0.931   6.720   9.354 -0.1407 -0.0814  0.0629
 7047W        W 7047   0.369   6.174   9.796  0.1389 -0.4360 -0.0412
 7048W        W 7048   4.492   8.986   7.828 -0.1160 -0.4399  0.0933
 7049W        W 7049   0.137   9.813   7.896 -0.0890  0.0748  0.0242
 7050W        W 7050   8.394   0.377   3.791  0.2214  0.1976  0.3210
 7051W        W 7051   9.561   0.334   2.256  0.0239 -0.0661  0.0712
 7052W        W 7052   6.881   0.423   1.547 -0.2838  0.4260 -0.2799
 7053W        W 7053   0.119   1.187   9.444  0.1955  0.0121 -0.1364
 7054W        W 7054   7.024   8.464   1.320  0.4846  0.0371 -0.3161
 7055W        W 7055   3.778   1.979   2.585  0.0288 -0.2047 -0.2069
 7056W        W 7056   1.466   0.366   2.018 -0.0488  0.0302  0.3087
 7057W        W 7057   3.091   7.520   4.697 -0.0706 -0.2410 -0.1605
 7058W        W 7058   7.225   1.118   9.602 -0.1690 -0.1041 -0.3122
 7059W        W 7059   8.577   6.828   3.432 -0.0063  0.1663  0.1347
 7060W        W 7060   1.269   8.263   6.107  0.1115  0.0080 -0.1715
 7061W        W 7061   6.795   6.649   8.400  0.0346 -0.0092  0.4435
 7062W        W 7062   7.787   3.450   5.008 -0.1957 -0.1420  0.0845
 7063W        W 7063   6.329   7.445   7.928  0.0299 -0.1996  0.2819
 7064W        W 7064   6.695   1.053   3.912 -0.0267 -0.0552 -0.1510
 7065W        W 7065   6.717   8.787   2.416 -0.0474  0.0591 -0.2487
 7066W        W 7066   1.167   3.244   8.085 -0.2686 -0.1410 -0.0355
 7067W        W 7067   5.651   2.822   3.118  0.1752 -0.0045  0.0436
 7068W        W 7068   8.613   4.312   3.669 -0.2596 -0.2003 -0.1162
 7069W        W 7069   2.181   4.045   2.652  0.0987 -0.0874 -0.0101
 7070W        W 7070   9.242   8.399   1.478 -0.1494  0.1620 -0.1206
 7071W        W 7071   2.278   5.357   2.353 -0.1700 -0.1430  0.2084
 7072W        W 7072  10.103   4.435   9.899  0.0017  0.2610 -0.0158
 7073W        W 7073   9.504   0.637   1.817  0.0292  0.1281 -0.0794
 7074W        W 7074   6.136   8.906   1.365  0.1165 -0.2195 -0.3178
 7075W        W 7075   3.466   4.592   0.554  0.3984 -0.2889  0.1637
 7076W        W 7076   4.665  10.314   8.749  0.1213  0.1027  0.1191
 7077W        W 7077   9.295   5.577   2.951  0.1017  0.2080  0.1040
 7078W        W 7078   2.885   5.879   5.472  0.0763 -0.2045  0.2002
 7079W        W 7079   6.576   1.134   6.160  0.1750 -0.3382 -0.1337
 7080W        W 7080   5.194   4.746   7.925 -0.1729 -0.4912 -0.0357
 7081W        W 7081   4.958   6.726   4.840 -0.2126 -0.1300  0.4064
 7082W        W 7082   7.797   9.615   2.631  0.3969 -0.1445  0.2161
 7083W        W 7083   5.389   8.857   1.974  0.1308  0.1112 -0.1032
 7084W        W 7084   1.626   5.838  10.036 -0.0804  0.1757  0.4162
 7085W        W 7085   1.269   4.128   2.458 -0.0062  0.0068  0.1026
 7086W        W 7086   5.229   8.718   0.897  0.1205 -0.1860  0.0558
 7087W        W 7087   7.653   2.269   9.458 -0.0952 -0.0459  0.1688
 7088W        W 7088   7.601   5.890   5.130 -0.2150  0.0470  0.0858
 7089W        W 7089   1.275   3.535   1.171 -0.1750  0.0393 -0.0019
 7090W        W 7090   2.219   2.727   3.146  0.2054  0.2444  0.1448
 7091W        W 7091   6.042   6.379   6.375  0.0772  0.2292 -0.3541
 7092W        W 7092   0.445   1.379   2.609  0.2908 -0.0825 -0.3086
 7093W        W 7093   9.694   2.799   2.234 -0.1973  0.0250  0.1858
 7094W        W 7094   2.271   7.580   8.068  0.0242  0.1709 -0.1217
 7095W        W 7095   6.110   3.771   9.541 -0.0485  0.0259 -0.1523
 7096W        W 7096   4.624   5.086   0.415 -0.3628 -0.2869  0.2268
 7097W        W 7097   6.360   1.678   8.688 -0.3951 -0.1684  0.1070
 7098W        W 7098   4.885   8.613   7.246  0.2844 -0.0530 -0.4554
 7099W        W 7099   3.018   3.875   7.598  0.0704  0.0262 -0.0669
 7100W        W 7100   3.259   2.185   6.743 -0.2731  0.0305 -0.0946
 7101W        W 7101   0.922   1.549   7.551 -0.1202  0.3673 -0.1026
 7102W        W 7102   6.581   1.923   1.903 -0.0637  0.1210 -0.0738
 7103W        W 7103   7.207   4.147   4.962  0.4161 -0.1117 -0.0732
 7104W        W 7104   7.230   2.372   7.051 -0.1020 -0.1403 -0.0770
 7105W        W 7105   2.220   5.866   0.944  0.0671 -0.1573  0.3521
 7106W        W 7106   6.135   2.001   1.298 -0.1333 -0.1226 -0.2858
 7107W        W 7107   4.776   9.387   5.642  0.3236  0.0366 -0.2469
 7108W        W 7108   1.378   4.592   7.548  0.0357 -0.3953 -0.1356
 7109W        W 7109   2.713   8.593   6.254  0.1661  0.2502 -0.3056
 7110W        W 7110   9.243   2.139   9.362 -0.1226 -0.1162 -0.0663
 7111W        W 7111   0.252   1.834   6.496 -0.0044 -0.1811 -0.1257
 7112W        W 7112   6.873   2.054   2.905 -0.4433  0.2566 -0.1329
 7113W        W 7113   4.703   2.833   2.062 -0.1888  0.0127 -0.3460
 7114W        W 7114   9.574   6.865   6.234 -0.2092  0.1811  0.0066
 7115W        W 7115   0.734   7.764   9.601 -0.1283  0.2292 -0.1374
 7116W        W 7116   8.219   3.273   2.283 -0.1865  0.0974  0.0668
 7117W        W 7117   6.472   4.714   8.576  0.3307 -0.1546  0.0959
 7118W        W 7118   3.536   0.293   3.683 -0.0723  0.0697  0.2634
 7119W        W 7119   6.645   7.855   2.681 -0.4322 -0.1697  0.2764
 7120W        W 7120   6.187   5.758   9.461  0.0619  0.1239 -0.0726
 7121W        W 7121   0.593   9.055   3.959  0.1754  0.0979  0.1202
 7122W        W 7122   5.863   8.331   4.091 -0.0357 -0.0253  0.1324
 7123W        W 7123   6.342  10.260   4.992  0.1953 -0.5911  0.0831
 7124W        W 7124   9.038   9.078   8.853 -0.0572 -0.4035 -0.1141
 7125W        W 7125   7.845   3.914   4.230  0.2273  0.0411 -0.0124
 7126W        W 7126   6.545   4.969   1.160  0.2406 -0.1135  0.3473
 7127W        W 7127   6.697   1.112   9.355 -0.0525 -0.0878  0.1909
 7128W        W 7128   9.769   1.091   0.413 -0.1534 -0.0712 -0.1711
 7129W        W 7129   3.967   8.389   7.583  0.3137 -0.0168  0.0363
 7130W        W 7130   5.198   5.397   1.232 -0.0963 -0.1905 -0.0609
 7131W        W 7131   2.328   9.870   6.514 -0.0068  0.2646  0.0821
 7132W        W 7132   7.208   3.804   1.333 -0.0138 -0.0616  0.3031
 7133W        W 7133   5.834   6.466   2.075 -0.1145  0.1046 -0.0603
 7134W        W 7134   1.974   0.147   2.042 -0.3530 -0.0170 -0.1208
 7135W        W 7135   9.634   8.687   1.441 -0.5181 -0.2354 -0.0100
 7136W        W 7136   9.338   8.165   0.789  0.2464  0.1761  0.1555
 7137W        W 7137   2.189   1.761   2.200  0.1952  0.2341  0.1032
 7138W        W 7138   5.498   0.117   0.384  0.0181  0.0457  0.2120
 7139W        W 7139  10.294   1.490   5.230  0.3320 -0.1632 -0.0252
 7140W        W 7140  10.120   1.186   4.883  0.0293  0.0206  0.0237
 7141W        W 7141   4.615   3.222   0.220 -0.0830 -0.2687  0.1298
 7142W        W 7142   1.201   2.053   7.892  0.3581 -0.0712 -0.0966
 7143W        W 7143   1.682   2.575   9.978  0.0204  0.0775  0.0021
 7144W        W 7144   0.932   0.141   8.215  0.2751  0.0365  0.3878
 7145W        W 7145   5.497   6.473   3.263 -0.2666 -0.0710  0.3010
 7146W        W 7146  10.027   4.197   3.396 -0.0710 -0.0901  0.0097
 7147W        W 7147   0.789   8.250   8.898 -0.0538  0.3805  0.0639
 7148W        W 7148   0.724   0.292   5.981  0.1077  0.2161  0.1218
 7149W        W 7149   0.834   7.372   8.068  0.1544  0.0077 -0.1033
 7150W        W 7150   1.237   6.105   7.178  0.4941 -0.0931  0.2088
 7151W        W 7151  10.297   9.666   1.634  0.0046 -0.0107  0.1223
 7152W        W 7152   6.423   6.437   4.225  0.1836  0.3247 -0.0118
 7153W        W 7153   4.493   4.463   5.902 -0.0941 -0.3127  0.1179
 7154W        W 7154   2.240   1.191   5.853 -0.2477 -0.1516 -0.0003
 7155W        W 7155   6.255   2.837   7.697  0.0599 -0.0140  0.0647
 7156W        W 7156   6.141   2.332  10.178  0.0877  0.1101 -0.1921
 7157W        W 7157  10.021   7.358   8.173  0.2457 -0.0461  0.1481
 7158W        W 7158   5.794   7.914   4.458 -0.3065 -0.0597 -0.1174
 7159W        W 7159   3.105   6.584  10.321 -0.0786 -0.0741 -0.1867
 7160W        W 7160   3.157   1.605   9.804  0.2640 -0.0708 -0.0360
 7161W        W 7161   1.323   3.755   4.737 -0.1857 -0.0999  0.1161
 7162W        W 7162   3.633   4.698   2.358 -0.2221 -0.2248  0.1331
 7163W        W 7163  10.265   6.311   7.095 -0.0180 -0.0376 -0.1977
 7164W        W 7164   1.270   3.639   9.312  0.0190 -0.1953  0.0318
 7165W        W 7165   5.211   9.278   1.728  0.2077 -0.0733  0.0511
 7166W        W 7166   6.804   6.620   2.826 -0.1535  0.0400 -0.2125
 7167W        W 7167   4.228  10.109   3.446 -0.0052  0.1925  0.2441
 7168W        W 7168   1.453   0.244   3.710 -0.0538  0.2018 -0.0128
 7169W        W 7169   2.267   4.906   1.401 -0.1020 -0.0262  0.0917
 7170W        W 7170   2.892   9.494   6.479 -0.1419 -0.1657  0.1145
 7171W        W 7171   9.040   8.971   7.044  0.2955 -0.0256  0.2887
 7172W        W 7172   9.771   9.792   0.400 -0.1284  0.0181 -0.0175
 7173W        W 7173   4.417   5.613   1.770 -0.3375  0.1760  0.2272
 7174W        W 7174   2.188   2.954   5.090 -0.2127  0.2370  0.0598
 7175W        W 7175   6.700   1.602   5.986  0.1090 -0.0159  0.1431
 7176W        W 7176   8.104   8.504   9.736 -0.1947 -0.1544 -0.1555
 7177W        W 7177   7.653   7.591   9.669  0.1526  0.2564 -0.0928
 7178W        W 7178   8.807   1.411   0.448  0.1892  0.1347 -0.1239
 7179W        W 7179   7.814   3.192   0.038  0.2041 -0.4784  0.1193
 7180W        W 7180   0.180   2.688   3.350 -0.1002  0.0799  0.1780
 7181W        W 7181   6.949   0.512   5.674  0.2379 -0.3581 -0.0482
 7182W        W 7182   5.103   6.762   5.307  0.0885 -0.0899 -0.0146
 7183W        W 7183   0.427   7.625   0.155  0.0047 -0.0130 -0.0094
 7184W        W 7184   5.694   2.925   3.734  0.0998 -0.0234  0.0250
 7185W        W 7185   8.744   6.328   0.895 -0.0473  0.0181 -0.4112
 7186W        W 7186   7.197   2.794   2.592  0.0011 -0.3019 -0.1216
 7187W        W 7187   4.118   6.679   4.989 -0.0413  0.3622 -0.1712
 7188W        W 7188   7.448   5.297   4.499  0.0241 -0.0491  0.2992
 7189W        W 7189   6.301   0.864   4.285  0.0603  0.0275 -0.2961
 7190W        W 7190   9.084   4.515   6.772 -0.2631 -0.2197 -0.0351
 7191W        W 7191   9.510   1.557   4.163  0.0047 -0.1158 -0.0667
 7192W        W 7192   9.887   6.468   6.330 -0.4769  0.0055  0.2306
 7193W        W 7193   0.528   5.113   6.728 -0.0474  0.0254 -0.4884
 7194W        W 7194   4.915   5.796   6.593  0.0690  0.2562  0.0588
 7195W        W 7195   6.650   3.028   6.408  0.0154 -0.5061  0.1799
 7196W        W 7196   6.421   7.032   3.934 -0.0427  0.1411  0.1099
 7197W        W 7197   3.354   5.728   3.444  0.2111 -0.1264  0.2044
 7198W        W 7198   9.092   7.567   5.890 -0.2176 -0.0216  0.0398
 7199W        W 7199   2.750   6.075  10.196 -0.2468  0.0744 -0.0057
 7200W        W 7200   1.642   9.025   7.786  0.2640 -0.2939 -0.3089
 7201W        W 7201   4.901   7.511   1.325 -0.1221  0.0448  0.0736
 7202W        W 7202   6.284   3.295   0.529  0.1189  0.0668  0.0949
 7203W        W 7203   2.937   8.129   7.590 -0.0510  0.0681  0.3881
 7204W        W 7204   8.006   2.124  10.281 -0.2302  0.0521  0.0917
 7205W        W 7205   4.102   8.921   3.981 -0.0641 -0.3017 -0.0514
 7206W        W 7206   1.512   3.116  10.024 -0.1556 -0.0867 -0.0204
 7207W        W 7207   2.495   2.835   1.069  0.0183 -0.0579 -0.1298
 7208W        W 7208   7.147   3.016   7.700  0.2516  0.1512 -0.1855
 7209W        W 7209   8.513   5.634   2.340  0.0563  0.0008 -0.0578
 7210W        W 7210   4.751   9.475   6.482  0.1502  0.3002  0.0520
 7211W        W 7211   8.921   1.943   8.694 -0.1973  0.0854 -0.0704
 7212W        W 7212   8.040   6.008   5.449 -0.2272  0.1307 -0.0358
 7213W        W 7213   4.218   3.162   9.330  0.2026  0.0928  0.0058
 7214W        W 7214   3.070   3.960   8.940  0.0240 -0.1652 -0.0114
 7215W        W 7215   4.077   7.083   5.901  0.2663 -0.3073 -0.0983
 7216W        W 7216   1.680   3.050   5.176  0.3459 -0.0026 -0.2225
 7217W        W 7217   5.314   3.252   3.907  0.0775 -0.2266 -0.4164
 7218W        W 7218   2.870   2.208   5.682  0.2482 -0.0312 -0.2989
 7219W        W 7219   7.397   0.802   7.854  0.0849 -0.2296  0.0282
 7220W        W 7220   5.122   1.022   6.950 -0.1422  0.1046  0.1706
 7221W        W 7221   1.360   0.415   6.108  0.0783 -0.1352 -0.3109
 7222W        W 7222   5.803   1.414   5.552 -0.4195 -0.2398 -0.1925
 7223W        W 7223   5.146   3.682   2.052  0.0617 -0.0417  0.2106
 7224W        W 7224   9.311   4.615   4.789 -0.0844  0.0658  0.1532
 7225W        W 7225   9.505   2.616   4.393 -0.2466 -0.1277  0.0806
 7226W        W 7226   7.058   5.518   2.411  0.0097 -0.2440  0.3637
 7227W        W 7227   5.694   4.834   0.167  0.3859 -0.0963 -0.0681
 7228W        W 7228   5.229   4.942   9.779  0.0664 -0.2080 -0.1975
 7229W        W 7229   4.851   2.481   3.758  0.0062 -0.0386  0.3426
 7230W        W 7230   7.922   0.812   9.367 -0.3670 -0.0647  0.0215
 7231W        W 7231   9.562   3.935   3.738 -0.0028  0.2506  0.1351
 7232W        W 7232   9.177   6.143   2.113  0.2521 -0.0042  0.2265
 7233W        W 7233   7.967   0.491   1.517  0.0997 -0.0774  0.2652
 7234W        W 7234   9.518   9.854   6.878 -0.0946 -0.1115  0.2641
 7235W        W 7235   1.452   4.522   9.755 -0.6453  0.0385 -0.2366
 7236W        W 7236   9.664   5.425   9.218 -0.0195 -0.2270 -0.0863
 7237W        W 7237   2.240   2.867  10.092 -0.0624 -0.1379 -0.0166
 7238W        W 7238   2.837   9.742   7.746 -0.2717 -0.4176 -0.2104
 7239W        W 7239   1.818   5.057   1.456 -0.2817  0.4001 -0.0774
 7240W        W 7240   9.230   9.142   5.499  0.4824  0.1901  0.2875
 7241W        W 7241   1.378   8.770   6.998 -0.2483  0.1052  0.2657
 7242W        W 7242   7.754   7.858   8.321  0.1831  0.1986  0.0729
 7243W        W 7243   4.377   0.256   0.153  0.1719 -0.1849 -0.5494
 7244W        W 7244   2.803   6.387   5.284  0.0148 -0.0277  0.0959
 7245W        W 7245   7.568   7.523   5.202  0.0682  0.1029  0.0618
 7246W        W 7246   7.124   9.473   3.403 -0.0079  0.1434 -0.4715
 7247W        W 7247   5.261   0.745   2.464  0.2297  0.0469  0.0688
 7248W        W 7248   3.717   4.094   0.449 -0.2210 -0.0143  0.1074
 7249W        W 7249   0.400   4.738   5.895 -0.3716  0.0742  0.1604
 7250W        W 7250   7.747   4.466   9.860 -0.1235  0.0516 -0.1863
 7251W        W 7251   7.547   1.046   6.835  0.0381 -0.0137 -0.0934
 7252W        W 7252   6.660   5.155   0.188  0.1347 -0.0420  0.0685
 7253W        W 7253   1.816   1.695   3.937 -0.0254  0.0188  0.1902
 7254W        W 7254   2.894   3.220   1.185 -0.0505  0.0260 -0.2414
 7255W        W 7255   9.371   3.172   9.167  0.3465 -0.0904  0.2744
 7256W        W 7256   3.137   0.100   0.134 -0.3322  0.1517  0.1172
 7257W        W 7257   2.855   8.797   2.327  0.0022  0.1897 -0.0279
 7258W        W 7258   8.124   9.997   9.485 -0.0157  0.0465  0.1934
 7259W        W 7259   0.040   7.676   3.008 -0.1315 -0.2776 -0.3824
 7260W        W 7260   7.166   5.977   2.190 -0.0890 -0.2753  0.0581
 7261W        W 7261   2.801   1.419   4.226 -0.0773  0.0252 -0.3888
 7262W        W 7262   2.892   6.785   4.483 -0.2031  0.1086 -0.1353
 7263W        W 7263   9.462   9.981   1.821 -0.0083  0.0798  0.1398
 7264W        W 7264   0.877   9.463   8.189 -0.0751 -0.0333  0.0848
 7265W        W 7265   3.253  10.020   0.385  0.0518  0.1423  0.1989
 7266W        W 7266   3.012   6.058   2.498 -0.0147  0.1360 -0.2260
 7267W        W 7267   7.406   7.891   4.332 -0.2517 -0.0526 -0.1216
 7268W        W 7268   4.260   9.199   8.365 -0.0108 -0.6735  0.0452
 7269W        W 7269   1.203   6.632   7.471 -0.2406  0.1885  0.3676
 7270W        W 7270   7.924   8.329   9.199 -0.4336 -0.1694 -0.0005
 7271W        W 7271   0.694   7.128   5.553 -0.0717  0.0216  0.0177
 7272W        W 7272   6.385   3.259   4.363 -0.0814 -0.2760  0.3244
 7273W        W 7273   7.668   8.663   7.697  0.2911 -0.1433 -0.1356
 7274W        W 7274   6.863   8.742   0.655  0.3066  0.2613 -0.1041
 7275W        W 7275   7.479   8.415   6.787 -0.0768  0.1175  0.1969
 7276W        W 7276   2.575   9.316   2.270  0.0376 -0.3443 -0.1468
 7277W        W 7277   9.320   8.702   1.090 -0.0751 -0.1561  0.1338
 7278W        W 7278   3.895   1.485   4.333  0.1352 -0.0538  0.2478
 7279W        W 7279   6.095   7.630  10.035 -0.0831  0.1866  0.1542
 7280W        W 7280   4.263   8.320   7.199  0.0232  0.0553 -0.1318
 7281W        W 7281   2.825   2.838   7.914 -0.0282  0.0258 -0.0469
 7282W        W 7282   0.534   8.031   0.637  0.0833  0.2551 -0.2627
 7283W        W 7283   8.935   8.681   3.879  0.1210  0.1409  0.0200
 7284W        W 7284   8.715  10.201   8.322  0.0078 -0.1142 -0.3997
 7285W        W 7285   3.735   2.742   8.242 -0.0140 -0.1585 -0.2763
 7286W        W 7286   8.656   1.294   8.393  0.1458 -0.0323 -0.1872
 7287W        W 7287   5.658   6.570   0.430  0.0447 -0.1200  0.1723
 7288W        W 7288   8.988   6.626   4.338  0.2601 -0.0664 -0.1496
 7289W        W 7289   5.721   7.753   9.388  0.1929  0.0207  0.0668
 7290W        W 7290   6.900   7.626   8.791  0.1773  0.1477  0.2694
 7291W        W 7291   5.044   5.145   2.516 -0.0123 -0.1534  0.1630
 7292W        W 7292   5.471   2.012   7.843  0.0837  0.2969 -0.1973
 7293W        W 7293   0.230   1.869   9.702 -0.1482 -0.0724 -0.0199
 7294W        W 7294   6.409   2.196   9.733  0.1305  0.2242  0.0338
 7295W        W 7295   8.142   7.468   4.002 -0.0025 -0.0697  0.0338
 7296W        W 7296   1.900   4.259   6.426 -0.2066 -0.0696 -0.0863
 7297W        W 7297   0.929   9.512   7.454 -0.0703 -0.1263 -0.0413
 7298W        W 7298   5.238   2.196   3.813  0.3215 -0.1074  0.1080
 7299W        W 7299   1.253   5.980   2.235 -0.0278  0.1907  0.2549
 7300W        W 7300   9.424   8.559   2.924  0.0904  0.3234  0.2434
 7301W        W 7301   8.787   3.120   5.349  0.0543  0.0293 -0.1294
 7302W        W 7302   2.140   4.472   3.149 -0.2706 -0.0182  0.3301
 7303W        W 7303   3.942   0.435   6.540 -0.1112  0.1994  0.0052
 7304W        W 7304   2.508   4.759   4.995 -0.1775  0.1695  0.1702
 7305W        W 7305   5.432   2.212   2.389  0.0561  0.4244  0.2785
 7306W        W 7306   9.430   7.734   0.302  0.1465 -0.0149  0.1411
 7307W        W 7307   0.264   6.663   7.573 -0.1707 -0.0550  0.0537
 7308W        W 7308   7.190   6.733   8.839  0.1840 -0.3804  0.0082
 7309W        W 7309   4.977   5.767   1.737 -0.1716 -0.1465  0.0203
 7310W        W 7310   7.068   2.029   4.712  0.0583 -0.2157  0.1230
 7311W        W 7311   1.649   0.493   1.154 -0.2912  0.0071  0.2037
 7312W        W 7312   5.003   9.217   6.168 -0.3665  0.3284 -0.3558
 7313W        W 7313   5.374   9.812   8.699 -0.0465  0.2778 -0.1805
 7314W        W 7314   2.415   0.292   1.231 -0.4090  0.0489  0.0905
 7315W        W 7315   3.331   4.845   1.508  0.0675  0.4333  0.2568
 7316W        W 7316   7.128   6.970   8.109 -0.1678  0.2541  0.0309
 7317W        W 7317   1.010   4.705   8.982 -0.0364  0.0434  0.0107
 7318W        W 7318   3.440   2.854   2.680 -0.2301  0.0580  0.1361
 7319W        W 7319   4.884   8.416   1.042  0.0403  0.0129 -0.0335
 7320W        W 7320   0.780   0.010   4.872  0.1085  0.0948  0.6019
 7321W        W 7321   5.145   7.529   2.583 -0.0469  0.0142 -0.2742
 7322W        W 7322   9.692   8.741   6.141 -0.2291  0.0628 -0.2576
 7323W        W 7323   8.216   0.857   1.138 -0.2820  0.2114 -0.2067
 7324W        W 7324   6.972   4.366   0.065  0.3592  0.4638 -0.0501
 7325W        W 7325   3.935   6.734   8.448  0.0041 -0.0853 -0.0502
 7326W        W 7326   4.684   7.824   6.049  0.0450 -0.2463  0.0096
 7327W        W 7327   2.501   4.325   3.577 -0.2561  0.2535  0.0767
 7328W        W 7328   3.045   2.445   4.835 -0.3217 -0.1068 -0.2179
 7329W        W 7329   4.292   6.326   0.092 -0.0148  0.2105  0.2480
 7330W        W 7330   8.583   9.059   2.644 -0.1301  0.0377 -0.0335
 7331W        W 7331   7.683   7.119   0.228 -0.1941 -0.0090  0.1545
 7332W        W 7332   4.889   3.254   3.702  0.1230  0.1724 -0.0176
 7333W        W 7333   1.317   0.232   0.877 -0.0945  0.1378 -0.0575
 7334W        W 7334   3.460   0.217   4.248 -0.0277  0.0915  0.0359
 7335W        W 7335   7.043   3.004   4.768 -0.1327  0.0107 -0.2280
 7336W        W 7336   1.817   1.279   0.073 -0.0624 -0.2645 -0.1643
 7337W        W 7337   7.918   9.583   8.110  0.0996  0.0515  0.0642
 7338W        W 7338   3.413   8.372   1.027  0.1673  0.0300 -0.2335
 7339W        W 7339   0.374   8.700   6.242  0.5706  0.0685  0.1670
 7340W        W 7340   5.508   8.368   6.077  0.1677 -0.0449 -0.0684
 7341W        W 7341   6.798   4.561   0.888 -0.3813  0.0616  0.0177
 7342W        W 7342   4.013   6.268   7.560  0.2080 -0.0972  0.0355
 7343W        W 7343   0.288   8.037   8.289  0.2780  0.1485 -0.2471
 7344W        W 7344   9.529   2.521   1.680 -0.0965 -0.1588 -0.1921
 7345W        W 7345   8.848   0.841   8.345 -0.2677  0.2445 -0.0275
 7346W        W 7346   9.230   8.760   5.790 -0.0712  0.0976  0.4471
 7347W        W 7347   7.782   9.252   8.964 -0.0366 -0.2356  0.2757
 7348W        W 7348   6.874   8.480   5.022 -0.3832 -0.0403 -0.2767
 7349W        W 7349   4.361   5.784   5.683 -0.0985 -0.0987 -0.0240
 7350W        W 7350   1.717   0.395   9.378 -0.0293  0.0563 -0.2202
 7351W        W 7351   7.077   1.255   9.057  0.2327  0.1540 -0.0088
 7352W        W 7352   3.816   4.008   2.990  0.1815 -0.0317 -0.1814
 7353W        W 7353   4.594   5.375   4.743  0.3165 -0.3145 -0.0312
 7354W        W 7354   4.861   9.505   4.520 -0.1529  0.2726  0.1782
 7355W        W 7355   7.721   7.719   7.853  0.0719  0.2044 -0.0886
 7356W        W 7356   5.490   2.365   1.793  0.0254  0.2480  0.1105
 7357W        W 7357   1.734   6.069   6.877  0.3080  0.2294  0.2637
 7358W        W 7358   1.600   1.333   5.599  0.0734  0.2445  0.1404
 7359W        W 7359   6.325   7.061   6.067  0.1787 -0.1202 -0.3301
 7360W        W 7360   1.742   0.845   2.045  0.2579 -0.1974  0.0651
 7361W        W 7361   7.874   4.989   2.538  0.2394  0.1369  0.1056
 7362W        W 7362   1.075   1.222   3.672 -0.0723 -0.0450  0.0964
 7363W        W 7363   4.586   1.924   3.151 -0.3178 -0.2194 -0.2380
 7364W        W 7364   6.329   1.351   4.064  0.2213  0.2192 -0.0740
 7365W        W 7365  10.290   8.745   8.659  0.2752 -0.0071 -0.0134
 7366W        W 7366   9.160   8.585   8.836 -0.0892 -0.0267  0.0531
 7367W        W 7367   8.713   6.716   9.965  0.1281  0.3809 -0.1613
 7368W        W 7368   5.340   9.923   0.412  0.1000  0.1671 -0.3116
 7369W        W 7369   0.459   7.461   1.874 -0.6547  0.0614 -0.2796
 7370W        W 7370   6.841   0.280   2.439  0.3923  0.0043 -0.1419
 7371W        W 7371   9.234   0.139   8.930  0.1182  0.0456 -0.0805
 7372W        W 7372   6.867   7.145   4.124 -0.2340  0.0065 -0.0006
 7373W        W 7373   8.943   6.221   8.857  0.1948  0.1098  0.1734
 7374W        W 7374   3.934   8.229   8.023  0.1810 -0.3234  0.4673
 7375W        W 7375   3.874   4.958   8.736  0.1321  0.0165 -0.1693
 7376W        W 7376   0.788   6.558   2.438  0.0703 -0.0397 -0.0477
 7377W        W 7377   5.048   0.500   0.955  0.1548  0.1740  0.0450
 7378W        W 7378   6.440   9.462   8.902 -0.1699  0.1860  0.0083
 7379W        W 7379   9.647   3.291   5.247 -0.0553 -0.0727 -0.0897
 7380W        W 7380   7.511   2.974   7.323 -0.1574 -0.1780  0.0691
 7381W        W 7381   8.068   8.491   1.161  0.1870  0.0405 -0.0838
 7382W        W 7382   1.720   8.499   7.879 -0.0464  0.0612  0.0717
 7383W        W 7383   4.492   9.360   0.590  0.3666 -0.0930 -0.0408
 7384W        W 7384   0.614   0.131   9.452  0.2701 -0.2557 -0.1620
 7385W        W 7385   4.222   9.210   2.800  0.3466 -0.4011  0.0661
 7386W        W 7386   2.160   3.419   7.451  0.0333  0.3531 -0.2758
 7387W        W 7387   5.621   1.138   8.282 -0.3428 -0.0413 -0.0904
 7388W        W 7388   2.305   8.223   5.473 -0.0725  0.0077 -0.1979
 7389W        W 7389   7.580   9.347   4.295 -0.0198 -0.0790 -0.0808
 7390W        W 7390   8.985   9.868   6.927  0.3398 -0.2399  0.1038
 7391W        W 7391   1.359   6.769   4.824  0.0889 -0.1413  0.2206
 7392W        W 7392   8.258  10.272   3.709  0.1018 -0.1730 -0.3241
 7393W        W 7393   5.258   3.450   6.597  0.1284 -0.0094 -0.1787
 7394W        W 7394   6.230   6.178   2.414  0.0562 -0.1462  0.3078
 7395W        W 7395   7.785   3.953   2.410  0.0058 -0.0306 -0.0336
 7396W        W 7396   7.143   0.203   6.951  0.2164  0.2252  0.1418
 7397W        W 7397   6.304   7.640   6.934  0.0966  0.1731  0.2824
 7398W        W 7398   4.802   2.343   7.257  0.0511  0.0093 -0.0464
 7399W        W 7399   0.276   0.941   0.210  0.1091 -0.1406 -0.0040
 7400W        W 7400   0.201   6.584  10.189 -0.0962 -0.2609  0.1326
 7401W        W 7401   4.431  10.216   4.714 -0.1525 -0.1835 -0.0690
 7402W        W 7402   9.525   0.927   9.775  0.1090 -0.0669 -0.2585
 7403W        W 7403   3.368   4.153   0.845 -0.0117  0.1961  0.0370
 7404W        W 7404   3.944   6.623   6.127  0.0473  0.1913  0.0053
 7405W        W 7405   5.577   0.581   4.051  0.0266  0.1802  0.0999
 7406W        W 7406   4.371   3.134   4.954  0.2302  0.5138 -0.2136
 7407W        W 7407   1.666   3.971   8.775 -0.3444 -0.0879 -0.2882
 7408W        W 7408   7.298   6.956   3.798  0.1892  0.1182 -0.2268
 7409W        W 7409   7.792   0.775   8.898  0.0215  0.1908  0.1809
 7410W        W 7410   2.343   5.361   6.955 -0.1374 -0.1700 -0.3309
 7411W        W 7411   7.131   8.160   4.751  0.1061  0.2173  0.1039
 7412W        W 7412   4.577   9.200   4.253 -0.0944  0.1795 -0.1613
 7413W        W 7413   0.815   2.501   7.050  0.0661  0.2559  0.1461
 7414W        W 7414   0.133   9.396   1.172 -0.0555  0.1574  0.0865
 7415W        W 7415   0.892   1.525   4.069 -0.2510 -0.0639  0.3222
 7416W        W 7416   5.246   7.820   4.621 -0.4546 -0.0179 -0.1590
 7417W        W 7417   6.201   3.648   5.814 -0.2525 -0.1198 -0.2372
 7418W        W 7418   7.668   5.601   0.119 -0.0579 -0.1405  0.1109
 7419W        W 7419   1.714   5.904   1.289 -0.0328  0.3081 -0.1348
 7420W        W 7420   5.413   8.803   6.452 -0.1858  0.0112  0.0939
 7421W        W 7421   9.813   7.124   7.395  0.1668 -0.2137  0.1391
 7422W        W 7422   7.930   4.087  10.088 -0.0212 -0.0093 -0.3104
 7423W        W 7423  10.293   0.747   5.799 -0.1170 -0.1597  0.2347
 7424W        W 7424   6.824   8.498   3.499 -0.0958  0.0109 -0.1532
 7425W        W 7425   7.057  10.198   8.377 -0.1535 -0.1859 -0.1586
 7426W        W 7426   4.748   5.387   9.882  0.0600  0.1294 -0.0695
 7427W        W 7427   1.815   0.387   2.974 -0.2006  0.0596 -0.0342
 7428W        W 7428   2.475   9.385   0.764 -0.4406 -0.0638  0.0648
 7429W        W 7429   7.631   7.921   3.701 -0.0342  0.1343  0.3128
 7430W        W 7430   8.289   4.239   2.346  0.0003 -0.1933 -0.0619
 7431W        W 7431   2.506   0.197   0.218  0.0956 -0.0294  0.0154
 7432W        W 7432   4.718   0.846   1.522  0.1185  0.0474 -0.0431
 7433W        W 7433   1.816   2.536   5.348  0.3065  0.0199 -0.3238
 7434W        W 7434   8.753   3.101   2.406  0.0786  0.0800  0.1482
 7435W        W 7435   1.932   5.039   4.988 -0.1889  0.0597 -0.1436
 7436W        W 7436   6.988   7.949   1.256  0.1171 -0.1874 -0.2556
 7437W        W 7437   8.359   4.004   3.310 -0.0143 -0.0532  0.2645
 7438W        W 7438   1.094   6.789   5.537  0.0754 -0.2327 -0.0039
 7439W        W 7439   8.040   1.610   3.382 -0.1399 -0.1318 -0.1673
 7440W        W 7440   9.652   6.395   0.499  0.4171  0.2251  0.0182
 7441W        W 7441   2.969   6.289   4.497 -0.2096 -0.2117 -0.1396
 7442W        W 7442   9.564   2.107   0.842 -0.0801  0.0703  0.1610
 7443W        W 7443   1.829   4.605   9.374  0.2217 -0.0772  0.2732
 7444W        W 7444   5.129   9.549   8.240 -0.2164  0.1882 -0.0436
 7445W        W 7445   7.159   1.396   6.683  0.3133  0.3152  0.3438
 7446W        W 7446   2.010  10.226   3.716 -0.0528  0.0881  0.0606
 7447W        W 7447   1.252   5.558   4.558  0.1609  0.0513  0.3353
 7448W        W 7448   4.340   7.479   3.697 -0.0512  0.2482 -0.1853
 7449W        W 7449   4.961   9.096   0.745  0.0547 -0.3097 -0.2920
 7450W        W 7450   6.480   7.893  10.347  0.0322 -0.1837 -0.1436
 7451W        W 7451   8.302   2.445   0.276 -0.2298 -0.3267  0.0145
 7452W        W 7452   0.997   4.298   7.187 -0.1605 -0.2576 -0.1421
 7453W        W 7453   7.593   5.989   2.498 -0.3769 -0.1843  0.1759
 7454W        W 7454   7.096   6.141   4.483  0.4115  0.1615 -0.2585
 7455W        W 7455   4.992   7.524   8.948 -0.3105  0.2931  0.3761
 7456W        W 7456   1.588   6.884   5.264 -0.0770  0.0611  0.3953
 7457W        W 7457   1.527   6.325   5.469  0.0244 -0.0502  0.2085
 7458W        W 7458   4.154   9.589   7.264 -0.1928 -0.0534 -0.0096
 7459W        W 7459   4.567   8.697   9.836 -0.3098  0.1122 -0.1496
 7460W        W 7460   8.572   8.535   0.925 -0.1012  0.1144  0.3358
 7461W        W 7461   9.071   1.270   3.822  0.0405  0.0797 -0.1746
 7462W        W 7462   1.047   2.748   8.362 -0.0738 -0.0459  0.0860
 7463W        W 7463   3.809   9.773   1.286 -0.0346 -0.2059  0.0151
 7464W        W 7464   3.298   1.631   2.944  0.3002  0.6751  0.0067
 7465W        W 7465   1.360   8.578   8.215 -0.3491  0.1331 -0.0397
 7466W        W 7466  10.260   3.494   0.948 -0.1246 -0.0972 -0.2878
 7467W        W 7467   9.353   7.906   6.243  0.0549  0.0977  0.0772
 7468W        W 7468   2.149   9.167   3.103 -0.1843  0.1371  0.2030
 7469W        W 7469   3.394   0.486   0.022  0.0319 -0.0618 -0.4412
 7470W        W 7470   3.732   5.532   0.202 -0.3259  0.2112  0.0968
 7471W        W 7471   9.909   2.365   0.542  0.0065 -0.2620  0.3474
 7472W        W 7472   9.272   2.739   3.863 -0.1873  0.2666  0.3769
 7473W        W 7473   2.709   2.794  10.343 -0.1397 -0.0079  0.2015
 7474W        W 7474   7.857   7.326   0.693 -0.1595 -0.2861  0.0093
 7475W        W 7475   8.082  10.004   2.494  0.0174 -0.1450 -0.4251
 7476W        W 7476   9.401   4.167   6.582 -0.1274  0.0754 -0.3613
 7477W        W 7477   9.140   7.448   6.420  0.0455  0.1770 -0.0202
 7478W        W 7478   5.167   1.870   4.768  0.1624  0.0445  0.0245
 7479W        W 7479   4.930   8.733   8.776 -0.0094  0.0330  0.0404
 7480W        W 7480   6.270   6.560   2.682  0.0790 -0.0395 -0.2063
 7481W        W 7481   9.422   8.684   9.679 -0.2296 -0.0823 -0.0466
 7482W        W 7482   5.801   7.345   1.729 -0.2149 -0.1750 -0.0896
 7483W        W 7483   4.119   1.200   4.797  0.1063 -0.1464  0.0691
 7484W        W 7484   5.991   1.386   2.121  0.0045 -0.1200  0.0400
 7485W        W 7485   9.946   5.476   8.781 -0.1408  0.0740  0.2358
 7486W        W 7486   5.478   9.292   6.802 -0.0913 -0.0577 -0.0002
 7487W        W 7487   7.437   9.346   1.230 -0.1424  0.0143  0.2689
 7488W        W 7488   5.823   8.651   4.416  0.1172 -0.0698  0.2353
 7489W        W 7489   0.055   0.303   4.332 -0.2185  0.0346  0.1655
 7490W        W 7490   8.758   1.631  10.061 -0.2854 -0.0972  0.2708
 7491W        W 7491   3.870   5.540   6.647  0.1737  0.1969 -0.0207
 7492W        W 7492   5.944   0.811   9.727  0.0225 -0.1515  0.0429
 7493W        W 7493   6.372   6.647   4.798 -0.1113 -0.1227  0.2571
 7494W        W 7494   9.140   6.965   6.579 -0.1078  0.0452  0.1123
 7495W        W 7495   3.759   9.783   7.724  0.1108 -0.0469 -0.0165
 7496W        W 7496   4.468   7.682   8.672 -0.0436  0.1530 -0.0591
 7497W        W 7497   7.436   6.865   2.068  0.3812  0.2273  0.2199
 7498W        W 7498   6.695   7.793   1.828  0.1199 -0.0838  0.0112
 7499W        W 7499   3.345   3.922   4.498  0.0411 -0.0242  0.2020
 7500W        W 7500   7.327   4.641   0.881  0.3724 -0.1018 -0.0684
 7501W        W 7501   6.584   8.652   7.094 -0.0726 -0.1245 -0.1366
 7502W        W 7502   5.003   6.821   6.390 -0.4432  0.0929 -0.1091
 7503W        W 7503   8.988   1.723   0.148  0.1870  0.0385 -0.1773
 7504W        W 7504   4.414   2.384   2.145  0.0931 -0.1129  0.3138
 7505W        W 7505   2.965   9.005   6.352  0.0663  0.0108  0.2748
 7506W        W 7506   0.203   3.373   2.566  0.0115  0.2794  0.2905
 7507W        W 7507   2.158   3.247   3.111  0.0058  0.0025 -0.1386
 7508W        W 7508   1.882   7.223   8.313 -0.1862 -0.2552  0.1534
 7509W        W 7509   4.023   7.361   8.827 -0.2358  0.2006  0.0573
 7510W        W 7510   1.885   2.365   7.772 -0.1931  0.1893  0.0402
 7511W        W 7511   2.353   5.899   0.121  0.0303 -0.1516 -0.0828
 7512W        W 7512   3.220   5.636   3.993 -0.2891  0.0408  0.3857
 7513W        W 7513   0.521   2.221   6.151  0.3927  0.1439 -0.0527
 7514W        W 7514   3.918   5.660   2.532  0.0783  0.1781  0.0718
 7515W        W 7515   9.245   3.379   3.284  0.0005 -0.0381  0.1367
 7516W        W 7516   8.180   0.676   2.026 -0.0775 -0.2950 -0.2307
 7517W        W 7517   5.486   8.682   4.028 -0.1929 -0.1709 -0.0223
 7518W        W 7518   4.649   4.415   4.232 -0.0566  0.1819  0.0491
 7519W        W 7519   4.104   2.927   5.465  0.2444  0.0439  0.0073
 7520W        W 7520   6.203   4.562   4.623  0.0341 -0.2818 -0.1916
 7521W        W 7521   7.287   7.707   5.599 -0.1287 -0.2251 -0.0670
 7522W        W 7522   1.065   5.440   0.623  0.3765  0.0413  0.1772
 7523W        W 7523   5.206   6.211  10.034  0.1699  0.0787 -0.1725
 7524W        W 7524   9.237   5.423   6.676  0.1420  0.2303  0.1085
 7525W        W 7525   0.527   0.043   4.391  0.1722  0.0986 -0.1310
 7526W        W 7526   3.072   2.009   7.999  0.2458 -0.0496  0.0183
 7527W        W 7527   7.325   2.419   2.858 -0.1575 -0.1094 -0.0888
 7528W        W 7528   4.704   4.266   8.608 -0.1735  0.0416 -0.2895
 7529W        W 7529   2.889   8.086   4.998  0.0628 -0.0449 -0.0229
 7530W        W 7530   0.790   5.285   7.571  0.1673 -0.2341 -0.0205
 7531W        W 7531   6.055   5.674   0.021 -0.1653 -0.4464 -0.0281
 7532W        W 7532   6.542   2.455   9.269  0.1129 -0.3146 -0.2407
 7533W        W 7533   1.064   4.016   6.062 -0.0229 -0.3825 -0.3599
 7534W        W 7534   8.305   5.809   4.466  0.2094  0.2142 -0.0669
 7535W        W 7535   6.928   4.136   9.614  0.1075  0.1338 -0.0182
 7536W        W 7536   8.218   2.961   6.177  0.0330  0.0403  0.1733
 7537W        W 7537   0.562   0.211   5.265  0.2577  0.0840  0.2247
 7538W        W 7538   0.785   5.638   5.805 -0.2765  0.0699 -0.1702
 7539W        W 7539   5.120   9.233   5.329  0.0645  0.0835  0.0512
 7540W        W 7540   1.471   3.510   6.980 -0.1774  0.3011  0.0373
 7541W        W 7541   4.882   6.010   9.018 -0.3210  0.1515  0.0343
 7542W        W 7542   6.609   8.137   9.057  0.2091 -0.5506  0.0433
 7543W        W 7543   3.130   2.339  10.271 -0.1684  0.1091 -0.3855
 7544W        W 7544   6.969   1.970   8.233  0.0550 -0.0852 -0.2106
 7545W        W 7545   2.894   5.292   5.795 -0.0244 -0.1578  0.2664
 7546W        W 7546   7.829   4.571   2.851 -0.1899 -0.1378  0.1423
 7547W        W 7547   3.783   3.075   4.898 -0.2175  0.0789  0.2895
 7548W        W 7548   3.764   7.688   4.892  0.3112 -0.0072  0.0784
 7549W        W 7549   4.033   5.684   6.124 -0.0692 -0.0227 -0.0259
 7550W        W 7550   5.142   1.807   0.291 -0.3013 -0.1010 -0.0818
 7551W        W 7551   3.207   9.305   4.015 -0.1885  0.0293 -0.1358
 7552W        W 7552   7.023   8.181   5.835 -0.1244  0.0862 -0.0133
 7553W        W 7553   7.377   1.198   8.164 -0.2550 -0.0035  0.3123
 7554W        W 7554   9.645   5.998   2.074  0.2162 -0.4142  0.1819
 7555W        W 7555   3.444   8.279   0.040  0.0676 -0.2002  0.2104
 7556W        W 7556   3.680   7.886   6.864 -0.0574  0.2339 -0.0255
 7557W        W 7557   4.622   7.925   5.506 -0.1034 -0.1476 -0.0080
 7558W        W 7558   7.540   3.528   3.908  0.0595 -0.1168  0.1655
 7559W        W 7559   6.981   4.904  10.248 -0.0905 -0.0745 -0.1065
 7560W        W 7560   8.579   2.254   2.797 -0.2046 -0.0302 -0.1400
 7561W        W 7561   6.484   6.515   3.239  0.1280 -0.0657  0.0946
 7562W        W 7562   6.011   9.435   4.203 -0.1394  0.0231  0.0420
 7563W        W 7563  10.251   8.600   9.517 -0.4728  0.1670 -0.0443
 7564W        W 7564   2.978   6.748   0.466 -0.1501 -0.4155 -0.0417
 7565W        W 7565   5.252   5.925   8.665 -0.0871 -0.2019 -0.0610
 7566W        W 7566   6.529   8.300   6.318 -0.0230  0.2804  0.0861
 7567W        W 7567   1.747   3.238   4.265 -0.3227 -0.0545  0.1777
 7568W        W 7568   5.984   2.316   9.243  0.1305  0.1259 -0.2508
 7569W        W 7569   6.192   0.435   2.944  0.3429 -0.0120  0.1105
 7570W        W 7570   5.380   5.514   8.866  0.0177  0.1245 -0.3484
 7571W        W 7571   2.906   9.099   5.562  0.0542  0.1034  0.3873
 7572W        W 7572   0.762   6.647   5.884 -0.1272  0.0709 -0.0412
 7573W        W 7573   6.582   2.211   1.000  0.3073 -0.0071 -0.0740
 7574W        W 7574   1.127   7.000   6.479 -0.1003  0.4015 -0.0014
 7575W        W 7575   0.595   0.492   0.398  0.3102 -0.1289 -0.3662
 7576W        W 7576   2.074   3.294   9.681  0.1105  0.0496  0.0335
 7577W        W 7577   1.608   9.907   8.295 -0.3068  0.0858 -0.1362
 7578W        W 7578   3.073   4.511   3.106  0.3621 -0.1151  0.2189
 7579W        W 7579   0.247   2.457   8.690  0.0220  0.1019  0.1808
 7580W        W 7580   8.234   4.983   0.084 -0.1287  0.1425  0.0147
 7581W        W 7581   4.215   5.831   0.220  0.2742  0.2688 -0.0869
 7582W        W 7582   2.019   9.152   8.165  0.0897 -0.0929  0.2465
 7583W        W 7583   1.023   1.952   1.832 -0.0353  0.0478 -0.2690
 7584W        W 7584   2.796   8.162   1.211  0.2048  0.1853 -0.2421
 7585W        W 7585   3.637   8.016   3.874 -0.1761 -0.1458 -0.0089
 7586W        W 7586   6.889   9.130   6.230 -0.2314 -0.4304  0.0244
 7587W        W 7587   9.025   3.046   0.395 -0.1928 -0.2768 -0.0712
 7588W        W 7588   2.546   0.270   8.606 -0.0991  0.0119  0.3513
 7589W        W 7589   5.416   7.016   5.011 -0.0730  0.0492  0.1851
 7590W        W 7590   2.246   2.660   0.232  0.2101 -0.2480  0.3555
 7591W        W 7591   2.695   3.290   5.889  0.3815  0.1102 -0.2686
 7592W        W 7592   9.527   3.337   9.748  0.0751 -0.1131 -0.1057
 7593W        W 7593   2.734   9.434   0.328  0.0152 -0.0748  0.1997
 7594W        W 7594   5.399   8.296   1.063  0.2120 -0.0769  0.0601
 7595W        W 7595   7.895   7.060   9.320 -0.0080  0.0523  0.2206
 7596W        W 7596   0.879   3.290   1.342  0.0133 -0.1370  0.1432
 7597W        W 7597   3.497   2.951   0.105 -0.0516 -0.3308  0.1091
 7598W        W 7598   6.281   2.550   1.240  0.1734  0.2526  0.2323
 7599W        W 7599   2.563   2.198   8.947  0.0318 -0.1616 -0.0387
 7600W        W 7600   0.377   9.453   5.192 -0.0600  0.2224  0.0888
 7601W        W 7601   9.417   2.184   5.681 -0.2004 -0.1922  0.1120
 7602W        W 7602  10.328   6.114   5.387  0.0140 -0.0176 -0.0628
 7603W        W 7603   7.121   7.049   5.298  0.0635  0.0693 -0.0532
 7604W        W 7604   2.609   0.256   9.182 -0.0220  0.1793  0.1480
 7605W        W 7605  10.312   3.291  10.203  0.1042 -0.3978 -0.3461
 7606W        W 7606   8.803   4.098   0.493  0.3429 -0.0309 -0.3771
 7607W        W 7607   3.798   5.767   0.658  0.0107  0.2573 -0.1362
 7608W        W 7608   8.713   2.125   2.302 -0.1359  0.0043  0.2648
 7609W        W 7609   7.124   3.067   3.902  0.0579  0.5302  0.1088
 7610W        W 7610   3.995   5.126   3.777 -0.2222  0.0295 -0.2505
 7611W        W 7611   7.727   3.084   2.122  0.1888 -0.4920 -0.3080
 7612W        W 7612   6.392   6.665   7.025 -0.0650  0.3528  0.1482
 7613W        W 7613   8.976   9.464   5.212 -0.0246 -0.1821  0.0753
 7614W        W 7614   3.928   9.636   2.824 -0.1859 -0.2941 -0.1847
 7615W        W 7615   1.320   6.151  10.302  0.4199 -0.1086  0.2300
 7616W        W 7616   1.829   3.962   0.330 -0.0531 -0.0563  0.0042
 7617W        W 7617   5.939   8.311   4.725 -0.3172 -0.2082  0.2596
 7618W        W 7618   5.689   9.786   2.281  0.0139 -0.1274 -0.0994
 7619W        W 7619   3.319   9.780   7.557 -0.0478  0.3084  0.1820
 7620W        W 7620   9.720   4.970   3.761  0.3112 -0.1969  0.2131
 7621W        W 7621   3.567   4.452   3.337  0.0707 -0.3062  0.0659
 7622W        W 7622   6.162   8.642   2.676 -0.1992  0.0975 -0.3718
 7623W        W 7623   5.246   4.705   2.770 -0.1236 -0.0074 -0.1656
 7624W        W 7624   8.400   0.210   6.896 -0.4473 -0.0133 -0.1605
 7625W        W 7625   1.200   4.181  10.030 -0.2876 -0.1604  0.0522
 7626W        W 7626   0.252   8.431   5.356  0.0779  0.0353  0.4955
 7627W        W 7627   9.279   6.483   3.391  0.0567  0.3591 -0.0221
 7628W        W 7628   2.112   9.306   1.056 -0.1198  0.0104  0.0623
 7629W        W 7629   6.889   3.721   3.123 -0.3042 -0.1363 -0.1720
 7630W        W 7630   2.849   2.466   4.399  0.3761 -0.2244  0.0913
 7631W        W 7631   6.831   9.769   8.915 -0.2299  0.1066 -0.1472
 7632W        W 7632   8.873   0.286   3.489  0.3664 -0.0245 -0.1081
 7633W        W 7633   0.537   4.474   3.457 -0.0568  0.0602 -0.0999
 7634W        W 7634   6.123   2.983   4.102  0.0343 -0.2103  0.0909
 7635W        W 7635   5.882   7.162   8.037  0.1279 -0.5972 -0.0027
 7636W        W 7636   5.831   3.281   5.644 -0.2642  0.0111  0.1844
 7637W        W 7637   4.550   2.452   5.695  0.0893  0.2159 -0.0662
 7638W        W 7638   5.505   9.990   1.816  0.0867  0.1818 -0.3783
 7639W        W 7639   1.010   6.501   8.005 -0.1009 -0.1352 -0.0389
 7640W        W 7640   0.278   7.550   4.282 -0.1635  0.1862 -0.1707
 7641W        W 7641   4.053   9.319   7.926 -0.2007  0.2295  0.0771
 7642W        W 7642   6.496   4.888   9.914 -0.2400 -0.0334 -0.0929
 7643W        W 7643   3.143   2.632   7.059  0.1219  0.0937 -0.1132
 7644W        W 7644  10.038   5.770   3.637  0.1112  0.0049 -0.0453
 7645W        W 7645   1.033   5.680   7.284  0.0051  0.4577  0.0949
 7646W        W 7646   4.348   9.300   0.093 -0.0515 -0.0604  0.1324
 7647W        W 7647   3.217   8.336   9.850  0.1935  0.0429 -0.0085
 7648W        W 7648   7.947   5.505   5.278  0.3442  0.2110  0.5083
 7649W        W 7649   7.439   8.491   1.921 -0.1842 -0.1436  0.0450
 7650W        W 7650  10.093   8.412   3.518 -0.0930  0.0766  0.0429
 7651W        W 7651   5.679   0.356   4.890 -0.0012  0.0054 -0.3426
 7652W        W 7652   0.188   8.323   4.832 -0.2017 -0.0334  0.1030
 7653W        W 7653   5.369   2.995   4.322  0.0723  0.1223  0.1480
 7654W        W 7654   3.344   6.192   7.381  0.3117 -0.3228 -0.0429
 7655W        W 7655   3.831   6.467   2.859 -0.0379 -0.0271  0.0781
 7656W        W 7656   3.203   5.184   4.991 -0.1625 -0.0744 -0.4075
 7657W        W 7657   1.288   7.495   5.725 -0.0246  0.0594  0.1136
 7658W        W 7658   9.942   6.835   4.438 -0.0835 -0.0994 -0.0754
 7659W        W 7659   2.460   1.352   5.054 -0.0380  0.0897 -0.0725
 7660W        W 7660   3.164   2.078   5.294  0.1765 -0.5104  0.6002
 7661W        W 7661   1.777   6.143   0.757 -0.0747 -0.0256  0.0590
 7662W        W 7662   0.501   8.081   3.009  0.0585 -0.2249 -0.4066
 7663W        W 7663   9.625   2.911   7.726  0.0104 -0.1454  0.0600
 7664W        W 7664   9.212   1.342   9.986  0.0319 -0.3220  0.1474
 7665W        W 7665   2.655   7.605   2.832 -0.0267 -0.0458  0.0369
 7666W        W 7666   2.113   7.549   1.076 -0.2635  0.3224 -0.0872
 7667W        W 7667   9.850   5.223   7.825 -0.1255 -0.1625 -0.2903
 7668W        W 7668   1.532   9.865   9.118  0.0608  0.0865  0.0113
 7669W        W 7669   9.127   1.086   2.007  0.5014  0.0635 -0.1116
 7670W        W 7670   3.154   2.836   9.999  0.1134 -0.1127 -0.0849
 7671W        W 7671   4.822   2.424   4.292  0.1758  0.1075  0.0715
 7672W        W 7672   0.204   8.397   1.315  0.0205 -0.0718  0.1403
 7673W        W 7673   0.552   9.126   0.968  0.0756  0.3087  0.1165
 7674W        W 7674   8.578   9.822   5.329  0.0317 -0.0785 -0.1453
 7675W        W 7675   2.628  10.027   3.076  0.4032  0.1052 -0.1303
 7676W        W 7676  10.328   5.502   7.127 -0.0241  0.1842  0.2593
 7677W        W 7677   2.719   7.185   4.774  0.1831  0.1300  0.1799
 7678W        W 7678   5.117   0.021   4.439  0.0431  0.4206 -0.1472
 7679W        W 7679   2.406   9.238   3.558  0.5690  0.0251 -0.0549
 7680W        W 7680   9.262   6.995   7.676 -0.1823  0.3085  0.2073
 7681W        W 7681   3.877   2.120   1.349  0.3120 -0.1610 -0.1058
 7682W        W 7682   7.443   9.504   0.321  0.1171 -0.3320 -0.2273
 7683W        W 7683   7.484   4.229   2.738  0.0149  0.1771 -0.0018
 7684W        W 7684   7.122   3.761   3.680  0.0233 -0.1692  0.2196
 7685W        W 7685   6.166  10.220   9.237  0.1862 -0.3986 -0.0123
 7686W        W 7686   5.294   4.869   6.957 -0.2230 -0.1936 -0.2392
 7687W        W 7687   5.250   9.212   8.683 -0.0779 -0.0261  0.1008
 7688W        W 7688   0.564   4.173   0.662  0.0614  0.1763 -0.1226
 7689W        W 7689   6.917  10.055   2.732 -0.4216  0.1267 -0.2104
 7690W        W 7690   6.865   3.262   6.022 -0.4004  0.1681  0.2141
 7691W        W 7691   5.791   3.003   8.923  0.0247 -0.3246  0.0186
 7692W        W 7692   0.498   6.239   7.234  0.2433  0.1690 -0.3235
 7693W        W 7693   8.684   6.353   3.480 -0.1269 -0.0018 -0.1577
 7694W        W 7694   6.370   4.747   9.375 -0.2371 -0.0469 -0.0923
 7695W        W 7695   2.392   9.705   1.181  0.1233  0.2022  0.2957
 7696W        W 7696   0.703  10.194   2.594  0.1672  0.0465  0.2292
 7697W        W 7697   7.135   9.853   6.355  0.0978  0.1077  0.0210
 7698W        W 7698   6.334   7.588   7.468  0.0350  0.0776 -0.0842
 7699W        W 7699   7.951   0.131   7.685 -0.2488  0.2270 -0.4607
 7700W        W 7700   6.404   2.456   5.481 -0.1686  0.2122  0.2697
 7701W        W 7701   8.314  10.155   6.392  0.2310 -0.2121  0.4069
 7702W        W 7702   0.081   6.776   9.087  0.0224  0.2480  0.1295
 7703W        W 7703   2.935   3.609   0.832 -0.3167  0.0782 -0.1535
 7704W        W 7704   4.483   3.834   5.821 -0.0059 -0.0416  0.0146
 7705W        W 7705   2.274   1.220   1.391  0.1267  0.1894  0.0495
 7706W        W 7706   8.951   1.458   8.853 -0.1195 -0.1511 -0.0803
 7707W        W 7707   3.189   5.377   2.235  0.1966  0.2035 -0.1095
 7708W        W 7708  10.349  10.346   5.749 -0.1079 -0.4323 -0.0049
 7709W        W 7709   9.536   7.601  10.182  0.2928 -0.2115  0.0865
 7710W        W 7710   3.275   9.048   3.629  0.2294 -0.0892 -0.2173
 7711W        W 7711   5.525   6.911  10.075  0.1472 -0.1858  0.0863
 7712W        W 7712   4.097   4.567   4.041 -0.0185  0.0634  0.0337
 7713W        W 7713   1.964   1.683   5.630 -0.2865  0.1743  0.0662
 7714W        W 7714   0.811   2.750   7.557  0.0861 -0.0501 -0.2577
 7715W        W 7715   0.317   7.331   1.398 -0.2184 -0.3553  0.0148
 7716W        W 7716   0.818   5.784   7.835 -0.1182  0.1617  0.0407
 7717W        W 7717   9.798   9.318   3.206 -0.0180  0.1132 -0.2592
 7718W        W 7718   1.005   3.166  10.007 -0.0068 -0.1576 -0.0523
 7719W        W 7719  10.109   1.747   4.231  0.1447 -0.1417  0.1138
 7720W        W 7720   8.169   9.740   3.606 -0.0275  0.1109 -0.0611
 7721W        W 7721   6.605   0.280   1.975  0.0743 -0.0940 -0.4162
 7722W        W 7722   3.351   3.497   1.124 -0.0154 -0.0227 -0.0415
 7723W        W 7723   9.320   1.605   6.021  0.0754 -0.1865  0.1999
 7724W        W 7724   5.752   5.025   7.143 -0.2226  0.0385  0.0033
 7725W        W 7725   6.592   6.989   2.513 -0.1117  0.2071  0.0404
 7726W        W 7726   7.978   8.433   3.428  0.0727 -0.0642 -0.3487
 7727W        W 7727   6.538   8.091   7.104 -0.2071  0.1025  0.0211
 7728W        W 7728   5.993   5.392   9.783 -0.0649  0.0447 -0.0299
 7729W        W 7729   8.812   6.855   3.863  0.1865 -0.1286 -0.1171
 7730W        W 7730   6.056   6.465   1.583  0.2532 -0.1451 -0.0827
 7731W        W 7731   3.015   9.214   3.242 -0.0947 -0.6866  0.1789
 7732W        W 7732   6.857   5.388   1.466 -0.0252  0.2551  0.0171
 7733W        W 7733   9.983   1.385   9.343 -0.0319  0.0722 -0.1636
 7734W        W 7734   4.126   8.984   6.136 -0.0688  0.2249 -0.0423
 7735W        W 7735   8.543   9.659  10.116 -0.0684 -0.0536 -0.1293
 7736W        W 7736   7.128   9.224  10.099  0.0653 -0.2394  0.0193
 7737W        W 7737   6.147   7.786   1.839 -0.2403  0.4636  0.1473
 7738W        W 7738   4.082   3.513   8.295  0.0742  0.1237  0.0959
 7739W        W 7739   3.382   2.838   5.899 -0.0966 -0.0610  0.0870
 7740W        W 7740   5.421   7.625   3.140 -0.1275 -0.0901 -0.0513
 7741W        W 7741   5.928   2.381   3.296  0.1741 -0.2984 -0.3648
 7742W        W 7742   7.705   1.755   9.397  0.2795 -0.0627  0.0194
 7743W        W 7743   9.916   4.121  10.255  0.2285  0.2699 -0.1527
 7744W        W 7744   9.696   5.479   3.771  0.2126  0.0419 -0.0099
 7745W        W 7745   7.546   3.563   0.923  0.0438  0.0218 -0.1723
 7746W        W 7746   0.898   2.179   9.234 -0.1511 -0.1166 -0.0501
 7747W        W 7747   2.009   6.592   5.922  0.2957  0.0994 -0.1172
 7748W        W 7748   9.847   3.620   0.730 -0.0441  0.2264  0.1551
 7749W        W 7749   6.910   5.172   0.650 -0.2926 -0.1836 -0.0815
 7750W        W 7750   4.882   8.877   1.778  0.1650  0.0810  0.0450
 7751W        W 7751   7.289   3.729   5.816 -0.0304 -0.1027  0.1606
 7752W        W 7752   9.820   8.397   9.544 -0.3086 -0.1184  0.3030
 7753W        W 7753   8.403   8.253   9.359 -0.1573  0.2282  0.3887
 7754W        W 7754   8.552   8.837   8.720  0.2381  0.1450 -0.2643
 7755W        W 7755   9.109   0.480   7.963  0.3197  0.0309 -0.0332
 7756W        W 7756   9.667   7.440   9.205  0.2970  0.2532 -0.0597
 7757W        W 7757   5.054   5.050   1.949 -0.0530 -0.2136 -0.0092
 7758W        W 7758   0.533   7.378   9.271  0.1920 -0.4327 -0.0050
 7759W        W 7759   8.464   7.853   0.939 -0.2226  0.3025 -0.0764
 7760W        W 7760   8.816   3.860   9.991  0.2839 -0.1359  0.0175
 7761W        W 7761   6.392   9.236   9.420 -0.4033 -0.2446 -0.2998
 7762W        W 7762   5.339   1.601   4.367 -0.0111 -0.1319 -0.0904
 7763W        W 7763   9.272   0.884   1.186  0.2308 -0.1125  0.0357
 7764W        W 7764   3.400   6.126   5.698 -0.2784 -0.1300  0.2953
 7765W        W 7765   7.333   4.481   1.832  0.0590 -0.0614  0.0792
 7766W        W 7766   9.304   5.700   8.488 -0.0260  0.1647  0.1766
 7767W        W 7767   1.112   9.152   4.067 -0.1167 -0.2343 -0.2430
 7768W        W 7768   1.885   0.715   3.542  0.0269  0.2310 -0.1479
 7769W        W 7769   1.354   4.604  10.343 -0.0865  0.1861  0.0187
 7770W        W 7770   6.898   5.200   6.165 -0.0067  0.0895  0.0114
 7771W        W 7771   1.959   9.523   4.801 -0.1165  0.0222 -0.0726
 7772W        W 7772   9.286   1.447   3.307  0.0273  0.0316 -0.0929
 7773W        W 7773   2.621   6.542   9.323  0.1617  0.2741 -0.0701
 7774W        W 7774   5.443   7.242   1.246 -0.0417 -0.0345  0.2252
 7775W        W 7775   4.304   1.774   6.312  0.1958  0.1059  0.0949
 7776W        W 7776   0.287   3.326   4.441  0.0693 -0.1019 -0.0375
 7777W        W 7777   2.533   1.184   8.671 -0.1185 -0.2427 -0.0842
 7778W        W 7778   6.087   7.237   0.563  0.0615 -0.1370  0.1520
 7779W        W 7779   2.851   3.484   6.900 -0.2271  0.3668  0.0747
 7780W        W 7780   3.506   2.214   7.215 -0.3725  0.1727 -0.0831
 7781W        W 7781   5.718   4.864   8.814 -0.1374  0.2583 -0.1101
 7782W        W 7782   9.814   8.750   7.512  0.0222 -0.1435  0.0588
 7783W        W 7783   5.726   8.408   2.590  0.0592 -0.2058  0.0531
 7784W        W 7784   6.076   6.931   1.797  0.1213 -0.2215  0.1307
 7785W        W 7785   8.476   6.343  10.225  0.1520 -0.1840  0.0589
 7786W        W 7786   6.360   2.633   4.370  0.3719  0.1020 -0.1985
 7787W        W 7787   0.831   9.883   3.752 -0.0470  0.3177  0.1340
 7788W        W 7788   5.967   6.251   7.810 -0.3388 -0.2094 -0.1760
 7789W        W 7789   5.896  10.309   6.265 -0.3645 -0.4385  0.0075
 7790W        W 7790   4.389   0.193   3.774  0.0305  0.0264  0.2419
 7791W        W 7791   0.865   0.546   9.787  0.3034 -0.1444 -0.0173
 7792W        W 7792   3.979   4.936   7.788  0.2135 -0.1648  0.0142
 7793W        W 7793   6.921   2.734   9.460  0.2935 -0.1731 -0.0485
 7794W        W 7794   9.601   5.158   0.714 -0.1158  0.2844 -0.2209
 7795W        W 7795   5.389   3.843   7.457  0.2884  0.0935 -0.0448
 7796W        W 7796   5.572   6.382   6.512  0.1601 -0.0405 -0.0429
 7797W        W 7797   5.029   4.138   0.575 -0.2946  0.2482 -0.0121
 7798W        W 7798   7.859   6.392   5.148 -0.1607 -0.1240 -0.2104
 7799W        W 7799   9.766   2.671   0.960  0.1247 -0.0125 -0.0902
 7800W        W 7800   3.179   2.973   4.912  0.2616  0.4618  0.2504
 7801W        W 7801   4.425   7.941  10.337 -0.1114 -0.0686  0.1675
 7802W        W 7802   1.396   3.647   6.053 -0.0115 -0.1293  0.1996
 7803W        W 7803   4.349   3.837   1.215 -0.4798 -0.2391  0.2136
 7804W        W 7804   6.654   7.610   9.236 -0.1100 -0.1616 -0.2846
 7805W        W 7805   6.124   6.007   1.175  0.1300  0.1407  0.0270
 7806W        W 7806   9.265   6.251   8.418  0.1406  0.1607 -0.1045
 7807W        W 7807   8.647   7.352   2.867  0.0016  0.1849 -0.1612
 7808W        W 7808   7.359   6.582   5.112 -0.0050  0.1614 -0.0099
 7809W        W 7809   8.033   5.055   3.048 -0.0465 -0.2765 -0.0799
 7810W        W 7810   8.779   4.931   3.670  0.0579  0.0224 -0.0553
 7811W        W 7811   2.406   1.808   0.040 -0.1498  0.1810 -0.0594
 7812W        W 7812   5.313   1.399   9.775  0.1124  0.1789  0.0344
 7813W        W 7813   9.388   0.925   6.236  0.0986 -0.1502  0.0585
 7814W        W 7814   9.922   3.057   4.918 -0.2714 -0.0260 -0.1691
 7815W        W 7815   1.320   1.669   3.696 -0.1135  0.0171  0.1853
 7816W        W 7816   8.056   2.498   5.539 -0.1088  0.3063  0.2556
 7817W        W 7817   0.757   0.640   8.266 -0.3912 -0.2200 -0.1530
 7818W        W 7818   3.593   6.756   0.540 -0.2889  0.0444 -0.0699
 7819W        W 7819  10.182   7.956   9.887 -0.0687 -0.0844 -0.3682
 7820W        W 7820   4.285   5.737   5.165 -0.2096  0.1481  0.0863
 7821W        W 7821   7.493   4.955   2.007 -0.1997  0.6004  0.1206
 7822W        W 7822   8.713   4.515   5.971 -0.2232  0.1129 -0.1541
 7823W        W 7823   3.578  10.071   4.562  0.1062 -0.0849  0.0976
 7824W        W 7824   1.469   7.851   2.889 -0.1519  0.0461  0.0364
 7825W        W 7825   8.032   4.042   9.397  0.1978 -0.1618  0.2134
 7826W        W 7826  10.297   8.115   9.374 -0.1671 -0.0719 -0.1338
 7827W        W 7827   0.700   4.382  10.155  0.0547  0.2647 -0.3260
 7828W        W 7828   2.119   6.825  10.028 -0.1918 -0.1913  0.0144
 7829W        W 7829   3.355   8.398   5.107 -0.3418  0.0423  0.0792
 7830W        W 7830   0.042  10.008   9.456 -0.1085  0.4405 -0.0028
 7831W        W 7831   0.788   7.736   9.082  0.1290 -0.0329 -0.1102
 7832W        W 7832   8.185   0.459  10.103 -0.2548 -0.1197 -0.1222
 7833W        W 7833   5.665   8.973  10.031 -0.2580  0.1445  0.2209
 7834W        W 7834   1.895   3.681   2.878 -0.2770 -0.0086 -0.1026
 7835W        W 7835   8.257   3.394   5.015 -0.2557 -0.0835 -0.1671
 7836W        W 7836   9.364   3.341   5.975 -0.1464  0.4803 -0.0057
 7837W        W 7837   4.021   2.932   2.549 -0.0443 -0.0258  0.3063
 7838W        W 7838   7.022   2.747   6.010 -0.4879  0.0559 -0.0557
 7839W        W 7839   3.853   8.123   4.377  0.1410  0.3746  0.1955
 7840W        W 7840   7.831   8.832   9.313  0.1317 -0.0900 -0.1637
 7841W        W 7841   1.022   5.131   4.559 -0.2533  0.0266  0.2917
 7842W        W 7842   4.750   7.695   6.623  0.0963  0.5208  0.0743
 7843W        W 7843   0.086   4.508   7.736  0.0734  0.1171 -0.2339
 7844W        W 7844  10.194   9.851   2.043 -0.1573  0.1638  0.0268
 7845W        W 7845   9.172   6.369   5.508  0.0442  0.2018  0.5057
 7846W        W 7846   0.269  10.267   6.140 -0.2476  0.2397  0.1706
 7847W        W 7847   6.213   2.686   2.253  0.2772  0.0443 -0.1261
 7848W        W 7848   2.040   3.522   3.950 -0.1709 -0.0530 -0.0825
 7849W        W 7849   3.770   8.531   5.437  0.0450 -0.1382  0.1875
 7850W        W 7850   9.516   0.540   7.693 -0.1474  0.6672 -0.0132
 7851W        W 7851   6.989   5.319   6.782  0.0803 -0.0502 -0.1893
 7852W        W 7852   5.382   3.223   6.124  0.1509 -0.1299 -0.0482
 7853W        W 7853   7.882   4.839  10.147  0.0423  0.0744  0.1066
 7854W        W 7854   7.625   3.605   9.353 -0.3611  0.0753 -0.1214
 7855W        W 7855   8.146   0.127   4.276  0.1031  0.1919 -0.1101
 7856W        W 7856   4.100   4.494   5.265  0.4059  0.0566 -0.0125
 7857W        W 7857  10.260   0.242   3.352 -0.1053  0.0597 -0.0201
 7858W        W 7858   0.305   2.595   0.880 -0.0025 -0.0548 -0.1135
 7859W        W 7859   9.715   1.378   3.566  0.2284  0.2720 -0.1849
 7860W        W 7860   3.647  10.119   5.931  0.0721  0.3170  0.0924
 7861W        W 7861   3.184   2.400   9.716 -0.2182 -0.0938  0.1965
 7862W        W 7862   2.525  10.168   9.565 -0.1999  0.0240  0.2898
 7863W        W 7863   6.616   3.694   3.593 -0.1312  0.0595 -0.0908
 7864W        W 7864   3.561   2.919   5.331  0.0494  0.0439 -0.0544
 7865W        W 7865   8.241   3.508   0.750  0.1236 -0.0064 -0.1993
 7866W        W 7866   0.730   7.515   0.546  0.1005 -0.0040  0.0170
 7867W        W 7867   3.543   2.534   4.988  0.0090  0.0001 -0.1601
 7868W        W 7868   8.449  10.224   1.956  0.1407  0.0207 -0.2066
 7869W        W 7869   7.532   6.264   5.440 -0.1919 -0.0201 -0.1096
 7870W        W 7870   8.131   0.878   5.694 -0.0965 -0.1856  0.0796
 7871W        W 7871   3.878   3.439   5.225  0.1098 -0.1216 -0.1991
 7872W        W 7872   8.334   1.036   6.358  0.1537  0.2928 -0.1226
 7873W        W 7873  10.030   1.532   8.315 -0.0454 -0.2823  0.1051
 7874W        W 7874   8.375   2.170   8.551  0.1479  0.1576 -0.3888
 7875W        W 7875   7.312   2.120   3.431 -0.1005 -0.0552  0.0311
 7876W        W 7876   8.130   8.350   0.650 -0.2871  0.0276  0.2093
 7877W        W 7877   4.022   9.134   1.975  0.1156 -0.0997 -0.3127
 7878W        W 7878   7.563   7.328   1.084  0.0226  0.2246  0.1955
 7879W        W 7879   8.342   5.375   6.239 -0.2005 -0.0935  0.2087
 7880W        W 7880   0.985   3.799   6.950 -0.1651  0.2346  0.1380
 7881W        W 7881   0.340   7.871   6.857  0.2367  0.0329 -0.2862
 7882W        W 7882   0.849   0.976   0.310 -0.1578 -0.3518 -0.3396
 7883W        W 7883   1.312   4.935   5.838  0.2630 -0.1667 -0.1609
 7884W        W 7884   8.261   4.790   4.807 -0.0873  0.3028  0.4481
 7885W        W 7885   2.446   8.841   0.892 -0.1544 -0.2400 -0.2972
 7886W        W 7886   9.234  10.152   4.710 -0.5618 -0.0577 -0.0976
 7887W        W 7887   8.933   0.784   2.536 -0.0562 -0.0614  0.1277
 7888W        W 7888   1.981   1.833   0.742 -0.2435 -0.0657  0.1414
 7889W        W 7889   2.000   2.048   1.651 -0.3527 -0.0129  0.1388
 7890W        W 7890   2.386   1.782   1.448 -0.0997 -0.2592  0.0671
 7891W        W 7891   4.316   6.608   9.415 -0.1574  0.0467 -0.0318
 7892W        W 7892   3.671   3.834   8.214  0.1162  0.3290  0.1227
 7893W        W 7893   6.607   4.337   8.133 -0.1095 -0.2168  0.1739
 7894W        W 7894   8.648   6.781   8.296  0.0844  0.0137 -0.0727
 7895W        W 7895   1.060   2.901   5.734 -0.2002  0.1216 -0.2508
 7896W        W 7896   7.204   7.244   0.102  0.0342 -0.3243  0.0573
 7897W        W 7897   0.136   2.791   9.662  0.1827 -0.0631 -0.0765
 7898W        W 7898   2.694   2.285   6.780  0.1853 -0.0532  0.3429
 7899W        W 7899   1.197   5.466   6.392  0.1198  0.0177  0.2559
 7900W        W 7900   3.392   2.109   4.381 -0.2055 -0.0553  0.0869
 7901W        W 7901   9.646   8.377   6.569  0.2026 -0.0045  0.0260
 7902W        W 7902   0.594   9.598   8.809  0.0643  0.0226 -0.0610
 7903W        W 7903   9.771   7.335   4.648  0.0934  0.1728  0.1483
 7904W        W 7904   9.734   2.246   9.300 -0.2514  0.2416 -0.2718
 7905W        W 7905   1.202   7.701   9.340 -0.3864 -0.2571 -0.2422
 7906W        W 7906   1.968   7.221   7.241 -0.0174  0.3603 -0.0608
 7907W        W 7907   4.225   0.688   3.869  0.1232 -0.0565  0.1302
 7908W        W 7908   0.836   0.774   5.820 -0.0609  0.1209 -0.0286
 7909W        W 7909   0.744   2.863   1.744  0.0966  0.0259  0.1490
 7910W        W 7910   1.631   6.393   3.396  0.1868 -0.1519 -0.0924
 7911W        W 7911   7.762   5.574   1.426  0.3315 -0.0919  0.2241
 7912W        W 7912   3.716   3.238   1.919  0.0704  0.0500  0.0989
 7913W        W 7913   1.180   5.835   3.002 -0.1773 -0.1517  0.1177
 7914W        W 7914   3.516   5.338   0.803  0.1420 -0.0562  0.1514
 7915W        W 7915   9.117   3.370   1.463  0.2339 -0.1471 -0.2058
 7916W        W 7916   6.859   0.679   7.715 -0.0531 -0.3341  0.2554
 7917W        W 7917   3.561   7.464   5.754 -0.1318 -0.0584 -0.3938
 7918W        W 7918   7.980   3.468   2.730  0.1688  0.0789 -0.2689
 7919W        W 7919   0.057   5.053   1.498  0.0643 -0.1867 -0.2431
 7920W        W 7920   2.315   1.026   7.512 -0.2601 -0.3497  0.2378
 7921W        W 7921   1.197   7.625   7.786 -0.4508 -0.1174 -0.0808
 7922W        W 7922   2.693   7.977   4.006 -0.0712  0.0307  0.2812
 7923W        W 7923   5.237   9.712   6.648  0.3254 -0.0818 -0.2409
 7924W        W 7924   9.042   3.316   7.475 -0.0132 -0.1402 -0.0051
 7925W        W 7925   9.035   8.790   1.816  0.0284 -0.2363  0.0993
 7926W        W 7926   8.028   1.737   2.860 -0.1691  0.2488 -0.1341
 7927W        W 7927   6.041   2.159   4.450  0.0103 -0.3161  0.1846
 7928W        W 7928   9.100   2.053   1.067  0.0270 -0.0360 -0.0060
 7929W        W 7929   4.991   7.364   4.863 -0.0308 -0.1039  0.1269
 7930W        W 7930   0.313   4.590   0.674 -0.1166  0.2162  0.1634
 7931W        W 7931   9.416   6.410   4.243  0.0335 -0.0178  0.2687
 7932W        W 7932   7.537   1.882   1.839  0.2452 -0.0189 -0.2194
 7933W        W 7933   5.497   4.685   8.360  0.3375 -0.0916 -0.0521
 7934W        W 7934   5.906   0.713   8.477 -0.1534 -0.1731  0.1149
 7935W        W 7935   4.254   7.906   6.873  0.1680 -0.0537 -0.1012
 7936W        W 7936   7.931   1.865   0.317 -0.1225 -0.1018  0.1180
 7937W        W 7937   9.605   7.413   7.764 -0.0760 -0.0906  0.3317
 7938W        W 7938   7.529   3.710  10.183 -0.2238 -0.2360 -0.1035
 7939W        W 7939   0.568   1.320   3.541  0.2429  0.0912  0.2046
 7940W        W 7940   7.086   2.436   3.727  0.0581 -0.1006 -0.2126
 7941W        W 7941   7.131   6.936   9.849  0.1006 -0.0549 -0.1414
 7942W        W 7942   7.685   0.438   2.953  0.1525  0.1238  0.0710
 7943W        W 7943   9.825   3.330   6.249 -0.0930  0.1286 -0.2545
 7944W        W 7944  10.204   1.972   8.453  0.4813 -0.0403  0.2211
 7945W        W 7945   7.425   8.438   4.364 -0.3295  0.1993 -0.4074
 7946W        W 7946   6.598   6.547   1.660 -0.4325  0.0395 -0.0237
 7947W        W 7947   4.467   0.718   8.322 -0.2502 -0.2514  0.1167
 7948W        W 7948   4.617   0.354   2.274 -0.2097 -0.1141 -0.0542
 7949W        W 7949   0.399   1.364   4.069 -0.0797  0.1169  0.0112
 7950W        W 7950   6.138   8.787   8.521  0.0652 -0.1177  0.1431
 7951W        W 7951   5.436   8.513   8.950  0.1418 -0.1266  0.1966
 7952W        W 7952   5.185   3.293   9.280  0.1377 -0.0126 -0.2049
 7953W        W 7953   9.827   1.094   6.633 -0.1148  0.0870  0.3828
 7954W        W 7954   2.470   5.389   1.197 -0.1402 -0.1215 -0.2951
 7955W        W 7955   6.083   8.557   9.976  0.3318  0.3615 -0.0586
 7956W        W 7956   0.612   1.114   9.128  0.0963 -0.1203 -0.0604
 7957W        W 7957   4.198   4.773   1.032 -0.2063 -0.1967  0.0390
 7958W        W 7958   3.257   0.263   9.936 -0.0768  0.4572  0.0188
 7959W        W 7959   7.982   8.723   4.159  0.0939  0.2289 -0.1433
 7960W        W 7960   4.367  10.329   9.166 -0.0456  0.0042 -0.2816
 7961W        W 7961   5.514   7.366   8.500  0.2446 -0.1621 -0.0122
 7962W        W 7962   6.309   3.093   4.830  0.0402  0.0530  0.4442
 7963W        W 7963   2.969   2.148   7.145  0.0686  0.0374 -0.0490
 7964W        W 7964   0.392   4.619   5.026  0.0373 -0.1292  0.1780
 7965W        W 7965   7.768   6.800  10.191  0.1045  0.0602 -0.1851
 7966W        W 7966   7.249   6.837   2.742 -0.0010 -0.1090 -0.1010
 7967W        W 7967   2.275   9.141   4.331 -0.0734 -0.0119 -0.2303
 7968W        W 7968   9.312   3.770   8.296 -0.1095 -0.0371 -0.1393
 7969W        W 7969   7.360   8.979   7.992 -0.2544  0.2433 -0.0450
 7970W        W 7970   5.109   7.305   0.365 -0.0461  0.2817  0.5853
 7971W        W 7971   5.983   2.705   4.714  0.0103 -0.0404  0.0046
 7972W        W 7972   0.374   4.744   8.796 -0.2424  0.2623 -0.0797
 7973W        W 7973   7.253   2.774   9.887 -0.1014  0.3329 -0.0353
 7974W        W 7974   9.812   5.166   5.924 -0.1359  0.1014  0.1810
 7975W        W 7975   1.423   1.513   1.449  0.0460 -0.0904 -0.0690
 7976W        W 7976   0.424   2.769   8.309  0.3244 -0.0769 -0.0525
 7977W        W 7977   2.922   9.996   8.315 -0.0774 -0.1819  0.1837
 7978W        W 7978  10.040   4.386   1.771  0.3234 -0.0619 -0.0000
 7979W        W 7979   4.675   1.456   8.775 -0.3372 -0.0118 -0.1932
 7980W        W 7980   6.940   2.423   5.588 -0.1314  0.0135  0.0161
 7981W        W 7981   0.946   0.762   9.247  0.0717 -0.2184  0.0153
 7982W        W 7982   0.290   3.772   8.538  0.0755 -0.0273 -0.2551
 7983W        W 7983   2.623   6.762   1.027 -0.0091 -0.0023  0.0301
 7984W        W 7984   9.105   1.434   7.059  0.0756  0.0040 -0.2716
 7985W        W 7985   1.359   8.768   9.181  0.0736 -0.0798 -0.1032
 7986W        W 7986  10.049   2.357   5.832 -0.0137 -0.0124  0.0005
 7987W        W 7987   0.332   3.126   5.226 -0.1301 -0.3795 -0.0180
 7988W        W 7988   9.039   3.344   9.527  0.0798 -0.1011 -0.2790
 7989W        W 7989   7.816   8.296   8.567 -0.1047 -0.1793 -0.0439
 7990W        W 7990   3.570   4.818   5.152  0.1407  0.3062  0.1104
 7991W        W 7991   5.420   2.908   1.312 -0.1551  0.0248  0.2359
 7992W        W 7992   1.400   9.118   8.810 -0.0405 -0.1096  0.1177
 7993W        W 7993   5.499   6.470   4.031  0.6846 -0.0149  0.3612
 7994W        W 7994   7.632   5.393   9.259 -0.0340  0.1727  0.0734
 7995W        W 7995   9.503   6.256   6.004 -0.0210 -0.3679 -0.2478
 7996W        W 7996   7.861   1.928   1.440 -0.3420  0.0583  0.2642
 7997W        W 7997   7.622   7.941   8.934  0.0703  0.0015  0.0903
 7998W        W 7998  10.150   3.036   6.493  0.2949  0.3411  0.1282
 7999W        W 7999   8.802   5.569   7.730  0.0724 -0.0116 -0.2973
 8000W        W 8000   1.115   5.769  10.053 -0.0077 -0.0881  0.0335
 8001W        W 8001   6.791   2.307   6.940  0.2486 -0.0898 -0.0518
 8002W        W 8002   5.179   6.066   5.638 -0.0835 -0.1289 -0.2362
 8003W        W 8003   6.908   8.348   2.619  0.1610 -0.2540 -0.0200
 8004W        W 8004   1.093   9.689   1.324 -0.1535  0.0463  0.0065
 8005W        W 8005   3.986   4.251   5.712 -0.0966 -0.0500  0.1592
 8006W        W 8006   6.645   2.278   5.084 -0.0907 -0.1864  0.3103
 8007W        W 8007   3.753   1.462   2.749  0.1246  0.0467  0.2754
 8008W        W 8008   0.087   2.800  10.168  0.0383  0.1060 -0.0635
 8009W        W 8009   7.588   7.326   1.696  0.0667  0.0001 -0.4345
 8010W        W 8010   6.313   8.407   4.259 -0.0211 -0.1144  0.1134
 8011W        W 8011   3.798   0.322   1.148 -0.1017 -0.1151  0.1076
 8012W        W 8012   8.162   7.253   2.604 -0.0247 -0.2227  0.1009
 8013W        W 8013   5.201   6.938   0.935  0.1859 -0.0649  0.1989
 8014W        W 8014  10.265   3.539   4.152 -0.1385  0.1767  0.1731
 8015W        W 8015   4.781   4.489   5.095 -0.0871  0.0910 -0.1360
 8016W        W 8016   7.853   9.103   9.820 -0.7036  0.1918 -0.0020
 8017W        W 8017   4.048   8.284   2.237 -0.0699 -0.0205 -0.0402
 8018W        W 8018   6.821   1.594   0.411 -0.2832  0.1785 -0.2317
 8019W        W 8019   1.343   5.248   6.872  0.1000 -0.1091 -0.2679
 8020W        W 8020   0.643   5.206   8.031  0.1718 -0.0506 -0.3496
 8021W        W 8021   2.483   2.731   2.755 -0.2183 -0.0463 -0.0503
 8022W        W 8022   2.272   0.233   5.777 -0.0068  0.2710 -0.2806
 8023W        W 8023   7.880   7.929   2.528  0.0682  0.0068  0.0947
 8024W        W 8024   4.075   3.434   2.234 -0.3381  0.1862  0.0148
 8025W        W 8025   8.880   8.269   1.805  0.2332 -0.3165  0.0092
 8026W        W 8026   9.976   6.490   9.704 -0.1427  0.1171 -0.0493
 8027W        W 8027  10.119   3.070   1.814 -0.2579  0.1759 -0.1004
 8028W        W 8028   1.984   0.761  10.336  0.2640 -0.1819 -0.0392
 8029W        W 8029   3.125   7.400   5.538  0.1044 -0.1831  0.1272
 8030W        W 8030   1.098   6.937   8.739 -0.0323  0.2949 -0.2161
 8031W        W 8031   6.601   2.502  10.216  0.1374 -0.0859 -0.1005
 8032W        W 8032   2.426   1.513   5.536 -0.4029  0.0404 -0.1176
 8033W        W 8033   6.714   0.954   5.686  0.1670  0.2938 -0.1162
 8034W        W 8034   0.420   2.394   2.379 -0.0048 -0.0755  0.1908
 8035W        W 8035   8.490   6.671   4.220  0.0886  0.0914 -0.1423
 8036W        W 8036   9.838   5.190   1.722  0.2187 -0.0076 -0.1069
 8037W        W 8037   3.945   9.925   6.642  0.2132 -0.1587 -0.1034
 8038W        W 8038   5.734   0.882   6.212 -0.0245 -0.2261 -0.1218
 8039W        W 8039   0.371   3.598   1.679  0.0599  0.0937 -0.2273
 8040W        W 8040   6.390   6.175   3.655  0.2350 -0.0095  0.0773
 8041W        W 8041   6.356   7.149   7.063  0.1066 -0.0177 -0.0552
 8042W        W 8042   5.582   8.184   7.247 -0.0438  0.3352  0.2976
 8043W        W 8043   6.281   7.806   4.595 -0.0517  0.0043 -0.0520
 8044W        W 8044   1.397   7.507   0.150  0.0769 -0.0354 -0.1070
 8045W        W 8045   7.506   8.539   8.895  0.2795  0.1017 -0.0832
 8046W        W 8046   8.752   8.378   0.089  0.2033 -0.0782 -0.1490
 8047W        W 8047   4.624   9.716   0.198 -0.0453 -0.3819  0.1710
 8048W        W 8048   9.146   4.450   6.220  0.1168  0.0256 -0.0212
 8049W        W 8049   2.177  10.218   5.063 -0.1386  0.3144 -0.0567
 8050W        W 8050   1.634   1.107   4.947 -0.0451 -0.0176  0.2090
 8051W        W 8051   0.936   0.683   6.325 -0.0225 -0.0304 -0.0359
 8052W        W 8052   2.406   8.700   3.403  0.0752 -0.3446 -0.0471
 8053W        W 8053   7.505  10.161   4.053 -0.0031  0.1199  0.1713
 8054W        W 8054   4.913   1.663   4.025 -0.0339  0.0326 -0.1796
 8055W        W 8055   0.600   9.205  10.110  0.0236  0.0397  0.3651
 8056W        W 8056   1.107   9.044   8.287 -0.1439  0.3102  0.2008
 8057W        W 8057   4.757   0.213   0.618  0.0951 -0.1693 -0.2176
 8058W        W 8058   6.918   7.902   5.338 -0.1411  0.3430 -0.2360
 8059W        W 8059   1.574   5.461   7.728  0.2977  0.0050  0.3217
 8060W        W 8060   4.296   1.918   2.330  0.0162 -0.1444 -0.1477
 8061W        W 8061   4.132   5.355   5.636  0.0690  0.3771 -0.3338
 8062W        W 8062   6.740   3.702   2.145 -0.0807  0.0839 -0.0427
 8063W        W 8063   6.659   2.841   2.463  0.1082  0.2033  0.2198
 8064W        W 8064   1.665   4.641   5.070  0.0175  0.0520  0.3752
 8065W        W 8065   9.877   5.474   6.824 -0.2029  0.0409 -0.0176
 8066W        W 8066   4.130  10.191  10.315 -0.0090  0.2406 -0.1404
 8067W        W 8067  10.145   1.854   2.426  0.0855 -0.1882  0.0878
 8068W        W 8068   0.544   2.216   5.655  0.4163 -0.2744 -0.1126
 8069W        W 8069   0.043   8.888   1.053  0.0070  0.1797  0.0972
 8070W        W 8070   1.658   0.266   8.668  0.0884  0.0110 -0.0939
 8071W        W 8071   8.419   6.809   9.537  0.0645  0.1421 -0.0724
 8072W        W 8072   6.297   6.463   1.099  0.2029  0.0905 -0.0396
 8073W        W 8073   3.501   7.747   4.360 -0.0842  0.0153 -0.1270
 8074W        W 8074  10.069   9.736   4.404 -0.2487 -0.0042 -0.1968
 8075W        W 8075   2.865   8.532   0.813  0.1003 -0.2333  0.0470
 8076W        W 8076   3.704   7.629   2.328  0.0404  0.1452  0.0226
 8077W        W 8077   0.124   7.148   8.239 -0.1991  0.0387 -0.0664
 8078W        W 8078   1.708   4.244   4.601 -0.0745  0.1640 -0.2433
 8079W        W 8079   7.843  10.112   6.302 -0.3076  0.0100  0.0401
 8080W        W 8080   0.953   2.551   0.307 -0.0187 -0.1267  0.0703
 8081W        W 8081   8.629   1.470   7.207  0.0214  0.3100  0.0183
 8082W        W 8082   5.992   8.400   0.445  0.2579  0.2699  0.1953
 8083W        W 8083   8.448   6.950   5.154  0.1750 -0.0901  0.0354
 8084W        W 8084   1.972   1.871   7.585  0.4570  0.1517 -0.1028
 8085W        W 8085   4.590   6.063   3.066 -0.0358  0.1238  0.0149
 8086W        W 8086   9.232   2.982  10.045 -0.2565 -0.3818 -0.1481
 8087W        W 8087   2.726   1.476   3.680  0.0990  0.2400 -0.0321
 8088W        W 8088  10.223   7.695   0.060 -0.0513  0.0144 -0.1074
 8089W        W 8089   8.087   9.859   5.929  0.2672 -0.0121  0.0110
 8090W        W 8090   5.608  10.253   6.967 -0.1907 -0.2114 -0.0079
 8091W        W 8091   8.061  10.104   4.641  0.0341  0.0463  0.1427
 8092W        W 8092   4.381   1.300   4.349  0.2430  0.4331  0.0777
 8093W        W 8093   5.814   0.875   1.949  0.0725 -0.2581 -0.0742
 8094W        W 8094   7.197   4.110   2.163  0.0535 -0.3691 -0.1778
 8095W        W 8095   9.565   0.918   3.369  0.0926 -0.3633 -0.0487
 8096W        W 8096   6.039   8.128   6.207  0.1709 -0.2901 -0.0325
 8097W        W 8097   2.136   5.101   2.873 -0.0961  0.0541 -0.3075
 8098W        W 8098   5.996   5.065   9.213 -0.0206  0.0332 -0.1879
 8099W        W 8099   4.470   5.716   9.063  0.1413  0.1180  0.1424
 8100W        W 8100   0.805   8.852   1.741  0.0042 -0.1818  0.4152
 8101W        W 8101   2.696   3.067   2.316 -0.0136  0.0394 -0.1637
 8102W        W 8102   8.399   5.805   5.129 -0.0546 -0.1458  0.3101
 8103W        W 8103   4.940   2.752   1.196 -0.1722  0.0459 -0.2646
 8104W        W 8104   4.939   8.305   7.778  0.3534 -0.0426  0.0743
 8105W        W 8105   4.964   8.274   5.757 -0.0355 -0.2195 -0.1903
 8106W        W 8106   0.631   7.285   9.894  0.2134 -0.0289  0.3968
 8107W        W 8107   8.939   6.470   2.525  0.0110  0.0432  0.1271
 8108W        W 8108   4.683   6.773   8.380  0.0912 -0.0038 -0.0853
 8109W        W 8109   5.366   0.733   4.807  0.1005  0.0345 -0.4532
 8110W        W 8110   4.838   3.520   2.818 -0.0202  0.3623 -0.2484
 8111W        W 8111   4.049   2.330   0.567  0.2333  0.2360 -0.1806
 8112W        W 8112   4.287   6.788   8.809 -0.2563  0.1153 -0.0288
 8113W        W 8113   8.062   9.595   5.504  0.2720 -0.2165 -0.4098
 8114W        W 8114   8.691   2.618   6.352 -0.2721 -0.2483  0.0237
 8115W        W 8115   5.379   0.040   7.344 -0.3420 -0.1569  0.0671
 8116W        W 8116   0.751   0.491   7.757 -0.1344 -0.0422 -0.0664
 8117W        W 8117   8.828   8.426   5.726  0.2452  0.3735  0.1374
 8118W        W 8118   9.817   4.565   5.297 -0.0257 -0.1948  0.0568
 8119W        W 8119   3.388   7.427   8.152  0.0896 -0.2250 -0.0102
 8120W        W 8120   4.798   7.668   9.491  0.0053 -0.0685  0.1565
 8121W        W 8121   6.000   6.638   3.147  0.0370 -0.2181  0.0224
 8122W        W 8122  10.241   9.917   1.083 -0.1800 -0.1167  0.1627
 8123W        W 8123   8.474   1.847   3.111 -0.1025  0.0034  0.0884
 8124W        W 8124   6.338   5.202   2.646 -0.0854  0.1749  0.0598
 8125W        W 8125   5.986   7.053  10.060  0.2612 -0.0476 -0.1635
 8126W        W 8126   2.171   7.931   4.497  0.0014 -0.2325 -0.1760
 8127W        W 8127   5.748   3.553   1.534 -0.0864  0.1558  0.0368
 8128W        W 8128   2.343   5.707   1.920 -0.0070  0.1305 -0.1561
 8129W        W 8129   0.428   8.338   7.885 -0.4003  0.0196 -0.0888
 8130W        W 8130   5.837   3.905   7.828 -0.0758  0.0351 -0.1139
 8131W        W 8131   9.957   0.629   5.293 -0.0166  0.0210  0.1555
 8132W        W 8132   4.535   4.804   7.042 -0.0101  0.0193  0.3145
 8133W        W 8133   4.790   6.467   9.250 -0.2872 -0.1604 -0.1142
 8134W        W 8134   8.006   8.217   5.856 -0.0598 -0.0441 -0.1316
 8135W        W 8135   9.759   8.883   5.244  0.0899  0.3425  0.0964
 8136W        W 8136   7.899   9.124   3.231  0.1532 -0.2256 -0.1851
 8137W        W 8137   7.529   9.282   9.439  0.0489 -0.1332  0.0373
 8138W        W 8138   3.006   7.051  10.095  0.0793 -0.2076 -0.1087
 8139W        W 8139   9.022   3.071   6.361  0.4419 -0.3702  0.2593
 8140W        W 8140   9.857   5.457   7.370 -0.1919 -0.3428 -0.0525
 8141W        W 8141   3.476   0.220   5.888 -0.2098  0.0565  0.2598
 8142W        W 8142   7.051   9.152   2.560  0.2049  0.2496  0.1366
 8143W        W 8143   8.052   3.302   5.704 -0.2059 -0.5087  0.0426
 8144W        W 8144   2.590   8.669   5.616  0.1099 -0.1566  0.1394
 8145W        W 8145   9.938   3.433   4.507 -0.0792 -0.0716  0.0674
 8146W        W 8146   0.190   4.690   8.200  0.0569 -0.0141  0.1930
 8147W        W 8147   7.556   8.053   0.471  0.0592  0.0482  0.1389
 8148W        W 8148   9.198   9.150   9.357  0.3070 -0.2514 -0.0241
 8149W        W 8149   3.061   1.670   6.085  0.0657 -0.2429 -0.1070
 8150W        W 8150   8.422   9.058   0.229  0.0009 -0.0011 -0.0253
 8151W        W 8151   5.864   8.704   8.955  0.0776 -0.3714 -0.1365
 8152W        W 8152   1.650   9.183   9.922  0.0167  0.1359 -0.1315
 8153W        W 8153   4.073   4.964   5.317 -0.0548 -0.1262  0.0729
 8154W        W 8154   1.178   4.164   8.672 -0.0712  0.1253  0.0637
 8155W        W 8155   9.559   7.100   2.906  0.3412  0.1273  0.1127
 8156W        W 8156   3.507   7.643   9.520 -0.0374  0.3709  0.1327
 8157W        W 8157   3.423   1.454   5.527 -0.2885 -0.1440 -0.4377
 8158W        W 8158   0.841   0.784   8.732 -0.0001 -0.1286 -0.1860
 8159W        W 8159   6.236   5.372   1.286 -0.2374  0.0165  0.0724
 8160W        W 8160   5.146   1.076   8.083  0.0946 -0.0265  0.3581
 8161W        W 8161   6.332   3.289   5.467 -0.1337  0.2005  0.2444
 8162W        W 8162   4.621   9.492   9.214 -0.1448 -0.3786 -0.1460
 8163W        W 8163   4.341   4.106   7.619  0.1129 -0.1884  0.2453
 8164W        W 8164   9.057   8.914   2.356 -0.3224 -0.2595  0.1170
 8165W        W 8165   1.942   3.986   7.440  0.3611  0.2276 -0.1590
 8166W        W 8166   4.976   3.232   1.772 -0.3554 -0.0181 -0.1250
 8167W        W 8167   6.555   0.633   6.196 -0.0537  0.0343 -0.2394
 8168W        W 8168   2.668   0.145   1.989  0.0088  0.0195 -0.1599
 8169W        W 8169   1.193   0.542   8.032 -0.0986  0.2261  0.0391
 8170W        W 8170   1.522   8.385   1.512 -0.0186 -0.1805  0.0152
 8171W        W 8171   1.783   1.806   3.438  0.3385  0.0655  0.0944
 8172W        W 8172   2.557   4.057   0.055  0.0949  0.1766  0.1618
 8173W        W 8173   3.039   3.338   9.749  0.2730  0.0203  0.1604
 8174W        W 8174   0.296   8.230   8.739  0.1503  0.1489  0.0591
 8175W        W 8175   7.145   9.879   3.822  0.1744 -0.0645 -0.1926
 8176W        W 8176   9.696   2.269   2.370  0.2069 -0.1533 -0.2016
 8177W        W 8177   5.853   6.885   4.874  0.3048 -0.1380  0.2546
 8178W        W 8178   5.933   7.721   1.370 -0.0454 -0.0691  0.0809
 8179W        W 8179   2.145   3.693   0.662  0.0129  0.3906 -0.1218
 8180W        W 8180   9.433  10.225   3.218 -0.3457 -0.2037  0.1734
 8181W        W 8181   9.540   3.120   3.809 -0.0367 -0.2233 -0.2739
 8182W        W 8182   1.827   0.600   5.015  0.1651 -0.2119 -0.1421
 8183W        W 8183   8.635   9.930   5.843 -0.1706 -0.0799  0.2079
 8184W        W 8184   5.454   9.666   4.532 -0.1419 -0.0808 -0.1682
 8185W        W 8185   3.571   0.875   5.285 -0.1241 -0.0235  0.0201
 8186W        W 8186   9.581   4.575   4.379 -0.0341 -0.2951 -0.0513
 8187W        W 8187   9.458   9.348   8.968 -0.2818  0.1640 -0.1744
 8188W        W 8188   0.253   0.463   1.106 -0.1528  0.1661 -0.2637
 8189W        W 8189   9.776   2.715   4.007 -0.5469 -0.0065  0.0020
 8190W        W 8190   4.419   7.925   9.847  0.0264  0.2073 -0.1536
 8191W        W 8191   0.390   6.047   1.769 -0.0648 -0.2321 -0.0093
 8192W        W 8192   7.066   4.451   6.208  0.2186  0.1646  0.0914
 8193W        W 8193   5.680   4.902   3.810 -0.0334 -0.1596 -0.1081
 8194W        W 8194   9.198   1.796   0.642 -0.0407  0.0784  0.1783
 8195W        W 8195   3.325   1.602   5.083 -0.1554 -0.3048 -0.0888
 8196W        W 8196   9.121   4.067   2.673 -0.3934  0.0414  0.0489
 8197W        W 8197   0.088   2.977   5.668  0.0288  0.1901 -0.1138
 8198W        W 8198   3.292  10.263   6.754 -0.1417 -0.1138  0.3337
 8199W        W 8199   2.863   9.873   9.288  0.2186 -0.0736  0.0375
 8200W        W 8200   7.815   1.190   3.198  0.0304 -0.0887 -0.2639
 8201W        W 8201   2.395   4.837   2.304 -0.0323  0.0932 -0.1365
 8202W        W 8202   0.257   7.884   1.614 -0.1641 -0.1784  0.0926
 8203W        W 8203   9.294   4.460   5.784  0.1367  0.1162  0.0195
 8204W        W 8204   6.937   5.390   8.266  0.0522  0.1078 -0.3421
 8205W        W 8205   8.993   0.205   4.456  0.0359 -0.2792  0.1992
 8206W        W 8206   9.628   8.869   8.842 -0.1780 -0.1462  0.2495
 8207W        W 8207   6.632   9.562   8.453 -0.5485 -0.0239  0.2675
 8208W        W 8208   1.591   2.175   9.185 -0.0275  0.1619  0.0909
 8209W        W 8209   2.202   4.537   2.682 -0.0434  0.0551 -0.1403
 8210W        W 8210   9.737   0.210   7.333  0.2576 -0.2546  0.1362
 8211W        W 8211   8.903   4.327   5.049  0.1492  0.3407 -0.4395
 8212W        W 8212   3.283   6.734   6.406 -0.2258  0.1527 -0.0311
 8213W        W 8213   5.114   6.103   3.146 -0.1919  0.1791  0.0116
 8214W        W 8214   0.287   9.884   2.475 -0.0226  0.1100 -0.1082
 8215W        W 8215   7.948   0.775   7.110 -0.2365 -0.0344  0.1937
 8216W        W 8216  10.148   7.607   0.872  0.1931  0.1674  0.4239
 8217W        W 8217   0.646   9.550   9.327 -0.1993  0.2569 -0.1026
 8218W        W 8218   4.379   3.303   3.756 -0.0972  0.2377  0.1746
 8219W        W 8219  10.070   2.068   0.145  0.1856 -0.0662  0.1726
 8220W        W 8220   9.953   3.723   7.167 -0.1997 -0.0758 -0.2115
 8221W        W 8221   9.341   1.365   6.520  0.1769  0.0870  0.3539
 8222W        W 8222   0.098   4.197   4.206  0.2948 -0.1357  0.2524
 8223W        W 8223   0.828   9.150   5.173 -0.1818  0.2435  0.3191
 8224W        W 8224   0.973   1.545   0.972 -0.2380  0.2720  0.0207
 8225W        W 8225   7.870  10.265   9.816 -0.1168 -0.1473  0.0922
 8226W        W 8226   9.955   5.048   9.177  0.0016  0.0345 -0.2334
 8227W        W 8227   8.256   2.450   2.486  0.0465 -0.1606  0.1667
 8228W        W 8228   5.164   2.742   1.677 -0.0963 -0.0273  0.1761
 8229W        W 8229  10.233   1.422   6.434  0.0124 -0.0286 -0.0408
 8230W        W 8230   9.449   4.250   8.012  0.0049  0.3890  0.3570
 8231W        W 8231   1.039   5.205   5.055 -0.0530  0.0760 -0.3688
 8232W        W 8232   0.045   5.170   8.015  0.1242  0.1308  0.2601
 8233W        W 8233   0.857   1.686   5.094  0.1471 -0.2667 -0.0737
 8234W        W 8234   7.404   1.524   8.551 -0.0533  0.3490  0.0608
 8235W        W 8235   6.440   8.772   9.637  0.0942 -0.0215  0.0371
 8236W        W 8236   6.286   6.378   0.585 -0.1180  0.0070 -0.0025
 8237W        W 8237   6.741   4.032   6.753  0.0846 -0.1770  0.0875
 8238W        W 8238   1.472   2.041   6.759 -0.1970  0.0558 -0.0407
 8239W        W 8239   0.291   9.860   9.083 -0.2151 -0.2641 -0.0505
 8240W        W 8240   1.447   9.178   6.372  0.2606  0.0255  0.0309
 8241W        W 8241   2.339   9.699   5.263 -0.0601 -0.1516 -0.1382
 8242W        W 8242   5.200   2.767   2.944 -0.0536 -0.0547 -0.3314
 8243W        W 8243   1.650   0.799   8.666  0.0331 -0.0934  0.1135
 8244W        W 8244   1.974   6.699   7.096  0.0252 -0.1484 -0.2371
 8245W        W 8245   4.359   6.943   0.744  0.0228  0.2481 -0.0516
 8246W        W 8246   7.393   4.975   8.512  0.1844  0.0705 -0.2175
 8247W        W 8247   0.723   5.605   4.324 -0.1519  0.4755  0.2451
 8248W        W 8248   3.308   3.453   4.617 -0.1630  0.0647 -0.0153
 8249W        W 8249   0.674   2.971   0.990  0.1067  0.0905 -0.0109
 8250W        W 8250   9.519   1.870   0.298  0.2344 -0.1401 -0.1087
 8251W        W 8251   5.921   0.103   5.729  0.0048  0.0781 -0.1509
 8252W        W 8252   1.646   5.177   0.208  0.1042  0.3454 -0.0616
 8253W        W 8253   5.167   1.565   6.427  0.1170 -0.1662  0.0756
 8254W        W 8254   6.235   5.618   9.004  0.3506  0.0139  0.0453
 8255W        W 8255   4.991   6.001   7.069  0.2091 -0.0637  0.0111
 8256W        W 8256   3.485   0.360   8.758  0.2619  0.1550 -0.1540
 8257W        W 8257   9.095   8.959   3.410  0.1043  0.3163  0.4635
 8258W        W 8258   7.142   8.956   4.354 -0.2666 -0.1694  0.5280
 8259W        W 8259   9.657   2.464   6.077 -0.0217  0.1786 -0.2348
 8260W        W 8260   0.563   2.057   1.739  0.0633 -0.1113  0.0948
 8261W        W 8261   5.169   4.353   4.565 -0.0194 -0.0308  0.3121
 8262W        W 8262  10.115   9.254   8.713 -0.1346  0.0592  0.1614
 8263W        W 8263   9.143   8.050   8.734  0.2787  0.2030  0.0168
 8264W        W 8264   4.543   3.046   1.529  0.2049 -0.0365  0.0322
 8265W        W 8265   5.557   6.763   1.205  0.0684 -0.1137 -0.0057
 8266W        W 8266   9.822   2.018   7.501 -0.0893  0.0717 -0.2777
 8267W        W 8267   9.296   2.031   4.347 -0.2710 -0.1613  0.0582
 8268W        W 8268   1.167   1.606   2.262 -0.2325  0.2559  0.0709
 8269W        W 8269   3.527   1.258   7.074  0.0268 -0.0540 -0.2034
 8270W        W 8270  10.249   6.780   2.712 -0.3239 -0.1264 -0.1084
 8271W        W 8271   6.796   3.144   1.439 -0.1514 -0.2157  0.0925
 8272W        W 8272   0.594   8.738   5.565  0.0391 -0.2119 -0.0827
 8273W        W 8273   5.452   1.418   6.966  0.0778 -0.2095 -0.0670
 8274W        W 8274   7.147   3.478   7.854  0.2556 -0.2744  0.3014
 8275W        W 8275   2.772   0.127   7.042  0.0502  0.1614 -0.1798
 8276W        W 8276   0.707   0.011   7.807  0.0379  0.2228 -0.2278
 8277W        W 8277   0.448   6.965   2.595  0.2303  0.0100 -0.0779
 8278W        W 8278   9.975   3.112   0.807 -0.0383  0.0788  0.0983
 8279W        W 8279   3.805   1.014   1.695  0.2524 -0.1442  0.1158
 8280W        W 8280   0.800   0.214   2.872  0.0975 -0.3086  0.0697
 8281W        W 8281   8.905   8.840   0.032  0.0983 -0.2109  0.4012
 8282W        W 8282   5.635   8.246   1.571 -0.2715 -0.0893  0.0238
 8283W        W 8283   3.507   0.561   2.711  0.2511  0.1017  0.2409
 8284W        W 8284   8.340   5.387   4.834  0.1205 -0.1662 -0.1697
 8285W        W 8285   4.133   1.910   5.139  0.0515  0.1277 -0.2070
 8286W        W 8286   0.742   5.317   2.460  0.0367  0.1369  0.1877
 8287W        W 8287   7.367   6.042   7.760  0.0198 -0.1247 -0.0457
 8288W        W 8288   1.227   6.081   8.162 -0.0963  0.1341  0.0591
 8289W        W 8289   4.061   8.576   9.965  0.3029  0.0207 -0.0870
 8290W        W 8290   6.896   1.151   0.105  0.3762  0.3459 -0.0909
 8291W        W 8291   9.290   0.087   1.874 -0.0137  0.1415 -0.0006
 8292W        W 8292   3.501   7.752   0.063 -0.2478 -0.1654  0.0732
 8293W        W 8293   4.971   7.601   5.693 -0.1982  0.5968 -0.1290
 8294W        W 8294   1.455   4.684   8.105 -0.1470 -0.0563 -0.5051
 8295W        W 8295   0.549   1.693   0.702 -0.3960 -0.2015  0.5681
 8296W        W 8296   8.782   5.807   8.254 -0.0750  0.1725 -0.1728
 8297W        W 8297   9.907   0.402   3.905 -0.2948 -0.1205 -0.1300
 8298W        W 8298  10.000   6.354   4.248 -0.2259  0.3272 -0.1113
 8299W        W 8299   4.712   4.476  10.260  0.0520  0.2137 -0.2267
 8300W        W 8300   7.440   8.180   2.352  0.0800 -0.0470 -0.4615
 8301W        W 8301   3.564   9.125   0.597 -0.1050 -0.0382  0.2082
 8302W        W 8302   0.108   9.428   9.162 -0.0818  0.0290  0.0255
 8303W        W 8303   6.335   7.346   1.623  0.1266  0.0708  0.0169
 8304W        W 8304   1.833   3.727   8.352  0.2482 -0.0504  0.2292
 8305W        W 8305   3.129   7.374   1.343 -0.2620 -0.0141 -0.0141
 8306W        W 8306   7.549   6.463   0.274  0.0537 -0.1355 -0.0083
 8307W        W 8307   9.024   5.846   9.897 -0.0143  0.2074 -0.2110
 8308W        W 8308   9.930   2.090   2.872  0.2441  0.0117  0.0178
 8309W        W 8309   9.214   6.104   6.722  0.1791 -0.1030 -0.0631
 8310W        W 8310   2.031   3.202   6.258  0.1900  0.3048  0.1199
 8311W        W 8311  10.102   4.783   6.390 -0.2194 -0.0615 -0.1962
 8312W        W 8312   4.909   1.277   4.385 -0.1696  0.3381 -0.0487
 8313W        W 8313   5.637   7.175   7.526  0.2192  0.2839 -0.1039
 8314W        W 8314   5.428   0.538   6.739 -0.1650  0.3914  0.1717
 8315W        W 8315   4.792   6.462   7.149  0.0606  0.1062 -0.0915
 8316W        W 8316   1.389   2.230   5.285 -0.0054  0.0705 -0.0214
 8317W        W 8317   3.310   4.121   9.344 -0.0546 -0.0415  0.1434
 8318W        W 8318   3.487   0.303   6.365  0.0047 -0.2447  0.0038
 8319W        W 8319  10.090   7.065   6.905  0.1050  0.2343 -0.1059
 8320W        W 8320   0.432   8.956   1.405  0.0873  0.2398 -0.1915
 8321W        W 8321   7.788   4.130   3.126 -0.0863  0.4121 -0.0971
 8322W        W 8322   6.690   6.938   5.679  0.1580 -0.0751  0.1210
 8323W        W 8323   8.023   9.658   4.434 -0.2514 -0.3504 -0.2532
 8324W        W 8324   8.016   2.963   3.628  0.0033  0.0531  0.0116
 8325W        W 8325   1.851   9.196   0.039 -0.0966  0.0470 -0.0802
 8326W        W 8326   8.453   7.295   7.721 -0.0470 -0.5698  0.1337
 8327W        W 8327   6.659   5.874   2.250  0.2128 -0.2483 -0.0657
 8328W        W 8328   5.496   7.954   2.401 -0.1733 -0.2136 -0.1057
 8329W        W 8329   2.006   4.996   9.653 -0.1085  0.0403  0.0949
 8330W        W 8330   3.705   3.075   6.844  0.1721 -0.4470  0.2959
 8331W        W 8331   0.079   0.724   7.802  0.0542 -0.2440  0.0024
 8332W        W 8332   6.338   5.066   8.855 -0.0378 -0.0714 -0.0636
 8333W        W 8333   6.471   5.613   1.839  0.1177 -0.2991 -0.1079
 8334W        W 8334   2.113   5.681   3.750 -0.0168 -0.1071 -0.1775
 8335W        W 8335   2.733   5.832   1.160 -0.0827  0.0931  0.1947
 8336W        W 8336   4.264   1.124  10.222  0.0536  0.1397  0.1997
 8337W        W 8337   5.503   1.471   1.021 -0.1954  0.0739  0.0140
 8338W        W 8338   2.915  10.012   7.312  0.0941 -0.2620 -0.0367
 8339W        W 8339   7.190   7.481   1.423  0.2106 -0.1044  0.4097
 8340W        W 8340   7.437   0.043   7.890  0.0665 -0.0614  0.2348
 8341W        W 8341   8.066   1.318   0.894  0.2746  0.3219  0.0098
 8342W        W 8342   9.544   6.206   1.652 -0.0450 -0.1855 -0.0401
 8343W        W 8343   6.789   5.035   2.650  0.0996 -0.0228 -0.1924
 8344W        W 8344   7.672   4.044   9.117  0.1450  0.1705  0.1930
 8345W        W 8345   0.295   6.625   0.728  0.0657 -0.0906  0.1173
 8346W        W 8346   6.855   9.407   1.309  0.2690 -0.4717  0.0081
 8347W        W 8347   4.411  10.187   9.814 -0.0071 -0.0091  0.1011
 8348W        W 8348   4.394   3.636   0.405  0.1400 -0.0511 -0.1593
 8349W        W 8349   3.293   2.517   2.078  0.2882 -0.2074 -0.2722
 8350W        W 8350   8.404   4.308   4.861 -0.1777  0.1109  0.1761
 8351W        W 8351   6.986   7.879   3.540  0.0776 -0.3023  0.1826
 8352W        W 8352   8.590   7.312   3.913 -0.1344  0.4168 -0.0734
 8353W        W 8353   6.148   5.228   5.736  0.2575  0.0021  0.1746
 8354W        W 8354   7.403   7.261   3.454  0.0431  0.1721  0.0497
 8355W        W 8355   8.898   8.224   4.370  0.1566  0.1762  0.1485
 8356W        W 8356  10.208   3.724   9.911  0.0409 -0.1046  0.2744
 8357W        W 8357   3.108   3.948   2.877 -0.1804  0.1796 -0.1960
 8358W        W 8358   4.335   4.210   9.004  0.0286 -0.0276 -0.2054
 8359W        W 8359   5.476   5.073   2.293 -0.0339  0.0253 -0.1196
 8360W        W 8360   9.708  10.253   4.792 -0.1617  0.0737 -0.2365
 8361W        W 8361   6.457   5.391   6.140 -0.3057  0.0504 -0.0411
 8362W        W 8362   8.572   5.839  10.113  0.1337 -0.2649  0.0398
 8363W        W 8363   5.789   2.430   7.721  0.2780 -0.0444 -0.0139
 8364W        W 8364  10.055   4.058   3.896  0.2607  0.1456 -0.0301
 8365W        W 8365   5.129   2.468   6.458  0.0638 -0.0416 -0.1035
 8366W        W 8366   9.145   5.920   5.835 -0.5361 -0.3997 -0.0610
 8367W        W 8367   0.175   6.178   0.553  0.2405 -0.2373  0.1682
 8368W        W 8368   9.631   8.261   7.313  0.0674 -0.0227  0.2372
 8369W        W 8369   1.278   3.564   1.734  0.1397 -0.1692  0.0959
 8370W        W 8370   5.441   1.606   5.115 -0.1452  0.3334  0.1753
 8371W        W 8371   2.153   0.401   8.862  0.3253  0.0297  0.0291
 8372W        W 8372   7.275   1.265   3.046 -0.0239  0.0170 -0.3405
 8373W        W 8373   8.681   8.532   2.238 -0.1629 -0.2536  0.0560
 8374W        W 8374   7.007   8.465   7.327  0.2527  0.1838  0.3156
 8375W        W 8375   8.312   9.090   5.582  0.2871  0.2580 -0.0232
 8376W        W 8376   8.583   7.719   9.962 -0.4035  0.1925 -0.2853
 8377W        W 8377   2.280   5.641   5.648 -0.1147 -0.5728 -0.1246
 8378W        W 8378   0.943   8.974   0.183 -0.0189 -0.2759  0.5625
 8379W        W 8379   4.970   3.361   4.261 -0.1613  0.6295 -0.0331
 8380W        W 8380   2.802   1.693   2.159 -0.0765  0.0137  0.2355
 8381W        W 8381   2.079   7.733   0.083 -0.1509  0.0846  0.1076
 8382W        W 8382   0.658   8.649   4.972 -0.1378 -0.0126 -0.0807
 8383W        W 8383   5.020   8.480   4.183  0.1677 -0.2820 -0.0191
 8384W        W 8384   0.476   2.546   1.398  0.0500  0.3058 -0.2500
 8385W        W 8385   2.661   9.978  10.013  0.0802 -0.0602 -0.0035
 8386W        W 8386   8.982   9.519   8.623 -0.1556 -0.1320  0.0324
 8387W        W 8387   5.120   0.803   3.879  0.0126  0.0370  0.0019
 8388W        W 8388   3.284   3.249   7.124  0.1081 -0.1223  0.1698
 8389W        W 8389   2.366  10.169   7.437  0.1355  0.2235 -0.0556
 8390W        W 8390   1.777   1.914   0.259 -0.0304 -0.3514 -0.1949
 8391W        W 8391   2.166   8.303   7.152 -0.1162  0.1977 -0.0449
 8392W        W 8392   1.427   8.689   3.591  0.0232  0.3100 -0.0336
 8393W        W 8393   6.403   7.292   4.894 -0.0981 -0.3225  0.0957
 8394W        W 8394   6.730   9.904   5.589 -0.2271  0.1662  0.3768
 8395W        W 8395   1.487   0.128   3.246 -0.2874 -0.1134 -0.2390
 8396W        W 8396   6.083   5.498   8.400 -0.0423 -0.1249 -0.2969
 8397W        W 8397   3.813   0.988   3.538 -0.2477  0.1681 -0.0891
 8398W        W 8398   2.429   3.916   2.249  0.1874  0.3022 -0.1769
 8399W        W 8399   0.433   9.769   5.647 -0.1878 -0.2231  0.0388
 8400W        W 8400   8.544   4.340   0.992  0.2265 -0.1605  0.0016
 8401W        W 8401   0.269   1.501   5.655  0.2670  0.2543 -0.2098
 8402W        W 8402   6.641   6.597   3.822 -0.1814 -0.0790  0.1754
 8403W        W 8403   1.873   5.865   8.481  0.1921  0.1853  0.2242
 8404W        W 8404   6.504   1.712   0.919 -0.0858  0.3047 -0.1315
 8405W        W 8405   1.348   2.650   6.101  0.2300  0.1702 -0.0198
 8406W        W 8406  10.304  10.192   5.056 -0.1702 -0.2374 -0.2324
 8407W        W 8407   6.107   8.967   0.843  0.1997  0.1171 -0.0014
 8408W        W 8408   4.146   2.020   8.906  0.1609  0.4256 -0.1235
 8409W        W 8409   7.091   5.806   1.479  0.0652  0.0244 -0.2368
 8410W        W 8410   2.725   4.252   5.021  0.0744 -0.2366 -0.1518
 8411W        W 8411   7.632   7.992   4.895 -0.1817 -0.1406 -0.1093
 8412W        W 8412   3.696   8.651   6.247  0.5273  0.0593  0.2345
 8413W        W 8413   0.954   7.448   6.256  0.0940 -0.1557 -0.0176
 8414W        W 8414   6.974   9.449   6.580  0.3075  0.0554 -0.3705
 8415W        W 8415   6.645   8.644   8.593 -0.1056  0.0882  0.0807
 8416W        W 8416   1.372   8.280   5.270  0.2457  0.1504 -0.1490
 8417W        W 8417   5.589   3.020   4.951 -0.3606 -0.1182  0.1630
 8418W        W 8418   1.073   3.172   6.163 -0.0814 -0.1700 -0.0620
 8419W        W 8419   8.042   8.783   2.682  0.2179  0.0068 -0.2205
 8420W        W 8420   6.863   7.175   6.910  0.1384  0.0795  0.1658
 8421W        W 8421   5.708   9.061   5.508 -0.2557 -0.1112 -0.0572
 8422W        W 8422   2.720   9.971   0.793  0.2324  0.0547  0.1919
 8423W        W 8423   1.697   9.955   3.427 -0.1947 -0.0651  0.0085
 8424W        W 8424   3.966   8.691   4.351 -0.2157 -0.0243  0.1265
 8425W        W 8425   6.481   8.369   3.121  0.0381 -0.0910 -0.0549
 8426W        W 8426   6.077   3.837   6.262  0.3990  0.1476  0.3419
 8427W        W 8427  10.146   0.994   2.209  0.1198 -0.1594  0.0950
 8428W        W 8428   5.197   8.467   3.590  0.4380  0.0124  0.0792
 8429W        W 8429   5.220   5.236   4.131 -0.1589 -0.0552  0.1539
 8430W        W 8430   3.154   5.472   6.250 -0.1968 -0.2012 -0.2544
 8431W        W 8431   9.321  10.279   7.115 -0.1743  0.0738 -0.3158
 8432W        W 8432   7.898   6.757   0.536  0.3026  0.0026  0.2037
 8433W        W 8433   9.198   5.813   1.709 -0.1290 -0.0311 -0.2128
 8434W        W 8434   1.280   2.257   8.751  0.0968 -0.4807 -0.4303
 8435W        W 8435   1.505   4.926   2.812  0.0255 -0.1341 -0.0143
 8436W        W 8436   0.034   0.741   1.464  0.1727 -0.2335  0.0792
 8437W        W 8437   3.559   9.227   5.160 -0.1344 -0.0214  0.0206
 8438W        W 8438   0.171   6.113   0.036 -0.1085 -0.2272  0.1933
 8439W        W 8439   2.240   7.810   6.352 -0.0179  0.2320  0.0890
 8440W        W 8440   2.813   4.037   3.276 -0.0624  0.1693  0.0286
 8441W        W 8441   6.966   5.047   2.105  0.2544 -0.0757  0.0676
 8442W        W 8442   7.603   6.160   4.675  0.2135  0.0024  0.0009
 8443W        W 8443   6.154   3.569   1.206 -0.0167 -0.1596  0.3270
 8444W        W 8444   5.734   3.622   2.992 -0.1924 -0.0949  0.0318
 8445W        W 8445   8.454   2.943   6.604 -0.1625  0.3398  0.0407
 8446W        W 8446   2.014   4.316   3.673  0.2671  0.2194 -0.1292
 8447W        W 8447   5.096   1.612   5.903 -0.2158 -0.1405  0.0743
 8448W        W 8448   9.805   8.329   2.581 -0.1935 -0.0841  0.0197
 8449W        W 8449   6.477   3.731   0.750  0.1645  0.0662  0.4272
 8450W        W 8450   8.410   0.033   9.393 -0.3264  0.0031 -0.1673
 8451W        W 8451   9.449   5.921   5.428  0.0416  0.0056  0.1028
 8452W        W 8452   5.392   0.111   5.375 -0.0913  0.0422 -0.0114
 8453W        W 8453   7.414  10.077  10.070 -0.2536  0.4114  0.1016
 8454W        W 8454   8.456   7.916   4.130  0.1833  0.3513  0.2135
 8455W        W 8455   5.410   7.407   7.896  0.0309  0.0935  0.2222
 8456W        W 8456   8.139   7.552   8.327  0.2177  0.1386 -0.1026
 8457W        W 8457   5.528   9.214   4.255  0.0531 -0.0999 -0.0797
 8458W        W 8458   6.990   3.932   6.329  0.2493  0.2459 -0.1785
 8459W        W 8459   2.026   8.912   5.427 -0.0513 -0.1904 -0.1530
 8460W        W 8460   8.929   9.755   4.826  0.1863 -0.1951 -0.0390
 8461W        W 8461   2.767   0.216   6.074  0.0674  0.1050 -0.1360
 8462W        W 8462   9.012   9.655   9.437  0.1693  0.0645 -0.1789
 8463W        W 8463  10.118   6.315   8.550  0.0715  0.1652  0.2261
 8464W        W 8464   7.620   2.403   9.954 -0.0545  0.0792  0.0181
 8465W        W 8465   3.656   7.962   0.931  0.3282  0.0259 -0.1967
 8466W        W 8466   6.760   6.743   7.320 -0.1146  0.1754  0.1049
 8467W        W 8467   6.150   1.132   1.674 -0.1778  0.0872  0.1627
 8468W        W 8468   1.119  10.241   1.505 -0.1250  0.1461  0.0231
 8469W        W 8469   5.832   3.035   2.176  0.0400  0.1038  0.2874
 8470W        W 8470   8.200   3.087   1.820  0.1021  0.4280 -0.0755
 8471W        W 8471   7.875   9.049   1.362 -0.1688 -0.0246  0.1154
 8472W        W 8472   9.143   4.700   5.281 -0.2082  0.0470 -0.0831
 8473W        W 8473   5.691   4.098   8.337 -0.1997 -0.2977 -0.0430
 8474W        W 8474   4.973   3.428   7.569  0.1236  0.1085 -0.0490
 8475W        W 8475   7.200   4.331   9.120  0.0994  0.1483 -0.2628
 8476W        W 8476   0.509   2.254   9.499  0.0120  0.2788 -0.0585
 8477W        W 8477   9.528   9.435   0.051  0.0178  0.2994  0.4728
 8478W        W 8478   7.098   1.211   1.679 -0.3161 -0.0819  0.3444
 8479W        W 8479   0.294   5.497   4.601 -0.0175  0.0808  0.0518
 8480W        W 8480   5.701   4.672   0.672  0.0065  0.4808 -0.3395
 8481W        W 8481   2.011   0.904   3.074 -0.0221 -0.0580  0.0633
 8482W        W 8482   7.914   8.611   1.735 -0.0114  0.2161 -0.2479
 8483W        W 8483   7.402   7.069   4.923 -0.0437  0.0661 -0.4263
 8484W        W 8484   1.697   9.310   0.522 -0.1692  0.0405  0.1415
 8485W        W 8485   5.683   6.888   4.232  0.4471 -0.1274 -0.2606
 8486W        W 8486   3.835   2.452   7.447  0.1703 -0.1669 -0.2388
 8487W        W 8487   4.288   5.184   9.885 -0.0549 -0.1324 -0.0204
 8488W        W 8488   1.842   7.036   0.771  0.4489 -0.0885 -0.0434
 8489W        W 8489   3.199   4.144   0.322  0.0900 -0.0743 -0.2324
 8490W        W 8490   2.514   3.829   7.119  0.0410  0.0677  0.1796
 8491W        W 8491   8.544   3.399   1.471 -0.1136 -0.3615  0.0877
 8492W        W 8492   2.943   9.453   8.140  0.2352  0.0720  0.3731
 8493W        W 8493   7.216   7.657   1.908 -0.1970 -0.1540  0.1420
 8494W        W 8494   2.248   5.128   0.720  0.1421 -0.1061  0.1360
 8495W        W 8495   2.070   6.129   5.628 -0.1763 -0.0957 -0.3233
 8496W        W 8496   7.134   0.390   2.084  0.0496  0.1302  0.0991
 8497W        W 8497   9.460   7.762   4.822 -0.1619 -0.1697  0.3188
 8498W        W 8498   1.864   0.415   6.055  0.1150 -0.1905  0.1774
 8499W        W 8499   5.164   5.768   9.793  0.1241  0.2807  0.0175
 8500W        W 8500   3.885   9.033  10.240  0.0408  0.0748 -0.4336
 8501W        W 8501   8.656   2.609   5.230  0.0997  0.3191 -0.0029
 8502W        W 8502  10.348   3.724   2.226  0.1071  0.0429  0.1715
 8503W        W 8503   6.185   5.604   2.300  0.1417 -0.0352  0.0407
 8504W        W 8504   4.333   6.397   1.737  0.0409  0.0108  0.3921
 8505W        W 8505   3.688   7.606   1.364 -0.2945 -0.1765  0.2476
 8506W        W 8506   5.728   6.590   6.895 -0.0286  0.1130 -0.1578
 8507W        W 8507   4.020   2.640   4.972 -0.1254  0.0433 -0.4169
 8508W        W 8508   9.257   9.427   6.905  0.1043  0.2620 -0.1212
 8509W        W 8509   8.708   7.293   3.339  0.2586 -0.0859 -0.2934
 8510W        W 8510   9.064   7.778   4.136  0.1069  0.0056  0.1277
 8511W        W 8511   6.932   3.344   3.539  0.0883 -0.2833  0.1862
 8512W        W 8512   0.187   7.273   6.127  0.3139 -0.2573  0.1641
 8513W        W 8513  10.284   5.973   8.078 -0.1050 -0.2213 -0.2511
 8514W        W 8514   9.756   3.900   6.775 -0.0231 -0.1093  0.2562
 8515W        W 8515   4.512   2.054   4.361 -0.0364  0.1898 -0.0400
 8516W        W 8516   2.505   9.669   7.380  0.1392  0.1730 -0.2237
 8517W        W 8517   2.531   1.825   6.406 -0.1085 -0.0964 -0.1589
 8518W        W 8518   2.877   9.043   0.734 -0.0827 -0.0801 -0.3468
 8519W        W 8519   1.380   5.454   2.798 -0.0440  0.2805  0.0732
 8520W        W 8520   0.553   6.964   8.961  0.0534 -0.1669  0.0481
 8521W        W 8521   1.796   9.889   5.131  0.0850  0.2305 -0.0603
 8522W        W 8522   5.388   5.364   6.916  0.0455  0.3345 -0.0466
 8523W        W 8523   0.339   9.347   2.914  0.0067 -0.0149  0.1480
 8524W        W 8524   5.162   4.616   8.829  0.2345  0.0367  0.0277
 8525W        W 8525   1.991   7.310   4.067 -0.2288 -0.1393 -0.1353
 8526W        W 8526   9.475   4.773   6.981  0.2001 -0.1764 -0.0299
 8527W        W 8527   4.758   3.447   5.173 -0.1701 -0.0391 -0.1162
 8528W        W 8528   2.987   0.273   8.897 -0.0266  0.1488  0.1275
 8529W        W 8529   2.556   2.842   4.318  0.0275  0.2789  0.0976
 8530W        W 8530   7.641   9.887   2.189 -0.1978 -0.0054 -0.0587
 8531W        W 8531   3.990   0.587   8.155 -0.4230  0.1115 -0.1640
 8532W        W 8532   7.622   1.961   5.266  0.0608  0.2954  0.2622
 8533W        W 8533   4.338   1.232   2.645  0.3104 -0.2810  0.1784
 8534W        W 8534   0.393   5.305   5.756  0.3210 -0.1858 -0.0400
 8535W        W 8535   9.311   4.773  10.039 -0.0182  0.0337 -0.1440
 8536W        W 8536   9.385   5.711   7.561  0.2199  0.1004 -0.3130
 8537W        W 8537   4.532   4.191   5.493  0.1180  0.0021 -0.0082
 8538W        W 8538   9.015   6.402   3.927 -0.3299 -0.0789  0.1776
 8539W        W 8539   2.864   6.102   3.985  0.0246  0.0226 -0.0207
 8540W        W 8540   5.862   1.516   1.416  0.0412  0.1813  0.1961
 8541W        W 8541   4.556   6.698   6.119 -0.0066 -0.0823 -0.2294
 8542W        W 8542   4.946   0.651   7.216 -0.1443 -0.1593  0.1200
 8543W        W 8543   8.503   1.106   5.898 -0.0835 -0.2585 -0.3834
 8544W        W 8544   5.710   6.727   7.758  0.0503  0.2286 -0.1829
 8545W        W 8545   4.199   0.326   4.745  0.0911 -0.4105  0.1736
 8546W        W 8546   9.277   7.798   7.705  0.1009 -0.0406 -0.3545
 8547W        W 8547   6.572   1.305   1.929  0.1051 -0.0782 -0.1581
 8548W        W 8548   5.684   2.296   6.986  0.0497  0.1161 -0.1022
 8549W        W 8549   8.938   4.360   8.247 -0.0098 -0.0517  0.1670
 8550W        W 8550   2.458   5.023   6.500 -0.0292 -0.0414  0.4728
 8551W        W 8551   4.140   6.685   5.645  0.0896  0.3194 -0.4130
 8552W        W 8552   0.038   9.639   8.685  0.0534  0.1744 -0.1613
 8553W        W 8553   2.356   8.201   3.170 -0.0120 -0.1098  0.2143
 8554W        W 8554   4.754   2.709   6.171 -0.3627  0.1631 -0.1025
 8555W        W 8555   8.127   5.405   9.339 -0.3969 -0.1009  0.0506
 8556W        W 8556   2.357   7.020   7.494 -0.0047  0.2869 -0.1018
 8557W        W 8557   0.292   8.120   6.402 -0.1972  0.0665 -0.2757
 8558W        W 8558   5.819   8.172   5.674  0.0536  0.1560  0.0294
 8559W        W 8559   9.987   5.877   0.213 -0.2000  0.2841  0.0554
 8560W        W 8560   4.912  10.161   0.246 -0.2610  0.0402  0.0914
 8561W        W 8561   1.058   0.007   1.995 -0.1431 -0.1499 -0.0089
 8562W        W 8562   5.929   4.664   3.353  0.0843 -0.0592 -0.1338
 8563W        W 8563   5.127   4.078   9.719  0.1573 -0.1046  0.1466
 8564W        W 8564   5.223   5.067   0.332  0.0392 -0.0264 -0.3000
 8565W        W 8565   5.802   4.897   7.943  0.0599 -0.1272  0.4661
 8566W        W 8566   4.221   7.006   6.410  0.2227 -0.0676 -0.0714
 8567W        W 8567   0.659   6.610   9.832 -0.2520  0.0896 -0.1442
 8568W        W 8568   5.982   5.578   6.073  0.1213  0.5662 -0.3280
 8569W        W 8569   8.982   9.001   7.757  0.1161 -0.1352 -0.1255
 8570W        W 8570   7.359   0.380   7.554 -0.0084  0.1006 -0.2486
 8571W        W 8571   0.593   1.733   3.133 -0.0335 -0.1510  0.1152
 8572W        W 8572   0.305   5.496   7.765  0.6531  0.2124  0.1922
 8573W        W 8573   9.769   0.540   9.433  0.0919  0.1314 -0.2611
 8574W        W 8574   1.766   7.576   4.419  0.0852 -0.1122 -0.2135
 8575W        W 8575   5.482   7.461   5.790  0.0141 -0.0042  0.1746
 8576W        W 8576   6.132   8.186   3.695 -0.0335 -0.0874  0.0111
 8577W        W 8577   5.326   3.745   0.695 -0.2402 -0.1043 -0.0418
 8578W        W 8578   4.731   7.537   0.102  0.1031  0.1108  0.4076
 8579W        W 8579   7.827   5.243   8.132 -0.0910 -0.0488 -0.1550
 8580W        W 8580   0.369   8.465  10.202 -0.1928  0.0015  0.0872
 8581W        W 8581   8.357   2.980   5.362  0.3843 -0.1167  0.5437
 8582W        W 8582   1.667   7.913   8.943 -0.2099 -0.1847 -0.1881
 8583W        W 8583   6.204   6.821   8.592 -0.0394 -0.1581 -0.2545
 8584W        W 8584   6.592   2.717   9.814  0.2931 -0.0570 -0.0938
 8585W        W 8585   9.995   5.808   5.641 -0.0116 -0.1925  0.0820
 8586W        W 8586  10.333   8.042   5.672 -0.1968  0.4961 -0.2798
 8587W        W 8587   0.904   2.680   9.311 -0.2793  0.0083 -0.1879
 8588W        W 8588   4.253   1.655   2.836 -0.1532 -0.1636  0.2528
 8589W        W 8589   8.867   3.087   1.834 -0.2172  0.1925  0.0277
 8590W        W 8590   3.125   3.569   8.612  0.1114 -0.0963 -0.3348
 8591W        W 8591   1.148   4.686   8.529 -0.1490 -0.0808 -0.0877
 8592W        W 8592   5.815   7.715   5.450 -0.0354 -0.0375  0.1425
 8593W        W 8593   8.885  10.338   6.116 -0.2876 -0.0636 -0.0525
 8594W        W 8594   9.443  10.306   4.235  0.0423  0.3837 -0.1237
 8595W        W 8595   1.965   2.716   6.492  0.3976 -0.0239 -0.0829
 8596W        W 8596   1.616   5.834   8.075 -0.0997 -0.0992 -0.3250
 8597W        W 8597   4.035   0.079   7.904  0.0742  0.1697  0.1727
 8598W        W 8598   1.610   7.612   3.746 -0.1096 -0.0561  0.0825
 8599W        W 8599   4.023   3.078   8.104 -0.2145 -0.0171 -0.2283
 8600W        W 8600   6.681   8.854   5.372 -0.2396  0.0898  0.1843
 8601W        W 8601   8.481   5.984   7.793 -0.3858  0.3660 -0.1350
 8602W        W 8602   7.202   1.938   9.385  0.3453 -0.3287 -0.1002
 8603W        W 8603   1.726   0.604   0.650 -0.0537  0.0150  0.2334
 8604W        W 8604   0.046   2.508   4.131  0.1659 -0.2434 -0.0354
 8605W        W 8605   1.402   5.639   0.116  0.0264 -0.0266  0.2902
 8606W        W 8606   4.021   7.082   9.802 -0.0864 -0.0961  0.2202
 8607W        W 8607   7.086   6.225   9.075 -0.0775 -0.2301  0.1093
 8608W        W 8608   9.816   1.707   6.520 -0.1157  0.1135 -0.1637
 8609W        W 8609   6.801   7.656   0.258 -0.2839  0.0482  0.2884
 8610W        W 8610   1.845   1.201   4.298  0.1166 -0.1603  0.1063
 8611W        W 8611   5.683   4.058   9.545 -0.0959  0.0149  0.1409
 8612W        W 8612   4.450   3.240   2.860  0.1360  0.0906  0.1273
 8613W        W 8613   6.629   0.184   4.707  0.4429 -0.1358  0.0607
 8614W        W 8614   2.660  10.188   2.606 -0.1317  0.0931  0.1239
 8615W        W 8615   7.952   1.224   6.637  0.0323 -0.1464 -0.0244
 8616W        W 8616   5.319   7.116   4.505 -0.2649 -0.2488 -0.0023
 8617W        W 8617   2.958   3.308   7.825  0.2561  0.2105  0.1134
 8618W        W 8618   0.637   8.519   9.420  0.1170 -0.1468  0.3016
 8619W        W 8619   9.391   3.268   6.702 -0.0966 -0.4449  0.2726
 8620W        W 8620   4.645   1.892   7.545 -0.1235  0.1280 -0.1832
 8621W        W 8621   1.818   8.260   9.891 -0.1117  0.2506 -0.0724
 8622W        W 8622   9.805   7.873   8.486  0.0125  0.1978  0.3581
 8623W        W 8623   5.545  10.094   4.307 -0.2284 -0.2638  0.0849
 8624W        W 8624   2.476   2.071   2.464 -0.1863  0.1181 -0.1559
 8625W        W 8625   9.480   7.363   6.842 -0.2742 -0.0696 -0.2970
 8626W        W 8626   3.715   5.177   1.427  0.0864  0.1389  0.0736
 8627W        W 8627   3.295   6.920   2.744 -0.1947  0.1106  0.1759
 8628W        W 8628   6.418   0.114   6.402  0.0954 -0.0453  0.0420
 8629W        W 8629   5.703   3.944   5.818 -0.0196 -0.1605 -0.1655
 8630W        W 8630   0.904   8.875   0.719 -0.1173 -0.1392 -0.1384
 8631W        W 8631   3.354   0.056   1.305  0.2325 -0.0065  0.1316
 8632W        W 8632   4.678   5.961   1.357 -0.2145  0.1665  0.0678
 8633W        W 8633   1.004   3.166   7.596 -0.1437  0.1200  0.1276
 8634W        W 8634   0.151   7.306   0.501  0.1442 -0.3115  0.1649
 8635W        W 8635   0.043   2.788   5.088 -0.0528  0.2276  0.2831
 8636W        W 8636   8.815   2.512   3.776 -0.2846 -0.0246  0.0494
 8637W        W 8637   6.275   3.710   6.738 -0.4619 -0.3770 -0.0238
 8638W        W 8638   1.533   4.613   0.956  0.0493  0.3808  0.1823
 8639W        W 8639   8.727   0.666  10.285 -0.2804  0.0857  0.0473
 8640W        W 8640   2.125   9.210   8.701 -0.0043 -0.0966  0.0580
 8641W        W 8641   6.968   6.611   3.350 -0.0741 -0.0993 -0.0551
 8642W        W 8642   1.871   9.659   7.901 -0.3331 -0.2020 -0.2063
 8643W        W 8643   7.951   2.385   7.438  0.2626 -0.3050  0.2601
 8644W        W 8644   0.889   5.718   8.394  0.0367 -0.2028 -0.1237
 8645W        W 8645   5.620   1.113   5.194 -0.3869  0.1449  0.1254
 8646W        W 8646   1.512   6.559   6.869 -0.0734  0.2399 -0.2062
 8647W        W 8647   4.738   5.554   3.888 -0.2445  0.2617 -0.0864
 8648W        W 8648   9.973   7.377  10.061 -0.1828  0.0710  0.2398
 8649W        W 8649   0.688   1.595   6.861  0.0229 -0.0379  0.0582
 8650W        W 8650  10.234   1.950   5.496  0.2974  0.0498  0.1350
 8651W        W 8651   8.171   2.542   6.411  0.0903 -0.0103 -0.0888
 8652W        W 8652   3.237   9.233   1.045  0.0762  0.1890  0.0871
 8653W        W 8653   9.127   7.367   3.856 -0.0734  0.1754  0.1248
 8654W        W 8654   1.466   8.244   7.579  0.0832 -0.1174 -0.1545
 8655W        W 8655   8.078   3.837   8.457  0.3246  0.1038 -0.1627
 8656W        W 8656   6.196   8.588   6.103  0.0391 -0.0830 -0.3331
 8657W        W 8657   5.074   1.705   3.520  0.0559 -0.0569  0.1897
 8658W        W 8658   0.531   4.426   1.102 -0.0761 -0.0900  0.0076
 8659W        W 8659   2.088   3.395   1.127 -0.1194  0.0415  0.0866
 8660W        W 8660   5.441   3.533   1.109  0.1035  0.0332 -0.1817
 8661W        W 8661   5.692   8.630   1.269 -0.1722  0.3739 -0.3927
 8662W        W 8662   1.266   2.919   2.693 -0.2011  0.1782  0.3014
 8663W        W 8663   8.312   7.049   3.100 -0.1570  0.1225  0.2024
 8664W        W 8664   6.300   2.012   5.902  0.1020 -0.2373  0.2308
 8665W        W 8665   7.589  10.247   4.579  0.1093 -0.0900 -0.1174
 8666W        W 8666   6.683   6.378   5.712  0.0727  0.0661 -0.0270
 8667W        W 8667   7.411   8.668   2.399 -0.4049  0.2412 -0.0216
 8668W        W 8668   2.075   9.288   2.049 -0.0193  0.0284  0.1336
 8669W        W 8669   8.014   8.623   5.597  0.1625 -0.1388 -0.2042
 8670W        W 8670   6.971   7.170   8.538 -0.3823 -0.0320 -0.1799
 8671W        W 8671   0.080   4.009   5.746  0.0883 -0.0512 -0.1832
 8672W        W 8672   8.286   7.597   5.567 -0.0758  0.3265  0.0082
 8673W        W 8673   2.345   7.104   8.889 -0.0454 -0.2337  0.0631
 8674W        W 8674   6.262   8.466   2.217  0.1229  0.0941 -0.1571
 8675W        W 8675   1.696   2.288   3.818 -0.0377 -0.0542 -0.0713
 8676W        W 8676   1.731   0.232   6.825  0.2301  0.0885 -0.2908
 8677W        W 8677   6.894   8.599   6.519  0.0827  0.0022  0.1075
 8678W        W 8678   1.011   9.459   3.105 -0.0705 -0.1782  0.1925
 8679W        W 8679   9.163   2.524   5.441 -0.0608 -0.1750 -0.2757
 8680W        W 8680   1.663   7.526   6.987 -0.1521 -0.0030 -0.2139
 8681W        W 8681   4.588   6.584   5.226  0.3157 -0.1253  0.1211
 8682W        W 8682   2.408   4.551  10.299 -0.2143  0.3657 -0.1584
 8683W        W 8683   2.354   8.479   7.651 -0.1780 -0.2238 -0.1429
 8684W        W 8684   8.435   8.462   4.373 -0.1262  0.3690  0.2770
 8685W        W 8685   8.129   2.984   1.351 -0.0947  0.2091  0.2138
 8686W        W 8686   8.106   1.531   4.634 -0.0753  0.0777 -0.3033
 8687W        W 8687   9.075   2.996   7.911  0.2748 -0.1637 -0.1443
 8688W        W 8688   4.384   9.635   6.785  0.3183  0.0124  0.2190
 8689W        W 8689   3.458   1.049   2.806  0.2847 -0.3248  0.0413
 8690W        W 8690   0.494   4.798   9.266 -0.0920  0.0530  0.1052
 8691W        W 8691   3.886   7.067  10.330  0.1104  0.4722  0.3189
 8692W        W 8692   9.066   0.688   8.856  0.0882 -0.0986  0.0149
 8693W        W 8693  10.052   7.630   8.846 -0.0634 -0.1348  0.4029
 8694W        W 8694   3.564   2.543   4.082  0.3054 -0.0601  0.0606
 8695W        W 8695   1.233   7.403   2.867 -0.0251 -0.0948  0.0297
 8696W        W 8696   3.179   5.305   3.584  0.1271 -0.3504  0.1414
 8697W        W 8697   3.521   0.394   7.879  0.0951  0.2817  0.2475
 8698W        W 8698   5.031   8.616   6.739  0.0767  0.1042  0.0974
 8699W        W 8699   6.603   6.976   3.381  0.3057 -0.0874 -0.3880
 8700W        W 8700   3.573   6.401   9.698 -0.1333  0.2842 -0.4024
 8701W        W 8701   9.094   6.666   8.611 -0.0343 -0.0170 -0.0689
 8702W        W 8702   5.226   2.948   8.930  0.0152 -0.0431  0.0042
 8703W        W 8703   1.221   0.587   8.476  0.0573 -0.1536 -0.1995
 8704W        W 8704   8.633   3.275   9.209  0.2915 -0.0452 -0.0129
 8705W        W 8705   0.376   2.937   2.410  0.4209 -0.4195  0.0633
 8706W        W 8706   9.849   4.530   5.980 -0.1639  0.0769 -0.4142
 8707W        W 8707   9.406   4.325   7.508 -0.0089 -0.0584  0.0625
 8708W        W 8708   2.886   0.518   0.211 -0.1353 -0.2255 -0.2573
 8709W        W 8709   4.330   9.352   2.321  0.3882 -0.3574  0.0396
 8710W        W 8710   1.387   0.124   8.283  0.2140  0.0941  0.1735
 8711W        W 8711   2.009   7.703   9.906  0.1616 -0.1275  0.0455
 8712W        W 8712   6.380   2.744   1.725  0.2956 -0.0104 -0.2140
 8713W        W 8713   6.031   0.272   1.121 -0.0722 -0.2690  0.3769
 8714W        W 8714  10.319   7.255   5.641  0.0413  0.1941  0.0891
 8715W        W 8715   3.335   5.956   4.346 -0.1173 -0.0354  0.1797
 8716W        W 8716   0.389   2.589   3.778 -0.3829 -0.0720  0.0745
 8717W        W 8717   4.727   6.496   0.613  0.1741  0.0299  0.1318
 8718W        W 8718  10.188   9.834   3.750  0.2173  0.1459  0.0522
 8719W        W 8719   3.312   0.604   9.592  0.0945  0.2277 -0.1243
 8720W        W 8720   3.148   7.818   8.542 -0.1096 -0.0611 -0.0167
 8721W        W 8721   8.245   8.239  10.127 -0.2102  0.3237 -0.2369
 8722W        W 8722   2.957   6.361   7.143  0.1668 -0.0213  0.0396
 8723W        W 8723   5.125   2.884   5.093  0.1919  0.0653 -0.0437
 8724W        W 8724   5.947   7.085   2.699  0.1155 -0.0245 -0.2097
 8725W        W 8725   3.129   4.553   1.146 -0.2539  0.0516 -0.0516
 8726W        W 8726   1.061   8.343   4.866  0.2184 -0.4481  0.0812
 8727W        W 8727   6.863   8.208   8.628 -0.0835 -0.0998 -0.1230
 8728W        W 8728   7.861   9.707   9.776  0.1846  0.0621  0.2231
 8729W        W 8729   6.737   2.701   7.765  0.0989  0.0171 -0.0810
 8730W        W 8730   3.346   2.013   1.284  0.2583  0.0835  0.0845
 8731W        W 8731   3.781   4.170   9.119 -0.3561  0.1389 -0.0174
 8732W        W 8732   9.957   3.105   9.135 -0.2193 -0.0999 -0.1208
 8733W        W 8733   0.534   3.691   4.010  0.0247 -0.0278  0.0511
 8734W        W 8734   1.769   3.862   3.683 -0.2562 -0.0105  0.1309
 8735W        W 8735   3.542   1.059   2.234 -0.1443 -0.0584  0.0931
 8736W        W 8736   5.143   1.908   5.332 -0.4221 -0.0268  0.0326
 8737W        W 8737   2.194   2.496   6.857 -0.4368  0.0465  0.0197
 8738W        W 8738   5.990   5.124   2.271 -0.0712  0.1093  0.1521
 8739W        W 8739   5.914   2.049   7.328 -0.2760  0.2781  0.0262
 8740W        W 8740   8.583   7.216   5.899  0.0473 -0.1740 -0.0981
 8741W        W 8741   4.927   8.861   7.762  0.1434  0.0042  0.1111
 8742W        W 8742   4.898   5.478   9.008 -0.0266  0.2879  0.0106
 8743W        W 8743   8.859   0.313   1.175 -0.0144  0.4266 -0.2516
 8744W        W 8744   5.961   8.696   6.521  0.0310  0.1177  0.1967
 8745W        W 8745  10.021   0.588   9.954  0.0943  0.0253 -0.0896
 8746W        W 8746   9.007   8.847   2.906 -0.0964  0.2477 -0.0306
 8747W        W 8747   4.176   9.896   9.425 -0.1159 -0.0649 -0.1973
 8748W        W 8748   9.037   2.698   1.547  0.0716 -0.4258  0.1356
 8749W        W 8749   6.613   8.945   1.127 -0.0297 -0.3979  0.1513
 8750W        W 8750   9.207   6.610   2.097 -0.0236 -0.0644  0.4466
 8751W        W 8751   6.789   7.656   7.765 -0.3278  0.0346  0.2838
 8752W        W 8752   9.603   8.406  10.140  0.0932 -0.0462 -0.0150
 8753W        W 8753   3.875  10.340   2.017  0.2092 -0.0009 -0.1114
 8754W        W 8754   6.584   3.011   3.958 -0.1448 -0.2787 -0.1828
 8755W        W 8755   9.065   1.034   0.101 -0.1062  0.1903 -0.0952
 8756W        W 8756   5.897   1.806   6.884 -0.3413 -0.0240 -0.0986
 8757W        W 8757   2.475   2.356   5.907  0.0592 -0.0754  0.0899
 8758W        W 8758   7.901   9.182   5.292  0.1947 -0.1247 -0.0710
 8759W        W 8759   3.591   5.713  10.146  0.0721  0.2898  0.1335
 8760W        W 8760   2.653   8.475   2.797  0.2021 -0.1038  0.1213
 8761W        W 8761  10.270   0.489   7.252  0.0383 -0.0508 -0.1580
 8762W        W 8762   7.699   0.438   8.010  0.0445 -0.2018 -0.3181
 8763W        W 8763   6.086   2.244   0.867 -0.0368  0.0135  0.0360
 8764W        W 8764   6.541   1.870   6.785  0.0698  0.0775  0.2283
 8765W        W 8765   1.189   3.904   5.485  0.1415  0.1703 -0.2779
 8766W        W 8766   9.460   7.165   5.756 -0.2111 -0.4132  0.0140
 8767W        W 8767   9.831   6.478   5.117  0.0869 -0.0455  0.1708
 8768W        W 8768   2.442   5.271   9.594 -0.0973  0.2046  0.0858
 8769W        W 8769   9.555   1.384   9.027  0.0835  0.2976  0.0771
 8770W        W 8770   7.833   5.793   3.036 -0.0183 -0.1925 -0.0313
 8771W        W 8771   4.737   0.801   4.214 -0.1472  0.1574  0.0848
 8772W        W 8772   2.841   1.860   1.659  0.0100  0.0075 -0.4635
 8773W        W 8773   7.088   4.885   1.685  0.0464  0.0439 -0.0548
 8774W        W 8774   1.549   0.729   7.717  0.1700  0.1859 -0.7522
 8775W        W 8775   0.069   2.284  10.133  0.0537  0.0042 -0.1805
 8776W        W 8776   0.922   1.874   9.754 -0.1207  0.0631  0.0554
 8777W        W 8777   9.161   1.156   4.305  0.2308 -0.0686  0.0724
 8778W        W 8778   1.811   5.724   4.705 -0.1508 -0.2330  0.5396
 8779W        W 8779   4.006   5.937   2.031 -0.0700  0.3315 -0.0543
 8780W        W 8780   6.083   4.998   8.429 -0.0208  0.1490 -0.0405
 8781W        W 8781   3.305   7.622   6.701 -0.2003  0.3383 -0.1494
 8782W        W 8782  10.250   5.447   5.809  0.2682 -0.2806 -0.1448
 8783W        W 8783   0.279   5.204  10.045 -0.0334 -0.0510 -0.3353
 8784W        W 8784   4.709   1.771   1.123 -0.0612  0.0738 -0.0977
 8785W        W 8785   8.036   4.547   0.166  0.0348  0.2563 -0.0255
 8786W        W 8786   7.272   1.232   4.016  0.1298  0.2376  0.0797
 8787W        W 8787   6.243   9.562   8.118  0.0124  0.3105  0.1120
 8788W        W 8788   7.984  10.046   4.115  0.2595 -0.0040 -0.0206
 8789W        W 8789   8.827   6.952   2.143  0.1192  0.2827 -0.3407
 8790W        W 8790   3.301   0.564   0.517 -0.1743  0.1174  0.0474
 8791W        W 8791   9.735   1.941   6.019  0.2926 -0.1641 -0.1963
 8792W        W 8792   7.793   3.912   7.715  0.0207  0.1719  0.1275
 8793W        W 8793   6.344   1.813   5.355 -0.1393  0.0593  0.0335
 8794W        W 8794   7.223   7.531   6.105  0.1721  0.1604  0.0862
 8795W        W 8795   6.222   8.488   5.618  0.0345  0.3208  0.1013
 8796W        W 8796   6.588   1.542   9.116  0.1775 -0.1587  0.1101
 8797W        W 8797   6.577   5.526   8.662 -0.0300  0.0274 -0.3119
 8798W        W 8798   8.851   2.624   9.986  0.1072 -0.0275 -0.0341
 8799W        W 8799   8.241   3.915   7.501  0.0352  0.2444 -0.0682
 8800W        W 8800   6.129   9.151   9.809  0.2716 -0.0620 -0.0908
 8801W        W 8801  10.047   5.142  10.153  0.0995  0.1900  0.0529
 8802W        W 8802   9.059   9.930   3.413 -0.0425 -0.0095 -0.2261
 8803W        W 8803   4.388   1.747   5.829 -0.1055  0.2006  0.0653
 8804W        W 8804   1.246   2.757   9.714  0.0173 -0.1862 -0.0559
 8805W        W 8805   4.249   7.545   6.382  0.0692  0.0075 -0.2101
 8806W        W 8806   5.920   0.881   3.195 -0.2313 -0.0620 -0.2477
 8807W        W 8807   3.796   8.903   3.464  0.0721  0.1941  0.1196
 8808W        W 8808   7.654   6.422   6.368 -0.1903  0.2302  0.1550
 8809W        W 8809  10.350   1.257   1.818 -0.3124  0.0361 -0.1345
 8810W        W 8810   6.485   9.267   2.584 -0.1266 -0.1607 -0.0849
 8811W        W 8811   4.807   6.479   3.310  0.1510 -0.4730 -0.0812
 8812W        W 8812   1.178   1.230  10.295 -0.1008  0.1159 -0.3339
 8813W        W 8813   0.131  10.105  10.309  0.0582  0.4326  0.1396
 8814W        W 8814   9.780   1.706   4.594  0.1933  0.2307 -0.0414
 8815W        W 8815   3.572   4.503   1.817  0.0470 -0.1146 -0.0738
 8816W        W 8816   5.541   8.029   6.586 -0.0771 -0.3995 -0.1078
 8817W        W 8817   1.473   5.724   0.888  0.0463 -0.1765 -0.2163
 8818W        W 8818   3.623   7.484   7.712  0.2533 -0.1193 -0.0165
 8819W        W 8819   6.175   1.003   5.907 -0.1060  0.0878  0.1838
 8820W        W 8820   4.803   4.473   7.783  0.1454 -0.2026 -0.1923
 8821W        W 8821   8.030   8.849   3.682  0.1465 -0.3829 -0.1326
 8822W        W 8822   2.132   0.448   4.338  0.0709  0.1031 -0.2016
 8823W        W 8823   2.624   8.461   5.147  0.2242  0.1017 -0.3356
 8824W        W 8824   1.092   7.133   7.709 -0.0909 -0.0253 -0.1532
 8825W        W 8825   8.256  10.099   8.985  0.2688 -0.0073 -0.2983
 8826W        W 8826   2.668   0.865   1.600 -0.2105 -0.2896  0.4832
 8827W        W 8827   2.839   6.474   9.859 -0.4231 -0.2476 -0.0080
 8828W        W 8828   8.096   4.520   9.503  0.0272  0.0569  0.0680
 8829W        W 8829   9.473   9.190   9.811  0.0264 -0.0521  0.0390
 8830W        W 8830   1.851   7.104   1.834 -0.3524 -0.1118 -0.1175
 8831W        W 8831   7.339   0.447   6.364 -0.1326 -0.2180  0.1598
 8832W        W 8832   7.810   0.927   0.075 -0.3735  0.1258 -0.2613
 8833W        W 8833   1.185   6.332   9.096 -0.2076  0.1077 -0.0208
 8834W        W 8834  10.296  10.002   8.319 -0.3322  0.1213  0.0677
 8835W        W 8835   5.585   6.458  10.274 -0.1070 -0.2498  0.2626
 8836W        W 8836   8.936   3.564   2.388 -0.0917  0.0505 -0.2274
 8837W        W 8837   4.788   6.384   8.692  0.0387 -0.0589  0.3463
 8838W        W 8838   4.601   7.247   8.546 -0.2432  0.2286 -0.1655
 8839W        W 8839   3.682   6.500   4.077  0.1723 -0.0141  0.3267
 8840W        W 8840   8.128   2.187   3.126 -0.2120 -0.1872 -0.1376
 8841W        W 8841   2.798   7.453   6.801  0.1760 -0.0409  0.1016
 8842W        W 8842   1.907   8.465   3.373 -0.1148 -0.0647 -0.0213
 8843W        W 8843   7.438   5.520   9.733  0.2336 -0.0839  0.0141
 8844W        W 8844   8.075   5.689   6.543  0.2678 -0.3672  0.0880
 8845W        W 8845   4.482   8.628   4.221 -0.0076 -0.0224 -0.1723
 8846W        W 8846   6.827   7.256   6.131 -0.1645 -0.0344 -0.0635
 8847W        W 8847   5.774   9.834   0.009 -0.0774  0.2309 -0.0178
 8848W        W 8848   3.875   8.728   4.815  0.0590  0.3000 -0.2758
 8849W        W 8849   8.187   8.138   8.200  0.1108  0.2900 -0.1984
 8850W        W 8850   7.528   6.795   3.199 -0.1079  0.0951  0.4117
 8851W        W 8851   4.574   7.028   4.907 -0.0540 -0.0482 -0.1141
 8852W        W 8852   1.299   4.984   2.239  0.0071  0.1998  0.0727
 8853W        W 8853   7.009   9.669   4.864 -0.0783  0.1165  0.1242
 8854W        W 8854   6.781   6.203   6.212 -0.0856 -0.3509 -0.2670
 8855W        W 8855  10.283   9.024   4.488  0.0370 -0.0402 -0.1924
 8856W        W 8856   5.825   2.355   6.034 -0.0240 -0.1208 -0.1864
 8857W        W 8857   4.258   6.743  10.107  0.1074 -0.0989  0.1449
 8858W        W 8858   3.156   4.386   4.149  0.3562 -0.0936  0.0997
 8859W        W 8859   9.993   1.830   0.623 -0.0405 -0.1051  0.0578
 8860W        W 8860   7.133   8.845   8.523  0.1512 -0.1710 -0.0609
 8861W        W 8861   2.867   8.556   3.266 -0.0273 -0.0027  0.1834
 8862W        W 8862   7.788  10.244   5.015 -0.6699  0.1060  0.0625
 8863W        W 8863   7.085   6.891   1.576 -0.1600  0.1997  0.0991
 8864W        W 8864   8.389   7.389   0.721 -0.2269 -0.0333  0.0369
 8865W        W 8865   8.037   2.822   0.444  0.1455 -0.1013  0.4106
 8866W        W 8866   5.817   3.969   1.167 -0.3115  0.2128 -0.0094
 8867W        W 8867   3.100   3.597   3.227 -0.1631  0.1640 -0.0892
 8868W        W 8868   6.700   9.811   6.721  0.2830 -0.3927 -0.0072
 8869W        W 8869   0.437   0.550   4.601  0.1541 -0.1084 -0.3183
 8870W        W 8870   9.317   0.512   4.129 -0.1016 -0.0179 -0.2537
 8871W        W 8871   6.737   9.859   4.482  0.0754  0.1588  0.2712
 8872W        W 8872   0.499   9.362   3.421 -0.1106 -0.1925 -0.1037
 8873W        W 8873   0.025   9.316   7.839 -0.0001  0.2335 -0.0847
 8874W        W 8874   3.076   5.723  10.133  0.0717  0.0996 -0.1528
 8875W        W 8875   7.909   5.226   4.878  0.2131  0.3704  0.0486
 8876W        W 8876   5.246   6.714   9.359  0.0035 -0.1172  0.1152
 8877W        W 8877   6.869   3.109   3.090  0.2982 -0.2172  0.0449
 8878W        W 8878   1.662   1.577   6.020 -0.1246  0.1289 -0.1691
 8879W        W 8879   6.079   4.146   6.635  0.2963 -0.0150 -0.0548
 8880W        W 8880   7.806   1.797   4.334 -0.2565  0.0432 -0.0683
 8881W        W 8881  10.102   5.387   0.249  0.1976 -0.2816  0.1413
 8882W        W 8882   2.017   7.605   9.278  0.1132  0.4525 -0.0621
 8883W        W 8883   3.957  10.130   2.523 -0.1249 -0.0294  0.0516
 8884W        W 8884   9.236   7.739   2.618  0.3393  0.0559  0.1345
 8885W        W 8885  10.190   8.803   6.179  0.1305  0.2401  0.1352
 8886W        W 8886   6.145   6.860   4.332 -0.0679  0.2757  0.0569
 8887W        W 8887   3.053  10.203   7.805  0.0637 -0.0490 -0.2233
 8888W        W 8888   1.348   6.826   1.128  0.1751  0.0222  0.0011
 8889W        W 8889   5.728   8.880   2.964 -0.0799  0.0867  0.1071
 8890W        W 8890   4.372   4.826   3.639 -0.0841  0.2031 -0.1049
 8891W        W 8891   2.384   2.978   6.626 -0.1159 -0.0090  0.1285
 8892W        W 8892   9.280   6.084   3.025  0.2294  0.1056  0.0362
 8893W        W 8893   4.888   5.183   6.945  0.0500 -0.0592  0.1313
 8894W        W 8894   6.234   0.853   7.040  0.1962  0.2127  0.0176
 8895W        W 8895   3.718   4.462   4.396  0.0096  0.2583  0.2821
 8896W        W 8896   6.258   5.591   7.488  0.1212  0.2545  0.0778
 8897W        W 8897  10.193   6.372   4.747 -0.3723 -0.3013 -0.0057
 8898W        W 8898   2.269   3.647   0.181 -0.0633  0.0549  0.0718
 8899W        W 8899   9.630   4.063   9.246 -0.0544 -0.0714 -0.1670
 8900W        W 8900   6.839   3.236   5.361 -0.2131 -0.0857  0.1149
 8901W        W 8901   6.045   9.698   9.614 -0.2754 -0.0341 -0.2282
 8902W        W 8902  10.197   1.330   1.362 -0.1011 -0.2129  0.0070
 8903W        W 8903   0.908   3.427   0.845 -0.0851  0.0392  0.0346
 8904W        W 8904   8.216   1.571   6.826  0.0691 -0.2043 -0.0272
 8905W        W 8905   9.297   6.227   7.222 -0.2238 -0.3763 -0.3766
 8906W        W 8906   4.860   9.109   0.268 -0.1343  0.3195 -0.1649
 8907W        W 8907   9.095   4.044   3.922 -0.1386 -0.1763 -0.2700
 8908W        W 8908   7.553   7.804   1.439  0.1037 -0.1809  0.0175
 8909W        W 8909   7.232   9.749   7.288  0.2508  0.3138 -0.0140
 8910W        W 8910   5.362  10.191   7.814 -0.0218  0.2189 -0.0097
 8911W        W 8911   4.429   2.387   3.370 -0.0963 -0.3051 -0.0913
 8912W        W 8912   7.808   7.886   5.475  0.2639  0.3710 -0.0645
 8913W        W 8913   3.728   1.645   3.201 -0.0058 -0.3001 -0.2220
 8914W        W 8914   6.452   7.810   8.663 -0.3422  0.2152  0.0082
 8915W        W 8915   5.954   7.275   4.019  0.1018  0.1037  0.2117
 8916W        W 8916   8.536   1.403   9.220  0.0947  0.1288 -0.0554
 8917W        W 8917   4.481   5.753   2.570  0.1194 -0.0423 -0.2061
 8918W        W 8918  10.287   5.103   6.762 -0.4553  0.0223 -0.2740
 8919W        W 8919   1.242   7.816   3.378 -0.0999  0.0184 -0.1118
 8920W        W 8920   3.670   1.657   9.696  0.0720  0.1322 -0.2684
 8921W        W 8921   7.329   6.595   7.756 -0.1001 -0.3934 -0.3287
 8922W        W 8922   7.977   9.226   4.028  0.2566 -0.4786  0.2172
 8923W        W 8923   9.182   3.105   2.799  0.1987  0.0416 -0.1560
 8924W        W 8924   5.914   4.471   1.151  0.4113  0.2656  0.2394
 8925W        W 8925   2.942   8.807   1.223  0.0110 -0.3079 -0.0408
 8926W        W 8926   1.297   9.516   7.857  0.0628  0.1758  0.1080
 8927W        W 8927   8.158   4.951   5.323 -0.0427  0.2179  0.0404
 8928W        W 8928   3.685   8.620   2.550  0.0302  0.1988  0.1362
 8929W        W 8929   9.229   2.748   0.779  0.1081 -0.3911  0.3377
 8930W        W 8930   9.674   6.184   3.320 -0.0411  0.0885  0.0875
 8931W        W 8931   5.348   4.295   7.755 -0.0856  0.2666  0.1908
 8932W        W 8932   0.486   8.055   5.716 -0.1089 -0.1499  0.3129
 8933W        W 8933   4.632   0.968   6.894 -0.2194 -0.2754  0.0231
 8934W        W 8934   7.511   1.758   8.098  0.1486 -0.0638 -0.3394
 8935W        W 8935   9.924   2.484   1.381 -0.2305  0.0311  0.3197
 8936W        W 8936   3.862   9.358   5.945 -0.2751 -0.1438 -0.2232
 8937W        W 8937  10.153  10.015   9.964  0.0144  0.0912 -0.0534
 8938W        W 8938   3.665   7.944   5.815  0.0441 -0.0034  0.1135
 8939W        W 8939   3.751   8.502   9.490  0.2042  0.0143 -0.0520
 8940W        W 8940   6.671   3.697   1.419  0.1283  0.1412  0.0410
 8941W        W 8941   1.100   0.326   2.407 -0.0271 -0.1594 -0.1641
 8942W        W 8942   0.077   2.500   5.521  0.0780 -0.2267 -0.1316
 8943W        W 8943   2.365   9.065  10.338  0.0320 -0.4017  0.0856
 8944W        W 8944   1.659   4.216  10.237  0.0486 -0.1297  0.1163
 8945W        W 8945   5.354   8.546   7.934 -0.2219 -0.2077  0.0426
 8946W        W 8946   8.718   5.857   6.602  0.4747  0.0626  0.2210
 8947W        W 8947   4.020   9.808   4.878 -0.4437  0.1382 -0.2623
 8948W        W 8948   6.501   2.619   6.667 -0.0904 -0.2066 -0.0126
 8949W        W 8949   4.817   4.496   9.789 -0.1280  0.0703 -0.0282
 8950W        W 8950   8.677   2.986   4.889 -0.3440 -0.4473 -0.0824
 8951W        W 8951   4.508   4.162   9.534  0.1562  0.1235  0.0742
 8952W        W 8952   8.834   1.972   3.466  0.1536  0.0146  0.0768
 8953W        W 8953   7.828  10.101   8.662 -0.0332 -0.0778 -0.0278
 8954W        W 8954   2.121   2.617   3.635 -0.1166  0.1180 -0.0589
 8955W        W 8955  10.043   3.242   3.660  0.0352 -0.1290 -0.1474
 8956W        W 8956   6.111   7.563   8.385  0.1935  0.2620 -0.1388
 8957W        W 8957   6.385   1.004   0.268  0.0494  0.0839  0.3498
 8958W        W 8958   1.655   3.585   7.496 -0.1754  0.0217 -0.0952
 8959W        W 8959   7.248   3.279   5.116  0.0440 -0.1681  0.0493
 8960W        W 8960   4.374   7.007   7.664  0.1584  0.1129  0.0956
 8961W        W 8961   8.993   5.924   2.541  0.1256  0.2573 -0.2551
 8962W        W 8962   3.804   4.490   7.539  0.0949 -0.2088 -0.1971
 8963W        W 8963   5.135   1.812   2.429  0.1838 -0.0436  0.1002
 8964W        W 8964   2.940   1.197   2.885  0.3697  0.2150  0.3254
 8965W        W 8965   8.232   8.335   1.987  0.0056  0.0154 -0.1343
 8966W        W 8966   6.315   9.255   0.532 -0.2327 -0.1039  0.2314
 8967W        W 8967   1.175  10.237   9.193  0.0506 -0.1103 -0.1525
 8968W        W 8968   0.167   4.065   9.685  0.0158 -0.0961  0.2367
 8969W        W 8969   7.936   5.188   1.656  0.1304  0.0945 -0.1177
 8970W        W 8970   9.931   9.459   1.853  0.0417  0.0287 -0.0296
 8971W        W 8971   6.727   6.037  10.074  0.2516 -0.3606 -0.1809
 8972W        W 8972   7.489   5.386   4.994 -0.1032  0.0903  0.2764
 8973W        W 8973   6.145   6.774   2.262 -0.3814 -0.2968 -0.1326
 8974W        W 8974   4.856  10.065  10.056 -0.1193  0.0186  0.0656
 8975W        W 8975   3.476   9.660   9.864  0.0563 -0.1425 -0.2720
 8976W        W 8976   1.531  10.050   0.463  0.2262 -0.0916 -0.0856
 8977W        W 8977   4.677   0.896   6.170  0.1848 -0.0306  0.1993
 8978W        W 8978   2.922   7.393   3.620 -0.1641  0.3468  0.2086
 8979W        W 8979   2.536   9.802   1.961  0.0300 -0.0945 -0.0505
 8980W        W 8980   2.463   7.061   5.992 -0.2262  0.1481 -0.1587
 8981W        W 8981   0.561   7.007   2.080 -0.1815  0.2773 -0.0660
 8982W        W 8982   7.817   1.279   0.459  0.1460  0.2641 -0.3077
 8983W        W 8983   8.681   6.395   9.274  0.1535 -0.1024  0.3529
 8984W        W 8984   8.133   1.895   7.992  0.1808  0.0873 -0.0981
 8985W        W 8985   2.766   1.501   0.226 -0.1469  0.0128  0.1181
 8986W        W 8986   5.679   5.759   1.080 -0.0483 -0.2098  0.3386
 8987W        W 8987   0.186   3.064   3.921  0.1453 -0.0472 -0.1963
 8988W        W 8988   5.631   2.934   7.062  0.0858 -0.0390 -0.1687
 8989W        W 8989   9.520   4.831   5.593 -0.0533 -0.0929 -0.0673
 8990W        W 8990   1.597   8.028   5.720 -0.3226  0.2719  0.1261
 8991W        W 8991  10.334   5.673  10.231 -0.0973 -0.3397  0.0552
 8992W        W 8992   4.263   0.248   8.458 -0.0168  0.0761 -0.2060
 8993W        W 8993   0.670   8.210   2.564  0.1596  0.3173 -0.0524
 8994W        W 8994   2.847   0.370   9.678 -0.1320  0.0370 -0.0566
 8995W        W 8995   4.659   8.447   6.396  0.0548 -0.0731 -0.1880
 8996W        W 8996   6.413   3.589   5.056  0.1075 -0.1367  0.2288
 8997W        W 8997   1.430   2.504   0.081  0.2405 -0.1374 -0.1416
 8998W        W 8998   1.417  10.138   1.000 -0.2140  0.0199 -0.1414
 8999W        W 8999   7.547   8.816   3.436  0.0918 -0.0756  0.2377
 9000W        W 9000   3.462   2.030   9.940  0.0250  0.3354  0.2588
 9001W        W 9001   8.429   9.701   4.764  0.0788  0.1979  0.0651
 9002W        W 9002   4.368   8.849   4.711  0.1265  0.4313 -0.1690
 9003W        W 9003   7.577   1.516   2.708  0.2637  0.0016  0.1596
 9004W        W 9004   0.952   6.476   4.118 -0.0258  0.0771 -0.0619
 9005W        W 9005   4.964   9.044   3.433  0.0434 -0.0528 -0.0608
 9006W        W 9006   1.175   6.311   2.606 -0.2634 -0.0801  0.1325
 9007W        W 9007   9.290   4.429   0.757 -0.0958  0.2247  0.2298
 9008W        W 9008   7.813   1.413  10.294  0.0264  0.0137  0.0822
 9009W        W 9009   1.736  10.258   2.851  0.0067  0.1160  0.5378
 9010W        W 9010   7.027   1.315   6.221  0.0290 -0.0273 -0.0386
 9011W        W 9011   1.163   9.993   3.328 -0.0324 -0.1464  0.1969
 9012W        W 9012   3.299   5.575   5.713  0.1462  0.1056  0.1416
 9013W        W 9013   8.461   4.477   9.072  0.3566  0.3617 -0.2432
 9014W        W 9014   9.107   5.236   1.964  0.2050  0.1888  0.0170
 9015W        W 9015   8.265   8.317   8.794  0.2683  0.0387 -0.0178
 9016W        W 9016   1.002   3.960   3.293 -0.0754 -0.0435  0.3870
 9017W        W 9017   9.000   0.165   2.491  0.3083 -0.0409  0.0617
 9018W        W 9018   2.353   4.540   0.651 -0.0161  0.1077  0.1235
 9019W        W 9019  10.173   9.166   2.829 -0.0489  0.2146  0.1925
 9020W        W 9020   6.171   4.273   5.312  0.0325 -0.3243  0.0105
 9021W        W 9021   2.861  10.209   5.767 -0.1766  0.0283  0.0101
 9022W        W 9022   0.357   4.865   3.702  0.1998  0.1873 -0.0418
 9023W        W 9023   1.484   4.706   6.251 -0.1168 -0.1272 -0.3013
 9024W        W 9024   1.279   5.454   5.931 -0.0251  0.0660 -0.1358
 9025W        W 9025   7.419   9.331   2.308 -0.0091 -0.0206 -0.1069
 9026W        W 9026   7.110   2.195   4.135  0.0973 -0.2040  0.2922
 9027W        W 9027   1.501   9.660   6.530 -0.0345  0.2079 -0.0006
 9028W        W 9028   7.812   6.065   6.706  0.2698 -0.3992 -0.2894
 9029W        W 9029   7.711   2.570   2.362 -0.1906 -0.2740 -0.1045
 9030W        W 9030   3.949   1.272   9.651 -0.1538 -0.0411 -0.0969
 9031W        W 9031   9.427  10.021  10.150  0.0326  0.1561  0.1653
 9032W        W 9032   7.448   9.328   6.243 -0.0504 -0.2258  0.0573
 9033W        W 9033   5.144   1.150   1.701  0.2939 -0.1574 -0.3712
 9034W        W 9034   3.463   6.511   1.010 -0.0382 -0.0965  0.1826
 9035W        W 9035   2.649   9.625   4.300 -0.2435 -0.0962 -0.1227
 9036W        W 9036   9.422   0.410   9.824 -0.0796 -0.0705 -0.0079
 9037W        W 9037   3.597   6.726   3.645 -0.1732  0.2847  0.0352
 9038W        W 9038   5.891   9.050   6.098  0.1712 -0.0295  0.0797
 9039W        W 9039   1.297   7.724   2.020 -0.2551 -0.2952  0.0631
 9040W        W 9040   3.872   6.702   1.413 -0.0975 -0.0169  0.1824
 9041W        W 9041   1.915   9.948   6.105  0.0798 -0.2950  0.2927
 9042W        W 9042   6.218   5.164   7.932  0.0754 -0.0293  0.0859
 9043W        W 9043   2.079   4.528   7.347 -0.4970 -0.1879  0.0589
 9044W        W 9044   1.785   5.402   5.542  0.1022 -0.1826 -0.0940
 9045W        W 9045   1.652   5.840   9.116 -0.0990 -0.1737 -0.1450
 9046W        W 9046   5.297   5.041   9.041  0.1142  0.0288  0.3072
 9047W        W 9047   2.602   1.108   9.164  0.2777 -0.2887  0.2444
 9048W        W 9048   7.878   7.072   3.935  0.1287 -0.0962  0.0167
 9049W        W 9049   0.485   8.736   9.833 -0.1556 -0.3024  0.2494
 9050W        W 9050   0.957   0.209   4.434 -0.1304  0.0670  0.0194
 9051W        W 9051   3.620   6.497   0.125  0.1219 -0.1043 -0.2478
 9052W        W 9052   6.240   6.196   5.857  0.1731 -0.2236 -0.2347
 9053W        W 9053   5.424   5.541   4.543  0.0808 -0.0988  0.1454
 9054W        W 9054   6.798   8.966   4.813 -0.1461 -0.0190 -0.0544
 9055W        W 9055   8.529   3.184   8.554  0.0560 -0.1401 -0.0773
 9056W        W 9056   9.407   9.808   4.332 -0.2439 -0.0024  0.2265
 9057W        W 9057   2.688   4.711   6.218  0.0075  0.0272  0.2075
 9058W        W 9058   2.008   2.091   4.180 -0.0956  0.2895  0.0393
 9059W        W 9059   0.992   2.259   7.519 -0.0776 -0.0987  0.1333
 9060W        W 9060   9.160   7.564   0.768  0.2385  0.1203 -0.0972
 9061W        W 9061   3.811   9.334   3.141 -0.0333 -0.1733 -0.0400
 9062W        W 9062   0.125   3.335   6.219  0.2423 -0.2126 -0.0513
 9063W        W 9063   3.249   1.121   4.981 -0.0462 -0.0040 -0.2192
 9064W        W 9064   7.611   3.103   2.658  0.0161 -0.0309  0.3216
 9065W        W 9065   3.065   4.921   7.562  0.3054  0.1374  0.1478
 9066W        W 9066   3.567   8.805   0.238  0.1000 -0.3183  0.0528
 9067W        W 9067   3.387   3.379   5.204  0.0290 -0.0139 -0.0247
 9068W        W 9068   6.802   5.520   7.219 -0.1731 -0.0183 -0.3303
 9069W        W 9069   8.533   3.549  10.278 -0.0991  0.3401  0.2320
 9070W        W 9070   2.551   3.649   7.714 -0.3459  0.5748  0.2668
 9071W        W 9071   2.052   4.421   0.243  0.1072 -0.0847 -0.1092
 9072W        W 9072   0.881   2.844   8.822 -0.1522 -0.3470  0.3057
 9073W        W 9073  10.261   8.565   2.676 -0.1102 -0.1234  0.0458
 9074W        W 9074   5.475   7.701   7.421  0.4328 -0.1276  0.5499
 9075W        W 9075   3.672   0.808   6.829 -0.1119 -0.0263  0.1051
 9076W        W 9076   3.505   7.593   7.237 -0.4240  0.0048  0.0217
 9077W        W 9077   2.465   8.392   6.764 -0.0203  0.0009  0.2074
 9078W        W 9078   1.936   8.747   1.223 -0.0281  0.0160 -0.1546
 9079W        W 9079   9.778   6.036   9.429 -0.1562  0.2730  0.2351
 9080W        W 9080   8.921   1.181   7.909  0.0080 -0.2514  0.2266
 9081W        W 9081   8.132   2.593   3.355 -0.1779  0.1933 -0.0791
 9082W        W 9082   6.853  10.116   5.088  0.2806  0.0225 -0.0483
 9083W        W 9083   9.663   5.933   6.554 -0.1004 -0.0370  0.0986
 9084W        W 9084   9.585   9.543   0.867  0.1962  0.1023  0.1285
 9085W        W 9085   1.588   5.536   1.640 -0.1571  0.0528 -0.0830
 9086W        W 9086   2.923   8.669   6.777  0.0630  0.1730  0.3446
 9087W        W 9087   3.815   8.246   6.556  0.1058 -0.0351  0.0326
 9088W        W 9088   3.813   7.386   3.791 -0.1811 -0.1877  0.0489
 9089W        W 9089   4.523   4.715   5.456 -0.0576 -0.1817 -0.2621
 9090W        W 9090   7.391   7.494   8.391 -0.0122  0.0618  0.0412
 9091W        W 9091   5.396   4.140   1.430  0.0923 -0.0792  0.0484
 9092W        W 9092  10.287   2.771   1.157 -0.0066  0.2105  0.0748
 9093W        W 9093   8.307   7.461   9.644 -0.2183  0.1065  0.0316
 9094W        W 9094   0.003  10.119   4.522 -0.0680 -0.0822  0.0411
 9095W        W 9095   3.555   2.298   6.034 -0.0340 -0.0223  0.0458
 9096W        W 9096   8.498   0.226   2.716  0.2518  0.0524 -0.0081
 9097W        W 9097   5.878   6.506   8.237  0.0183 -0.3470 -0.1756
 9098W        W 9098   4.837   2.754   7.617  0.0337  0.0681  0.3298
 9099W        W 9099   6.639   6.429   2.199  0.1787  0.0078 -0.1023
 9100W        W 9100   0.408   1.109   1.585 -0.1758 -0.2260 -0.0883
 9101W        W 9101   8.100   4.261   0.653  0.4322  0.0943  0.0482
 9102W        W 9102   9.073   0.771   1.602  0.0323  0.0282  0.0053
 9103W        W 9103   3.933   1.199   1.227  0.0363 -0.3625 -0.0747
 9104W        W 9104   6.149   8.159   5.202  0.1676  0.1617 -0.1051
 9105W        W 9105   2.116   2.914   9.198 -0.1288 -0.1477  0.2100
 9106W        W 9106   1.219   7.572   4.333  0.1803 -0.2528 -0.1310
 9107W        W 9107   0.617   4.569   7.889  0.3963 -0.0268 -0.2060
 9108W        W 9108   6.899   0.630   4.714  0.2578 -0.1416  0.4550
 9109W        W 9109   6.770   1.510   6.969 -0.0660  0.1360  0.0834
 9110W        W 9110   2.549   0.294   0.765  0.4723  0.1078 -0.1068
 9111W        W 9111   4.444   6.159   9.539  0.0939 -0.1734  0.0542
 9112W        W 9112   3.265   4.360   6.772 -0.2944 -0.2671 -0.1206
 9113W        W 9113   3.267   6.843   4.131  0.0944 -0.3719  0.0628
 9114W        W 9114   5.388   0.596   7.664 -0.4503 -0.2268  0.5830
 9115W        W 9115   6.145   8.154   2.611  0.1588 -0.1983 -0.0343
 9116W        W 9116   9.110   0.824   9.984  0.2479  0.2113  0.0131
 9117W        W 9117   1.585   3.140   7.722 -0.3158 -0.0881 -0.2923
 9118W        W 9118   2.391   9.884   7.881 -0.2255  0.1960  0.1280
 9119W        W 9119   1.861   9.969   6.588 -0.1880  0.0143 -0.2136
 9120W        W 9120   7.098   7.132   9.213 -0.2887  0.0233  0.3004
 9121W        W 9121   8.524  10.021   6.861  0.0415  0.0340 -0.0065
 9122W        W 9122   4.705   1.922   2.662 -0.0824 -0.0527 -0.0021
 9123W        W 9123   4.844   0.774   4.691 -0.1718  0.3210 -0.1657
 9124W        W 9124   3.721   5.097  10.213  0.2407 -0.0879  0.0992
 9125W        W 9125   3.106   0.924   1.314 -0.2843 -0.2661 -0.5765
 9126W        W 9126   3.489   8.648   6.702  0.1576  0.1116 -0.1485
 9127W        W 9127   0.456   0.519   7.105  0.0209  0.2615  0.0803
 9128W        W 9128   4.755   9.084   2.954  0.0176 -0.0035 -0.1916
 9129W        W 9129   7.290   7.772   0.076 -0.0014 -0.1589 -0.0303
 9130W        W 9130   5.778   1.039   0.222  0.1407 -0.1009  0.2057
 9131W        W 9131   3.327   4.175   7.830 -0.0775 -0.0941  0.0973
 9132W        W 9132   9.890   7.104   1.979 -0.0927 -0.4088 -0.1492
 9133W        W 9133   1.744   7.095   6.666 -0.2608  0.2235 -0.2101
 9134W        W 9134   8.816   8.118   9.973  0.2997  0.0306 -0.1700
 9135W        W 9135   9.060   5.203  10.141  0.1254  0.1194 -0.0670
 9136W        W 9136   8.237   4.631   3.941 -0.2511  0.3410 -0.4129
 9137W        W 9137   3.613   6.747   1.961 -0.2040  0.0566  0.0282
 9138W        W 9138  10.109   0.249   4.868  0.1583  0.1127  0.1835
 9139W        W 9139   2.905   7.510   2.410 -0.2554 -0.0031 -0.0325
 9140W        W 9140  10.055   8.727   2.113 -0.1333 -0.1021  0.0603
 9141W        W 9141   1.818   5.466   8.814 -0.0922 -0.0562  0.1074
 9142W        W 9142   6.466   3.022   8.183 -0.1010 -0.1082  0.3216
 9143W        W 9143   4.933   3.605   8.711 -0.2635  0.1922  0.1014
 9144W        W 9144   0.440  10.030   0.760 -0.0597  0.5625  0.1410
 9145W        W 9145   8.450   8.419   4.934 -0.0316 -0.1441  0.1798
 9146W        W 9146   8.255   0.563   7.833  0.0851 -0.0779 -0.0446
 9147W        W 9147   3.439   6.284   6.232  0.2860  0.0588  0.3734
 9148W        W 9148   2.805   7.652   6.348 -0.0940 -0.0348 -0.2537
 9149W        W 9149   7.569   8.126   7.570  0.0854 -0.0408  0.1185
 9150W        W 9150   3.509   1.594  10.230  0.2046 -0.1130  0.0852
 9151W        W 9151   4.865   4.290   2.130  0.2070 -0.0612  0.1238
 9152W        W 9152   8.269   6.067   9.289  0.1320  0.0589  0.1200
 9153W        W 9153   8.515   1.575   6.371 -0.0074 -0.1614 -0.0185
 9154W        W 9154   5.333   6.467   0.781  0.1248 -0.0420 -0.1060
 9155W        W 9155   7.566   9.472   5.616  0.0768 -0.1877  0.0663
 9156W        W 9156   6.520   5.482   9.859  0.0573  0.0709 -0.2127
 9157W        W 9157   5.059   5.111   6.040 -0.2700  0.2694  0.0662
 9158W        W 9158   2.881   0.062   1.069  0.3000 -0.4527  0.0876
 9159W        W 9159   7.299   5.446   6.321  0.4118 -0.0103  0.0552
 9160W        W 9160   4.808   2.388   2.959 -0.0311 -0.0127  0.3440
 9161W        W 9161   0.926   0.972   4.111 -0.0894 -0.2240 -0.0444
 9162W        W 9162   1.969   8.090   6.663  0.0018 -0.1476 -0.2246
 9163W        W 9163   3.695   4.613   7.004  0.3383 -0.1521  0.3690
 9164W        W 9164   6.487   5.150   7.468  0.1013  0.1084 -0.4079
 9165W        W 9165   5.273   2.533   3.405  0.1309 -0.1266 -0.2738
 9166W        W 9166   6.047  10.316   3.068 -0.2109  0.2479 -0.0340
 9167W        W 9167   8.104   7.904   9.609 -0.1152  0.0894 -0.0167
 9168W        W 9168   9.418   0.307   4.696  0.0195  0.2868 -0.2459
 9169W        W 9169  10.296   1.698   4.739 -0.2637  0.1819  0.1118
 9170W        W 9170   2.018   9.975   1.776 -0.1579  0.0916 -0.2169
 9171W        W 9171   9.943  10.191   7.757  0.0923  0.2260 -0.0760
 9172W        W 9172   9.906   8.732   9.920 -0.0013  0.2600  0.1493
 9173W        W 9173   1.935   4.279   9.768 -0.2273 -0.0037  0.2246
 9174W        W 9174   1.678   8.271   7.106  0.1270  0.1870  0.2647
 9175W        W 9175   9.907   5.241   3.300 -0.1618  0.1365  0.1053
 9176W        W 9176   2.757   8.024   1.823 -0.1142  0.3535  0.0808
 9177W        W 9177   5.280   2.238   0.058  0.0964  0.3788 -0.0199
 9178W        W 9178   0.122   5.019   4.860 -0.0979 -0.0172  0.1010
 9179W        W 9179   2.883   6.984   2.419  0.1365 -0.1364  0.0043
 9180W        W 9180   9.996   0.380   5.782  0.0649 -0.0009 -0.0790
 9181W        W 9181   9.286   3.149   2.231  0.1099 -0.1596  0.4257
 9182W        W 9182   0.623   5.686   1.411  0.2603  0.0897 -0.2357
 9183W        W 9183   6.141   0.938   5.404 -0.4442  0.2795  0.0196
 9184W        W 9184   5.006   0.259   6.866 -0.0890  0.1840  0.2528
 9185W        W 9185   7.945   9.985   6.806 -0.1704 -0.3404  0.3340
 9186W        W 9186   4.342   2.140  10.132  0.1508  0.3283  0.3430
 9187W        W 9187   1.254   9.733   4.238 -0.0663 -0.0403  0.0872
 9188W        W 9188   7.344   5.142   2.434 -0.0172  0.0373 -0.0046
 9189W        W 9189   6.996   1.268   3.583  0.0439 -0.0853 -0.0800
 9190W        W 9190   3.482   0.776   4.371 -0.1766 -0.2596 -0.0410
 9191W        W 9191   9.614   7.458   9.717  0.0834  0.0201 -0.0272
 9192W        W 9192   7.719   4.375   1.004 -0.1835 -0.0070  0.1512
 9193W        W 9193   4.790   3.240   4.699 -0.0672 -0.0500  0.1173
 9194W        W 9194  10.299   6.182   6.434  0.0838  0.1256  0.5088
 9195W        W 9195   2.990   9.792   2.825  0.0501 -0.1351 -0.1316
 9196W        W 9196   7.534   3.196   9.059 -0.2498  0.2634  0.3291
 9197W        W 9197   9.069   5.348   1.077  0.0968  0.0229  0.0866
 9198W        W 9198   7.295   7.504   6.972 -0.0315 -0.2399 -0.1228
 9199W        W 9199   9.805   6.393   6.830  0.3274  0.2753  0.1704
 9200W        W 9200   6.711   0.261   9.787 -0.3536 -0.1769 -0.2512
 9201W        W 9201   6.527   5.283   2.205  0.0195 -0.1970 -0.0386
 9202W        W 9202   8.810   9.221   4.813 -0.1905 -0.0213  0.1429
 9203W        W 9203   4.191   7.163   4.089 -0.5849 -0.2488  0.1806
 9204W        W 9204   7.415   4.532   8.286  0.3039 -0.1804 -0.0439
 9205W        W 9205   7.574   1.681   6.755  0.3486  0.1444 -0.0568
 9206W        W 9206   7.832   1.584   3.869  0.2702 -0.1110  0.0698
 9207W        W 9207   4.195   4.917   9.398 -0.0249  0.1086 -0.1243
 9208W        W 9208   3.165   0.899   6.999  0.0126  0.3685  0.2668
 9209W        W 9209   6.250   9.803   0.266 -0.1100 -0.1559 -0.1002
 9210W        W 9210   2.087   0.200   2.542  0.2047 -0.2171 -0.3464
 9211W        W 9211   6.364   8.500   0.889 -0.1487  0.2683 -0.2488
 9212W        W 9212   3.083   0.070   5.132  0.1347 -0.1802  0.1959
 9213W        W 9213   0.695   5.584   9.263 -0.0074  0.2045  0.0397
 9214W        W 9214   1.408   4.345   1.634  0.2330  0.1564  0.0178
 9215W        W 9215   9.185   2.160   2.103 -0.2429  0.2701 -0.0814
 9216W        W 9216   0.946   9.093   5.695 -0.1438  0.4957  0.0185
 9217W        W 9217   9.543   3.755   5.339 -0.1102 -0.1377  0.0461
 9218W        W 9218   0.444   0.871   2.486  0.2216  0.2131 -0.3908
 9219W        W 9219   0.741   5.811   9.699 -0.0966 -0.2247 -0.0690
 9220W        W 9220   0.340   1.638   7.638 -0.0209  0.2482 -0.3503
 9221W        W 9221  10.159   3.739   6.283  0.1292 -0.0160 -0.1609
 9222W        W 9222   7.982   3.628   2.064 -0.4787 -0.1431  0.0420
 9223W        W 9223   7.035   8.596   3.070 -0.0294 -0.3812  0.0138
 9224W        W 9224   0.619   0.150   8.640 -0.0023  0.1017  0.2487
 9225W        W 9225   0.694   6.666   7.371  0.0151  0.1362  0.1433
 9226W        W 9226   0.292   7.409   2.349 -0.0970 -0.1218  0.2591
 9227W        W 9227   3.927   3.936   4.463 -0.0778  0.0216 -0.1092
 9228W        W 9228   4.541   5.977   2.098 -0.0226  0.2107  0.1839
 9229W        W 9229   8.892   0.185  10.144 -0.1859 -0.1338  0.0045
 9230W        W 9230   4.587   0.493   8.770 -0.1736  0.1909  0.1026
 9231W        W 9231  10.174   7.644   7.006  0.1816  0.0239 -0.1815
 9232W        W 9232   3.936   8.778   2.996 -0.2102  0.0749  0.1877
 9233W        W 9233   6.235   8.995   7.364  0.0083  0.2175  0.1959
 9234W        W 9234   2.668   6.598   1.906 -0.1367 -0.0657  0.1757
 9235W        W 9235   5.136  10.308   2.326  0.1201  0.0586  0.0427
 9236W        W 9236   0.808   7.608   7.069 -0.1541  0.0664 -0.0519
 9237W        W 9237   9.680   1.789   8.028 -0.2585  0.0688  0.0205
 9238W        W 9238   7.291   2.025   9.927  0.0794  0.1493  0.0592
 9239W        W 9239   2.042   5.729   8.011 -0.2809 -0.0190  0.3092
 9240W        W 9240   9.039   2.057   2.656  0.0783  0.1975 -0.2810
 9241W        W 9241   0.361   4.992   7.674  0.4044  0.2118 -0.1989
 9242W        W 9242   9.552   4.926   5.098 -0.0938  0.0223 -0.3457
 9243W        W 9243   1.673   6.355   7.335  0.4145 -0.2911 -0.0301
 9244W        W 9244   4.296   2.696   9.129  0.1073  0.1732  0.0369
 9245W        W 9245   9.188   7.752   6.894 -0.0501 -0.0997  0.2180
 9246W        W 9246   7.305   5.158   8.028  0.0083 -0.0013 -0.3199
 9247W        W 9247   5.643   8.033   0.378 -0.0879  0.1218 -0.1800
 9248W        W 9248   7.665   4.242   6.691  0.0081  0.2632 -0.4055
 9249W        W 9249   5.797  10.259   2.198 -0.1637 -0.0327  0.2689
 9250W        W 9250   4.678   1.037   5.383 -0.1747  0.3362 -0.0690
 9251W        W 9251   4.171   0.865   6.745 -0.1056 -0.1337 -0.1255
 9252W        W 9252   3.768   9.645   8.185  0.0009  0.0752  0.2673
 9253W        W 9253   9.941   2.579   4.922  0.0216  0.0906 -0.1282
 9254W        W 9254   6.333   8.641   5.118  0.0799  0.2077 -0.5681
 9255W        W 9255   0.151   1.666   9.264 -0.1573  0.0135  0.0899
 9256W        W 9256   4.872   5.130   2.956  0.2828 -0.0756 -0.3846
 9257W        W 9257   8.133   1.996   7.118  0.1474  0.2422 -0.0021
 9258W        W 9258   9.717   7.773   1.409  0.1948  0.0970  0.2586
 9259W        W 9259   7.121   4.670   4.963 -0.0882 -0.0253 -0.1018
 9260W        W 9260   0.029   0.666   9.546  0.1733  0.0131 -0.1789
 9261W        W 9261   1.205   0.765   2.144 -0.1177  0.0032 -0.2180
 9262W        W 9262   5.432   7.134   7.062  0.2505 -0.0926  0.4539
 9263W        W 9263   0.168   7.017   6.600 -0.2589  0.2940  0.1389
 9264W        W 9264   4.920   2.869   4.031  0.1244 -0.2756  0.1730
 9265W        W 9265   5.305   8.836   5.209 -0.2068  0.2234  0.1619
 9266W        W 9266   8.970   5.438   2.524 -0.0451 -0.1598  0.1613
 9267W        W 9267   2.654   4.640   9.521 -0.1557  0.1078  0.0934
 9268W        W 9268   2.815   4.309   5.907  0.1700 -0.0133 -0.0113
 9269W        W 9269   4.148   6.386   4.211 -0.4360 -0.1500  0.0503
 9270W        W 9270   1.264   6.982  10.342 -0.1472 -0.3231 -0.1422
 9271W        W 9271   6.383   5.060   0.705  0.0904 -0.0244 -0.3485
 9272W        W 9272   0.357   3.799   6.153  0.0340 -0.1431  0.0239
 9273W        W 9273   8.383   1.152   4.518  0.3635  0.0506  0.2958
 9274W        W 9274   6.178   4.211   5.812  0.0554  0.2351 -0.2053
 9275W        W 9275   2.841   5.062   4.652  0.1404  0.0935 -0.0154
 9276W        W 9276   0.355   7.804   7.860 -0.1044  0.1667  0.2120
 9277W        W 9277   2.020   6.314   1.375 -0.3522 -0.1432  0.1340
 9278W        W 9278   2.111   7.631   7.513  0.1100  0.4488 -0.4194
 9279W        W 9279   7.587   1.801   3.118  0.0109  0.0298 -0.0295
 9280W        W 9280  10.091   4.501   0.540 -0.1522  0.1821 -0.1440
 9281W        W 9281   6.640   1.047   6.797  0.1242  0.0121 -0.2852
 9282W        W 9282   5.623   2.032   4.737  0.0076  0.3194  0.0339
 9283W        W 9283   7.415   0.205   8.451  0.4320  0.3112 -0.0890
 9284W        W 9284  10.304   7.415   1.885 -0.1632 -0.0432  0.0424
 9285W        W 9285  10.179   5.427   3.920 -0.1115 -0.0880  0.2131
 9286W        W 9286   6.311   0.785   1.185 -0.0944 -0.3440  0.0847
 9287W        W 9287   9.762   1.374   6.164  0.1890 -0.3313 -0.3843
 9288W        W 9288   6.948   8.091   3.109 -0.0083 -0.0911 -0.3645
 9289W        W 9289   1.604   5.847   5.685 -0.1429 -0.1508  0.0594
 9290W        W 9290   6.559   1.628   8.199 -0.1507  0.0689 -0.0965
 9291W        W 9291   1.214   7.898   7.028  0.0955 -0.2158  0.1460
 9292W        W 9292   3.658  10.228   8.813  0.1439  0.3395 -0.3186
 9293W        W 9293   6.030   3.826   5.417 -0.1475  0.2309 -0.1676
 9294W        W 9294   5.497   4.751   4.387  0.0983  0.0790  0.1483
 9295W        W 9295   9.364   3.946   3.203 -0.1032  0.1225  0.1763
 9296W        W 9296   8.991   1.226   0.872  0.1334  0.4265 -0.1211
 9297W        W 9297   6.838   0.413   6.638  0.2701 -0.1131 -0.0673
 9298W        W 9298   4.052   8.802   7.879 -0.1843  0.1761 -0.0060
 9299W        W 9299   4.363   2.398   5.207  0.1677  0.2159 -0.1353
 9300W        W 9300   0.194   7.756   6.001 -0.0012 -0.0007  0.1394
 9301W        W 9301   4.844   0.025   3.454 -0.0211 -0.2281 -0.0359
 9302W        W 9302   8.480   0.851   5.000 -0.3172 -0.2483 -0.0626
 9303W        W 9303   8.442   3.220   3.750  0.0857 -0.0607 -0.0741
 9304W        W 9304   3.156   7.643   7.638 -0.0336 -0.2338 -0.2234
 9305W        W 9305   2.387   7.221   2.620 -0.0802 -0.0116 -0.2294
 9306W        W 9306   9.543   5.809   2.584  0.0698  0.0337 -0.0310
 9307W        W 9307   0.077   2.177   0.606  0.4459  0.1319  0.1210
 9308W        W 9308   0.501   5.233   3.401 -0.3367 -0.2458 -0.3356
 9309W        W 9309   3.926   9.504   9.673  0.0960  0.0504 -0.1603
 9310W        W 9310   7.655   8.550   5.249 -0.0759 -0.1105 -0.1001
 9311W        W 9311   4.979   3.153   8.537 -0.0443 -0.0385  0.1678
 9312W        W 9312   5.334   8.511   8.415  0.0178 -0.1015  0.1483
 9313W        W 9313  10.252  10.334   7.426 -0.0226  0.3410  0.4407
 9314W        W 9314   4.938   3.069   2.660  0.0509  0.0175  0.1653
 9315W        W 9315   7.447   8.794   1.416 -0.2129 -0.1712  0.0473
 9316W        W 9316   5.009   8.404   5.226 -0.1686  0.1029 -0.3851
 9317W        W 9317   3.018   8.946   7.174 -0.3933 -0.1285  0.0412
 9318W        W 9318   0.365   9.994   8.629 -0.0253 -0.1257  0.0733
 9319W        W 9319   4.500   3.334   1.952 -0.0325  0.0428  0.0544
 9320W        W 9320   1.656   6.996   5.746 -0.1551 -0.0855  0.0954
 9321W        W 9321   8.330   0.048   8.055 -0.4599  0.2062  0.0032
 9322W        W 9322   3.794   2.778   9.624 -0.1976 -0.0422  0.1777
 9323W        W 9323   3.351   9.167   2.900  0.0063  0.0011  0.1200
 9324W        W 9324   2.353   0.605   3.331 -0.0369 -0.0440  0.0356
 9325W        W 9325   8.118   3.069   8.954  0.1620 -0.2873 -0.1759
 9326W        W 9326   9.866   8.775   0.095  0.3300  0.0591  0.4490
 9327W        W 9327   2.156   0.738   5.803 -0.0502  0.0113  0.1925
 9328W        W 9328   3.241   5.379   7.253 -0.1356  0.0202 -0.1770
 9329W        W 9329   8.015   7.669   5.016  0.0699 -0.0254  0.0749
 9330W        W 9330   1.191   6.495   6.031  0.1867  0.2775 -0.0870
 9331W        W 9331   6.169   5.310   0.356  0.2766  0.4175  0.1653
 9332W        W 9332   9.190   3.798   7.573  0.0208  0.3086  0.0015
 9333W        W 9333   0.743   8.181   7.055  0.1910 -0.0917 -0.0022
 9334W        W 9334   0.664   3.956   7.339  0.0978 -0.0273 -0.0581
 9335W        W 9335   0.665   4.045   8.578 -0.0623 -0.0133 -0.2792
 9336W        W 9336   0.198   4.662   4.127 -0.1360  0.3319  0.3249
 9337W        W 9337   7.298   8.093   7.122 -0.2916 -0.1077  0.3665
 9338W        W 9338   8.094  10.146   5.478 -0.3531  0.2946  0.1076
 9339W        W 9339   2.544   1.774   0.627 -0.4259 -0.0067  0.2486
 9340W        W 9340   7.413   4.279   4.387  0.2457 -0.0226 -0.0484
 9341W        W 9341   9.704   1.195   2.028  0.0138 -0.0419 -0.1601
 9342W        W 9342   7.757   3.700   6.590 -0.4189 -0.2948 -0.2188
 9343W        W 9343   5.576   4.429   2.981 -0.1852 -0.0315  0.0548
 9344W        W 9344   8.720   1.329   1.959  0.2873 -0.1814 -0.1574
 9345W        W 9345   0.055   9.011   2.418  0.0320  0.1671  0.2459
 9346W        W 9346   1.260   9.391   6.920  0.2363 -0.3780 -0.0375
 9347W        W 9347   2.148   4.296   4.942 -0.3726 -0.0508 -0.1652
 9348W        W 9348   0.549   3.226   9.569  0.1033 -0.0583  0.0860
 9349W        W 9349   3.322  10.062   0.926  0.1083  0.0257 -0.0082
 9350W        W 9350   3.781   0.485   0.692  0.2963 -0.0379  0.0821
 9351W        W 9351   1.515   4.122   8.240  0.1818  0.5471  0.1520
 9352W        W 9352   4.512   8.512   1.436  0.0149  0.1842 -0.1148
 9353W        W 9353   8.718   7.691   6.726  0.3074  0.0403 -0.1800
 9354W        W 9354   5.883   5.464   2.751 -0.1795  0.0619  0.0441
 9355W        W 9355   9.772   4.667   0.865 -0.0790  0.1396  0.2069
 9356W        W 9356   6.815   7.642   0.878 -0.2415 -0.2624 -0.1342
 9357W        W 9357   2.096   8.845   7.503 -0.2754 -0.3830  0.0255
 9358W        W 9358   4.470   0.400   6.921  0.0368 -0.1196 -0.0827
 9359W        W 9359   8.894   3.648   3.018 -0.1351  0.0623  0.2119
 9360W        W 9360   6.491   1.813   3.194  0.1538 -0.3170 -0.0072
 9361W        W 9361   1.749   4.215   5.405  0.1312  0.2641  0.0942
 9362W        W 9362   9.904   5.979   5.071 -0.0865  0.0001 -0.3379
 9363W        W 9363  10.152   2.006   6.306  0.1690  0.0422 -0.0545
 9364W        W 9364   6.522   4.128   6.274  0.0211 -0.1058  0.3182
 9365W        W 9365   3.805   4.028   7.702  0.0052  0.0483  0.1113
 9366W        W 9366   1.355   0.837   1.656 -0.2060  0.0436 -0.0180
 9367W        W 9367   7.953   2.295   8.886  0.0095 -0.1961  0.1030
 9368W        W 9368   2.912   5.972   0.621 -0.1142  0.2504  0.0987
 9369W        W 9369   6.865   0.054  10.306 -0.3941  0.1972 -0.1837
 9370W        W 9370   1.416   2.674   8.993 -0.0524 -0.1215 -0.0571
 9371W        W 9371   0.069   8.864   4.083 -0.0593  0.0587 -0.0083
 9372W        W 9372   4.636   1.914   9.721  0.2999 -0.0221  0.1284
 9373W        W 9373   6.740   6.744   8.937  0.1121 -0.1635  0.1472
 9374W        W 9374   3.069   5.952   6.518 -0.0141  0.1073  0.1185
 9375W        W 9375   7.476   2.869   0.008  0.1197  0.1415 -0.2566
 9376W        W 9376   3.328   0.079   8.217  0.1994  0.0460 -0.1804
 9377W        W 9377   4.294   5.502   3.583  0.3515 -0.1552  0.0296
 9378W        W 9378   1.943   3.720   6.025 -0.3221  0.1495  0.1043
 9379W        W 9379   8.166   1.158   9.046  0.3923 -0.0486  0.2726
 9380W        W 9380   2.186   9.528   1.608 -0.1059 -0.3619  0.1165
 9381W        W 9381   6.394   0.566   5.583 -0.3484  0.0691  0.4305
 9382W        W 9382   3.878   2.602   1.294 -0.1032 -0.1547  0.3269
 9383W        W 9383   0.744   7.477   7.591 -0.2675  0.1120 -0.4480
 9384W        W 9384   2.351   6.792   4.663 -0.0370 -0.0083 -0.1488
 9385W        W 9385   4.074   1.292   9.082  0.1722 -0.2708  0.2347
 9386W        W 9386   8.390   6.303   5.155  0.2983  0.0537  0.1346
 9387W        W 9387   2.106   4.628   5.385  0.0489  0.2091 -0.1010
 9388W        W 9388   4.160   5.191   0.115 -0.0569  0.2173 -0.2173
 9389W        W 9389   6.892   9.190   2.051  0.0550 -0.0640  0.0373
 9390W        W 9390   2.829   1.319   6.736  0.3048  0.1042  0.0267
 9391W        W 9391   0.836   3.840  10.241 -0.1539  0.2078 -0.0161
 9392W        W 9392   3.761   4.133   6.949  0.0570  0.1557 -0.0175
 9393W        W 9393   6.571   5.032   8.224  0.0819 -0.0669 -0.0778
 9394W        W 9394   0.654   5.741   3.301 -0.1080  0.2362  0.0553
 9395W        W 9395   2.114   1.231   8.286  0.0565  0.0552  0.3455
 9396W        W 9396   9.868   1.118   8.587  0.1113 -0.0747  0.0322
 9397W        W 9397   9.368   2.835   6.022  0.0024 -0.1748  0.0009
 9398W        W 9398   4.534   8.412   2.428 -0.0361  0.1075 -0.2129
 9399W        W 9399   6.055   1.425   5.121  0.2267 -0.0174  0.1240
 9400W        W 9400   3.954   1.588   5.533  0.1871  0.3549  0.2081
 9401W        W 9401   8.293   0.092   8.582 -0.1935  0.0175  0.1842
 9402W        W 9402   1.116   2.607   6.576 -0.0132 -0.0916 -0.1892
 9403W        W 9403   1.373   0.388   4.699  0.1811  0.1446 -0.0574
 9404W        W 9404   6.578   5.931   1.369  0.2241  0.0952  0.1460
 9405W        W 9405   0.340   9.083   4.852 -0.0195  0.1425  0.2791
 9406W        W 9406   4.402   7.112   0.271  0.3535  0.0677 -0.0361
 9407W        W 9407   9.582   2.041   1.810 -0.0157 -0.0232 -0.1275
 9408W        W 9408   3.602   8.384   8.982 -0.0279 -0.0513 -0.2604
 9409W        W 9409   7.672   0.483   2.049  0.2238 -0.2521 -0.0231
 9410W        W 9410   5.273   7.600   6.938  0.2067 -0.0060 -0.2022
 9411W        W 9411   1.022   6.897   8.272  0.1394  0.1134  0.2773
 9412W        W 9412   6.800   9.242   0.761  0.0165 -0.1847 -0.0579
 9413W        W 9413   6.968   6.145   3.594 -0.1924 -0.1697 -0.0271
 9414W        W 9414   9.935  10.249   4.215  0.2177 -0.0412 -0.1677
 9415W        W 9415   1.560   3.145   6.058  0.0570  0.1546 -0.1545
 9416W        W 9416   4.374   9.765   2.608 -0.0134 -0.3199  0.0424
 9417W        W 9417   3.174   4.117   6.247 -0.0561  0.3581  0.0165
 9418W        W 9418   3.330   9.522   2.535 -0.0288 -0.1757 -0.1105
 9419W        W 9419   2.027   3.815   9.566 -0.2103 -0.3227  0.0038
 9420W        W 9420   1.982   7.688   4.909 -0.0610  0.0030 -0.0726
 9421W        W 9421   8.026   3.768   5.395 -0.0381 -0.1350 -0.0324
 9422W        W 9422   6.697   6.822   9.413  0.0281  0.0498 -0.0929
 9423W        W 9423   4.139   5.276   4.974 -0.1741 -0.0939  0.0612
 9424W        W 9424   6.777   2.451   8.178  0.2122 -0.2064 -0.3451
 9425W        W 9425   2.805   1.131   3.355  0.1452  0.1402  0.2212
 9426W        W 9426   0.008   6.366   9.426  0.0510 -0.3826  0.1010
 9427W        W 9427   9.029   9.690   6.019 -0.0299  0.1050 -0.1303
 9428W        W 9428   0.136   0.451   3.794 -0.0902  0.2237 -0.0887
 9429W        W 9429   1.367   2.401   8.204  0.4591 -0.1460 -0.0972
 9430W        W 9430   1.173   7.669   8.312 -0.0284 -0.0072 -0.1560
 9431W        W 9431   8.973   8.932   9.811  0.2283 -0.0268  0.0532
 9432W        W 9432   8.528   3.124   7.155  0.4350  0.0095 -0.3499
 9433W        W 9433   7.973   3.453   3.664  0.0516 -0.1923 -0.0651
 9434W        W 9434   5.180   6.419   0.247 -0.1699 -0.2226 -0.0547
 9435W        W 9435   4.923   4.726   6.683 -0.0045 -0.2499 -0.0831
 9436W        W 9436   7.094   8.088   4.029  0.0377  0.0920 -0.2851
 9437W        W 9437  10.093   6.554   3.523  0.1137  0.0290 -0.1225
 9438W        W 9438   1.164   3.977   0.701 -0.1808  0.4758 -0.0262
 9439W        W 9439   8.555   0.018   5.450 -0.0728  0.1576 -0.2584
 9440W        W 9440   2.827   1.910   1.142 -0.2042  0.2288  0.0992
 9441W        W 9441   4.061   8.358   2.749  0.0735  0.1459  0.1694
 9442W        W 9442   0.462   9.996   4.707 -0.2503  0.2887 -0.3889
 9443W        W 9443   8.361   6.130   3.198 -0.0506 -0.3476 -0.0736
 9444W        W 9444   2.728   3.893   8.627 -0.3720 -0.1786 -0.0737
 9445W        W 9445   1.970   0.254   3.404  0.2201 -0.2307 -0.3565
 9446W        W 9446   2.973   8.363   9.388 -0.0033 -0.0365  0.1436
 9447W        W 9447   6.666   1.105   7.276 -0.0635 -0.0545 -0.3924
 9448W        W 9448   7.574   7.076   8.902 -0.1014 -0.2469  0.3926
 9449W        W 9449   4.307   5.254   9.043 -0.2392 -0.1422  0.0819
 9450W        W 9450   9.887   7.805   4.483  0.0507 -0.0078  0.1560
 9451W        W 9451   3.022   0.218   3.518  0.0749  0.3126 -0.2364
 9452W        W 9452   2.174   0.714   1.302 -0.3140 -0.2602  0.0311
 9453W        W 9453   5.732   9.851   6.069 -0.2313 -0.2485 -0.0885
 9454W        W 9454  10.063   1.031   8.137 -0.0680  0.0090  0.0802
 9455W        W 9455   8.474   7.865   5.079  0.0628 -0.0238 -0.1504
 9456W        W 9456   2.859   5.295   9.912  0.1095 -0.1340 -0.0031
 9457W        W 9457  10.222   6.968   4.908 -0.1172  0.2120  0.0045
 9458W        W 9458   2.289   0.239   2.982 -0.0358  0.1817 -0.4073
 9459W        W 9459   4.739   9.422  10.098  0.0005 -0.1906 -0.0639
 9460W        W 9460   2.766   5.219   0.034 -0.1365 -0.2246 -0.0374
 9461W        W 9461   7.715   9.023  10.322 -0.2894  0.3470  0.2165
 9462W        W 9462   1.239   6.573  10.076 -0.0497  0.1567  0.0079
 9463W        W 9463   9.700   3.808   9.737 -0.3979 -0.0910  0.1660
 9464W        W 9464   9.670   7.581   2.852  0.0577  0.2753  0.2484
 9465W        W 9465   8.236   6.771   4.716  0.2408 -0.0395  0.2268
 9466W        W 9466   3.816   1.367   0.737  0.0575 -0.2993 -0.2949
 9467W        W 9467   9.666   7.517   1.812  0.2289 -0.2218 -0.1301
 9468W        W 9468   6.857   2.775   5.235  0.0620  0.1448 -0.1921
 9469W        W 9469   9.193   0.513   0.085 -0.0977  0.1009 -0.1368
 9470W        W 9470   3.596   3.352   8.453 -0.1313  0.2853 -0.1707
 9471W        W 9471   2.380   2.484   2.276  0.0046  0.1220  0.0761
 9472W        W 9472   7.271   3.136   8.568  0.0339  0.2125 -0.0965
 9473W        W 9473   2.255   1.064   2.318 -0.0060  0.0596  0.1131
 9474W        W 9474   2.078   7.504   6.693 -0.0028  0.0381 -0.0111
 9475W        W 9475   4.762   7.174   7.929  0.2605  0.3228  0.1884
 9476W        W 9476   7.182   2.813   8.919  0.1699  0.0010 -0.4531
 9477W        W 9477   1.095   0.945   9.766  0.0382 -0.0219 -0.1285
 9478W        W 9478  10.179   1.582   5.913 -0.0178 -0.1445  0.1693
 9479W        W 9479  10.207   1.302   6.909  0.0087 -0.0623 -0.0954
 9480W        W 9480   9.916   1.003   7.180 -0.0916 -0.3353 -0.0135
 9481W        W 9481   5.176   4.894   3.737  0.3225 -0.0817 -0.0149
 9482W        W 9482   3.395   4.813   4.631 -0.1796  0.1940 -0.1939
 9483W        W 9483   8.863   0.718   4.325  0.0534  0.0203 -0.0689
 9484W        W 9484   4.341   2.434   3.987 -0.1069  0.1220 -0.0794
 9485W        W 9485   8.604   8.091   1.373  0.0576 -0.1174 -0.1975
 9486W        W 9486   9.137   3.939   9.598  0.3277  0.0759  0.0219
 9487W        W 9487   7.937   7.659   5.911  0.3781 -0.1948 -0.1963
 9488W        W 9488   3.937   6.316   3.649 -0.0620 -0.2468 -0.0779
 9489W        W 9489   6.146   3.552   2.664 -0.2521  0.0510 -0.0221
 9490W        W 9490   6.107   1.368   6.192  0.0653  0.2071 -0.0962
 9491W        W 9491   4.706   1.656   6.683 -0.0028  0.0659  0.2743
 9492W        W 9492   7.104   1.642  10.333  0.2608 -0.1667  0.0271
 9493W        W 9493   7.640   6.593   2.421 -0.1400 -0.0718  0.1453
 9494W        W 9494   7.049   5.156   7.529  0.1379  0.0988 -0.0463
 9495W        W 9495   6.332   5.956   8.582 -0.0176  0.1379 -0.4835
 9496W        W 9496   8.505   7.917   8.990 -0.4417  0.0979 -0.1697
 9497W        W 9497   6.478   0.064   7.007 -0.0350  0.0864 -0.0724
 9498W        W 9498   6.378   3.252   8.779  0.0687  0.0351 -0.1413
 9499W        W 9499   6.682   3.138   7.315 -0.1027 -0.3384  0.0118
 9500W        W 9500   1.643   2.864   5.643 -0.0190  0.2416 -0.1406
 9501W        W 9501   1.373   2.904   4.040  0.0006  0.0420 -0.0861
 9502W        W 9502   2.705   1.769   9.389 -0.1794 -0.1232 -0.1312
 9503W        W 9503   4.371   8.327   0.299 -0.2781  0.4069  0.2084
 9504W        W 9504   1.363   7.063   1.609  0.2386 -0.0190 -0.1223
 9505W        W 9505   3.288   9.370   7.153 -0.1942  0.0832  0.0940
 9506W        W 9506   3.741   8.664   2.050 -0.0262  0.2162  0.0348
 9507W        W 9507   8.458   8.095   5.604  0.3146  0.0639  0.3846
 9508W        W 9508   2.132   2.086   6.234  0.0100  0.3842  0.0648
 9509W        W 9509   8.183   3.013   0.832  0.0027  0.1166 -0.1376
 9510W        W 9510   1.035   1.987   0.739  0.2347  0.0686 -0.1736
 9511W        W 9511   1.156   1.622   3.206  0.0129 -0.2995  0.0358
 9512W        W 9512   7.265   9.400   1.718  0.0622  0.0352 -0.1215
 9513W        W 9513   0.651   3.270   0.469  0.4461  0.3781 -0.2465
 9514W        W 9514   9.533   1.248  10.350 -0.2368  0.0411  0.3167
 9515W        W 9515   5.341   6.635   7.318 -0.1673  0.1705 -0.1780
 9516W        W 9516   1.973   4.754   6.258  0.0236  0.0367  0.0492
 9517W        W 9517  10.136   8.685   4.882  0.2880 -0.0825 -0.2204
 9518W        W 9518   5.168   4.611   1.225  0.1602  0.1242 -0.1207
 9519W        W 9519   2.687   7.762   0.898  0.0295  0.1315 -0.1055
 9520W        W 9520   3.486   7.025   1.224 -0.1210 -0.1389  0.0422
 9521W        W 9521   9.219   7.283   4.729  0.2355  0.1935 -0.0200
 9522W        W 9522   0.452   8.488   6.790 -0.1057  0.0116 -0.0907
 9523W        W 9523   6.685   4.536   2.774 -0.2244 -0.0754  0.0404
 9524W        W 9524   6.167   9.652   6.806 -0.1952  0.1712 -0.2293
 9525W        W 9525   4.289   9.697  10.109 -0.0494 -0.2238  0.0627
 9526W        W 9526   0.520   0.348   2.412 -0.1612 -0.1881  0.0858
 9527W        W 9527   6.793   9.890   8.020  0.5520 -0.0527 -0.1562
 9528W        W 9528   7.750   4.747   8.003 -0.3809  0.0701 -0.3264
 9529W        W 9529   4.019   8.403   1.121  0.1187 -0.1085 -0.0726
 9530W        W 9530   9.902   7.793   0.437 -0.2181  0.1067 -0.2079
 9531W        W 9531   3.824   6.965   2.868  0.0069 -0.1899  0.2022
 9532W        W 9532  10.067   9.120   9.663  0.0689  0.0423 -0.0936
 9533W        W 9533   6.715   7.518   2.275 -0.4658 -0.0843  0.0528
 9534W        W 9534   1.536   7.501   2.474 -0.3387 -0.1348  0.1801
 9535W        W 9535   0.911   2.394   1.493  0.1930 -0.0612 -0.1244
 9536W        W 9536   6.344   4.690   6.867 -0.0179 -0.3510  0.0026
 9537W        W 9537   4.770   3.292   6.508  0.1749  0.3563  0.1073
 9538W        W 9538   8.562   2.577   8.367 -0.2218 -0.3746 -0.1702
 9539W        W 9539   2.140   8.612   2.943 -0.1197 -0.2666 -0.1110
 9540W        W 9540   2.616   7.293   5.461  0.2407  0.1360  0.0401
 9541W        W 9541   7.116   9.588   9.749 -0.0767 -0.0888 -0.2954
 9542W        W 9542   7.001   2.005   7.316  0.1224  0.1600 -0.1276
 9543W        W 9543   8.033   1.408   2.414  0.1358 -0.0063  0.0672
 9544W        W 9544   0.027   7.916   5.137  0.1358 -0.1173 -0.0287
 9545W        W 9545   1.769   7.837   3.281 -0.0594 -0.0484  0.2774
 9546W        W 9546   2.432   7.272   6.456  0.0229  0.2232 -0.2597
 9547W        W 9547   7.334   3.925   7.939  0.0766 -0.2731 -0.1524
 9548W        W 9548   1.760   2.298   7.062  0.3138 -0.4282 -0.2241
 9549W        W 9549  10.329   5.381   5.290  0.1244  0.1437 -0.0164
 9550W        W 9550   5.158   4.214   2.810  0.1589 -0.1618 -0.2338
 9551W        W 9551   4.195   3.716   4.950  0.0165  0.3891  0.0069
 9552W        W 9552   9.219   3.542   0.464 -0.0191  0.3307  0.1556
 9553W        W 9553   6.377   7.646   6.055  0.1732 -0.0804 -0.0663
 9554W        W 9554   5.274   3.746   0.192  0.0795  0.1198  0.1083
 9555W        W 9555   4.105   4.914   0.571  0.1939 -0.2569  0.2114
 9556W        W 9556   7.374   0.448   3.544 -0.3512  0.0174 -0.3184
 9557W        W 9557   7.147   9.001   1.031  0.0711  0.2124 -0.1545
 9558W        W 9558   5.613   3.988   2.682 -0.0854 -0.0186  0.0198
 9559W        W 9559   3.486   8.460   5.852  0.1453  0.1128  0.1789
 9560W        W 9560   8.554   7.472   0.068 -0.2015  0.0199  0.0337
 9561W        W 9561   3.804   6.231   7.102  0.2019  0.1219 -0.0282
 9562W        W 9562   2.591   1.670   8.840  0.1199 -0.0281 -0.1541
 9563W        W 9563   0.369   9.817   1.367  0.0302  0.1013  0.1888
 9564W        W 9564   1.508   8.082   9.442 -0.2576  0.2649 -0.3226
 9565W        W 9565  10.288   2.078   8.925  0.0439 -0.3925  0.3189
 9566W        W 9566   8.735   9.685   8.248 -0.3257 -0.0688 -0.1142
 9567W        W 9567   0.939   7.838   2.755 -0.4394 -0.1471 -0.2305
 9568W        W 9568   4.707   7.991   1.487  0.2583 -0.0029  0.2077
 9569W        W 9569   4.606   9.464   3.649  0.4218 -0.1683  0.3096
 9570W        W 9570   4.117   5.337   4.487 -0.3483  0.1942  0.0235
 9571W        W 9571   0.510   9.266   7.798  0.1294 -0.2576 -0.0426
 9572W        W 9572   8.588   5.334   9.101  0.1624  0.0367 -0.0247
 9573W        W 9573   0.700   8.366   8.421 -0.2446  0.2771  0.1806
 9574W        W 9574   1.808   6.803   4.598  0.0672  0.1331  0.1652
 9575W        W 9575   9.046   6.373   1.425 -0.3553  0.1082  0.0163
 9576W        W 9576   2.743   1.149   7.257 -0.0443 -0.2283 -0.1311
 9577W        W 9577   1.943   5.992   5.152  0.0087 -0.1281  0.1414
 9578W        W 9578   1.813   6.069   0.190  0.0882  0.2126  0.1113
 9579W        W 9579   3.144   0.812   2.449 -0.0226 -0.0923  0.2925
 9580W        W 9580   9.059   5.789   7.068  0.4733 -0.3092 -0.2540
 9581W        W 9581   3.245   2.523   1.174  0.0059  0.1318 -0.0700
 9582W        W 9582   5.248   9.692  10.276  0.0413 -0.1046  0.0679
 9583W        W 9583   8.099   8.271   2.890 -0.0183 -0.2043  0.1223
 9584W        W 9584   8.753   1.434   3.186 -0.3306  0.5471  0.1645
 9585W        W 9585   8.713   7.431   1.989  0.0985  0.0386  0.0403
 9586W        W 9586   2.813   0.305   4.001  0.0208  0.2484  0.2337
 9587W        W 9587   9.355   6.972   7.150  0.1208  0.2631  0.0381
 9588W        W 9588   4.765   5.816   4.928  0.1774  0.1554 -0.1032
 9589W        W 9589   4.317   3.802   1.746  0.0853 -0.0415 -0.0799
 9590W        W 9590   5.630   5.150   8.360 -0.1097  0.1116  0.0949
 9591W        W 9591   9.566   5.226   8.481 -0.1883 -0.4122  0.1136
 9592W        W 9592   6.935   2.314   9.721 -0.2826  0.3150 -0.2013
 9593W        W 9593  10.311   7.194   8.733 -0.0574 -0.0064 -0.3350
 9594W        W 9594   3.270   9.155   6.737 -0.2197 -0.1641 -0.2321
 9595W        W 9595   4.181   7.771   4.577  0.2973 -0.1392  0.4187
 9596W        W 9596   1.893   5.611   2.117 -0.3358  0.0604 -0.1135
 9597W        W 9597   8.451   9.343   8.641  0.0314 -0.3385 -0.1089
 9598W        W 9598   8.373   2.496   5.990 -0.3532  0.3725  0.2127
 9599W        W 9599   9.239   3.364   5.020 -0.0204  0.2631  0.1111
 9600W        W 9600  10.194   6.591   5.465 -0.4258 -0.0897 -0.3782
 9601W        W 9601   1.789   3.152   7.284  0.0160  0.0549 -0.2783
 9602W        W 9602   9.922   0.416   4.449  0.0761 -0.0728  0.2515
 9603W        W 9603   0.607   8.062   1.266 -0.0739  0.1942  0.0689
 9604W        W 9604   2.038   0.024   9.498  0.1140  0.1370 -0.2262
 9605W        W 9605   4.104   7.318   4.925  0.0682 -0.1775  0.1765
 9606W        W 9606   7.905   3.401   6.167 -0.3071 -0.2697 -0.1181
 9607W        W 9607   5.549   0.282   8.062 -0.1286 -0.2048  0.4922
 9608W        W 9608   2.635   0.891   2.550 -0.3065 -0.0889  0.2801
 9609W        W 9609   0.615   0.662  10.215  0.2258  0.0588 -0.0601
 9610W        W 9610   1.693   3.753   5.576 -0.1011 -0.0814 -0.1296
 9611W        W 9611   7.224   6.592   6.478  0.2667  0.0357  0.0705
 9612W        W 9612   7.736   1.100   3.717  0.0514  0.0282 -0.1477
 9613W        W 9613   8.898   6.790   2.956  0.3828 -0.5828  0.1235
 9614W        W 9614   1.587   7.260   1.197 -0.2955  0.1713 -0.1775
 9615W        W 9615   7.676   2.651   0.962  0.1014 -0.1483 -0.2552
 9616W        W 9616   5.196   5.998   1.185 -0.1590 -0.0454 -0.0993
 9617W        W 9617   9.567   0.765   8.914  0.1263 -0.2322 -0.4844
 9618W        W 9618   2.785   8.007   3.053  0.2823 -0.0909 -0.0475
 9619W        W 9619   2.630   6.975   1.566 -0.1587 -0.1373  0.2106
 9620W        W 9620   7.444   0.351   0.716  0.1104  0.2434  0.0007
 9621W        W 9621   4.937   5.774   5.362  0.0864 -0.0549  0.0306
 9622W        W 9622   9.974   7.533   5.495  0.3042  0.0843 -0.0201
 9623W        W 9623   1.605   2.100  10.159 -0.0426 -0.2458 -0.0965
 9624W        W 9624   4.102   4.760   5.891  0.4184 -0.0500 -0.0248
 9625W        W 9625   8.523   2.506   6.841 -0.0265 -0.2217  0.2866
 9626W        W 9626   9.677   7.953   9.161 -0.2433  0.1711 -0.4221
 9627W        W 9627   5.784   5.249   3.249 -0.0624 -0.0650 -0.2956
 9628W        W 9628   9.989   0.624   2.959  0.3881 -0.0260  0.1672
 9629W        W 9629   9.487   8.066   3.102  0.2264 -0.0211  0.2254
 9630W        W 9630   2.960   7.350   4.199  0.1020 -0.4329  0.2627
 9631W        W 9631   1.607   2.872   4.524 -0.1220  0.0467  0.1897
 9632W        W 9632   3.828   4.074   3.625 -0.4349  0.1646 -0.0868
 9633W        W 9633   8.113   5.022   7.012  0.2172  0.2164 -0.1529
 9634W        W 9634   9.626   2.750   0.436 -0.2524  0.0614  0.0628
 9635W        W 9635   8.059   4.238   1.857 -0.3802  0.1872 -0.2473
 9636W        W 9636   9.856   5.398   2.773 -0.1249  0.2241 -0.3220
 9637W        W 9637   1.624   0.041   5.913  0.2095  0.4075 -0.2272
 9638W        W 9638   6.074   0.930   8.053 -0.3249 -0.4787  0.0286
 9639W        W 9639   0.905   9.254   2.518 -0.2118 -0.3847  0.1185
 9640W        W 9640   4.595   9.161   7.070  0.1001 -0.1945 -0.0609
 9641W        W 9641   0.870   9.509   5.449  0.0012  0.2396 -0.1943
 9642W        W 9642   7.888   1.845   7.487  0.0444 -0.3345  0.1077
 9643W        W 9643   8.676   1.056   8.856  0.2830 -0.5481 -0.0780
 9644W        W 9644   3.616   7.890   3.071  0.2567 -0.1662 -0.0740
 9645W        W 9645   3.749   8.904   5.808  0.2935  0.1119  0.1266
 9646W        W 9646   3.213   4.290   4.876  0.2500 -0.2510  0.0202
 9647W        W 9647   3.284   2.023   9.370 -0.0015 -0.0280 -0.4510
 9648W        W 9648   9.374   1.745   5.004 -0.3904  0.0173  0.0849
 9649W        W 9649   1.384   1.980   2.871  0.0257  0.2081  0.1706
 9650W        W 9650   0.698   1.149   0.731 -0.4933 -0.0774  0.1642
 9651W        W 9651   6.329   7.409   0.990 -0.0103 -0.1880 -0.3544
 9652W        W 9652   1.003   6.260   5.549  0.0854  0.3404  0.0279
 9653W        W 9653   2.660   4.948   3.711  0.1891 -0.1099 -0.0074
 9654W        W 9654   9.721   0.444   3.430 -0.2758  0.3213 -0.1883
 9655W        W 9655   2.781   4.779  10.019  0.1189 -0.1128 -0.0722
 9656W        W 9656   9.621   5.685   3.282  0.0869 -0.3499 -0.1012
 9657W        W 9657   9.472   8.010   1.826 -0.1358 -0.2145  0.2698
 9658W        W 9658   2.632   3.331   3.982 -0.0292  0.2172  0.2586
 9659W        W 9659   7.977   5.229   6.608  0.1206 -0.1298 -0.0905
 9660W        W 9660   8.501   3.834   3.789  0.0012 -0.2754  0.1445
 9661W        W 9661   8.587   3.471   9.635 -0.2168 -0.2602  0.1476
 9662W        W 9662   0.787   0.204   7.340  0.0329  0.4271 -0.0906
 9663W        W 9663   1.797   8.451   9.092 -0.1558 -0.0757  0.0025
 9664W        W 9664   4.391   4.817   4.936  0.0337 -0.1946 -0.1667
 9665W        W 9665   9.458   1.028   7.025  0.0537  0.0743 -0.1707
 9666W        W 9666   3.064   6.709   1.309 -0.0666 -0.1736 -0.4058
 9667W        W 9667   0.495   2.008  10.068  0.1438  0.2551 -0.1384
 9668W        W 9668   6.015   4.625  10.213 -0.0100 -0.1433  0.0966
 9669W        W 9669   0.127   0.570   2.781 -0.3883 -0.0485 -0.0535
 9670W        W 9670   9.338  10.030   5.920  0.1861 -0.2952 -0.2616
 9671W        W 9671   7.362   4.284   5.844 -0.3779 -0.2858  0.1018
 9672W        W 9672   4.870   6.971   4.397  0.1084 -0.2859  0.0419
 9673W        W 9673   5.368   8.924   5.972 -0.1178 -0.3705  0.1088
 9674W        W 9674   3.622   9.662   0.845 -0.0082  0.0875  0.2391
 9675W        W 9675   1.982   5.172  10.190 -0.0117  0.0476  0.2035
 9676W        W 9676   5.952   9.171   6.621  0.1797  0.1060  0.0351
 9677W        W 9677   0.877   2.480   0.862  0.2130  0.1820 -0.0677
 9678W        W 9678   8.180   6.384   2.476 -0.2260 -0.1898 -0.0080
 9679W        W 9679   6.685   4.571   6.513 -0.2799 -0.1238 -0.1567
 9680W        W 9680   0.426   7.727   2.705 -0.0786 -0.0111  0.0008
 9681W        W 9681   8.377   5.005   9.427  0.1599  0.1295  0.1010
 9682W        W 9682   9.720   0.283   8.994  0.1980  0.0476  0.2160
 9683W        W 9683   4.036   0.378   2.379 -0.0669 -0.2666  0.1792
 9684W        W 9684   9.630   2.159   9.970  0.1257 -0.0454  0.0849
 9685W        W 9685   9.005   7.807   4.663  0.0937 -0.1480 -0.0213
 9686W        W 9686   5.889   4.884   2.733  0.2844 -0.0677  0.5157
 9687W        W 9687   8.254   9.603   9.046  0.1605  0.1157  0.0936
 9688W        W 9688   4.056   5.436   8.543 -0.0191 -0.1616  0.2210
 9689W        W 9689   0.362   8.510   2.878 -0.1207  0.0541  0.1029
 9690W        W 9690   2.727   7.710   1.448  0.2204 -0.1415 -0.2991
 9691W        W 9691   3.601   4.561   3.879  0.2627 -0.1456 -0.2708
 9692W        W 9692   1.803   9.695  10.121  0.1243  0.1546 -0.1351
 9693W        W 9693   6.063   6.023   5.190  0.0180  0.0592  0.2953
 9694W        W 9694   7.188   3.845   9.266 -0.1321 -0.0783 -0.2356
 9695W        W 9695   2.240   5.188   5.511  0.0305  0.2352 -0.2407
 9696W        W 9696   1.200   9.347   1.696  0.2808  0.0241 -0.0217
 9697W        W 9697   3.620   0.553   2.002 -0.0569  0.0615  0.2364
 9698W        W 9698   7.735   6.615   4.741 -0.2898 -0.3419  0.3082
 9699W        W 9699   5.084   8.827   9.259  0.1311 -0.1536 -0.2806
 9700W        W 9700   4.534   3.680   4.588 -0.1850  0.0134 -0.1925
 9701W        W 9701   2.139   9.374   9.916  0.0012 -0.0954 -0.1211
 9702W        W 9702   1.952   3.682   7.023  0.1262 -0.2720  0.1497
 9703W        W 9703   2.407   3.785   4.099  0.0376  0.0551  0.1685
 9704W        W 9704   0.542   0.377   3.525  0.0486 -0.1456 -0.2254
 9705W        W 9705   5.465   5.828  10.168 -0.0918 -0.0210  0.0809
 9706W        W 9706   5.883   1.687   8.465 -0.2416  0.4355 -0.1692
 9707W        W 9707   3.437   8.008   8.105  0.2545  0.4969  0.0382
 9708W        W 9708   4.112   9.297   3.590 -0.2204 -0.2502  0.0257
 9709W        W 9709   7.821   3.180   3.150 -0.0128  0.3378  0.0477
 9710W        W 9710   6.394   9.428   3.096 -0.1267 -0.1085  0.1680
 9711W        W 9711   8.487   4.081   8.280 -0.2738 -0.0513  0.1459
 9712W        W 9712   5.089   1.856   2.992 -0.0703 -0.1058 -0.3231
 9713W        W 9713   4.221   7.008   8.142 -0.0094  0.5387  0.0601
 9714W        W 9714   0.115   6.741   9.721  0.2349 -0.0978  0.3048
 9715W        W 9715   9.910   1.569   0.146  0.0454 -0.0508 -0.4594
 9716W        W 9716   3.405   3.829   5.358  0.1306 -0.2853 -0.1271
 9717W        W 9717   0.387   9.510   7.350 -0.0539 -0.0745 -0.1940
 9718W        W 9718   0.110   4.621   4.622  0.0439 -0.0427  0.1378
 9719W        W 9719  10.046   9.040   7.028  0.1309 -0.2707  0.1553
 9720W        W 9720   7.099   8.598   3.908  0.0467 -0.0162 -0.1640
 9721W        W 9721   1.817   8.212   1.867  0.1115  0.2659 -0.1862
 9722W        W 9722   4.909   1.984   6.355 -0.2322 -0.0399  0.2528
 9723W        W 9723   4.811   8.192   9.597  0.0426 -0.2179 -0.0500
 9724W        W 9724   1.292   2.349   1.102 -0.4871  0.1360 -0.1520
 9725W        W 9725   1.136   0.157   8.698 -0.4692 -0.0518  0.2183
 9726W        W 9726   5.851   1.554   4.110 -0.0875 -0.0692  0.0001
 9727W        W 9727   5.995   3.947   8.690 -0.0191  0.0062  0.0362
 9728W        W 9728  10.117   2.451   8.549  0.2261 -0.0061 -0.1792
 9729W        W 9729   0.520   2.413   7.471  0.2754  0.1606  0.2021
 9730W        W 9730   7.014   2.637   0.750 -0.0982 -0.0233 -0.0242
 9731W        W 9731   0.754   6.100   2.862 -0.4442  0.2246 -0.1106
 9732W        W 9732   5.850   3.232   0.916  0.2240  0.1378  0.2542
 9733W        W 9733   1.208   7.277   3.754  0.1188  0.1942 -0.0103
 9734W        W 9734   2.777   8.019   5.541  0.2701 -0.0258  0.4108
 9735W        W 9735   1.707   6.797   3.741  0.0391 -0.0270 -0.0217
 9736W        W 9736   2.835   4.166   0.845  0.3343 -0.0533 -0.2928
 9737W        W 9737   9.390   7.696   8.179  0.0797 -0.3138 -0.1768
 9738W        W 9738   3.816  10.307   6.900 -0.0695  0.0351 -0.4259
 9739W        W 9739   7.598   8.328   1.445 -0.1683  0.0133 -0.1645
 9740W        W 9740   7.182   4.391   6.713  0.2826 -0.0428  0.2136
 9741W        W 9741   1.970   1.318   9.621  0.1737 -0.0947 -0.0114
 9742W        W 9742   0.987   3.394   0.102  0.1690 -0.2976 -0.1623
 9743W        W 9743   6.461   2.287   2.568  0.4017  0.4863  0.0864
 9744W        W 9744  10.159   5.999   9.728 -0.0126  0.4593 -0.2165
 9745W        W 9745   2.965   4.418   7.590  0.0114 -0.2379 -0.1383
 9746W        W 9746   0.626   6.604   1.665  0.2539  0.1220 -0.2104
 9747W        W 9747   7.076   0.726   3.960 -0.1352  0.1946  0.0263
 9748W        W 9748   9.907   9.879   5.075  0.0371  0.1728 -0.2200
 9749W        W 9749   5.728   5.946   6.330  0.2783  0.0606 -0.0373
 9750W        W 9750   9.539   3.175   0.139  0.0868  0.0453  0.1365
 9751W        W 9751   7.466   8.966   5.053 -0.2865 -0.1692 -0.4177
 9752W        W 9752   2.998   0.599   4.439 -0.0536  0.0252 -0.0609
 9753W        W 9753   5.219   0.034   8.377  0.2492  0.3048  0.1537
 9754W        W 9754   3.581   0.204   3.099  0.1182 -0.0632  0.1123
 9755W        W 9755   1.776   7.362  10.131  0.2159 -0.1475 -0.4053
 9756W        W 9756   3.943   0.179   6.058 -0.3533 -0.0885 -0.2468
 9757W        W 9757   1.490   8.703   6.497  0.0903 -0.0140 -0.0042
 9758W        W 9758   7.316   0.907  10.052 -0.0523 -0.0184 -0.1743
 9759W        W 9759   3.850  10.250   1.483  0.3301  0.1379 -0.0617
 9760W        W 9760   3.086   7.882   9.524  0.1666  0.1336  0.0718
 9761W        W 9761   0.749   4.751   5.451 -0.0735  0.0056 -0.0397
 9762W        W 9762   3.072  10.289   3.056 -0.0647  0.0386 -0.0614
 9763W        W 9763   9.088   0.749   7.570  0.1326  0.0422 -0.1467
 9764W        W 9764   3.672   3.110   4.330  0.0038 -0.1024  0.1045
 9765W        W 9765   9.861   6.526   9.194 -0.1280  0.2079  0.0115
 9766W        W 9766   7.157   4.612   2.276  0.0788 -0.3659 -0.4545
 9767W        W 9767   3.437   4.114   2.184  0.2681  0.0291  0.2972
 9768W        W 9768  10.100   7.650   9.492  0.1214 -0.3763  0.0568
 9769W        W 9769   8.437   2.912   4.458  0.1672 -0.3310 -0.0144
 9770W        W 9770   1.402   2.143   1.622  0.1871 -0.2334 -0.2479
 9771W        W 9771   6.901   3.732   5.015  0.0646  0.0559  0.1433
 9772W        W 9772   2.595   3.888   5.685  0.1776 -0.1524 -0.1070
 9773W        W 9773   0.554   7.542   3.164 -0.1874  0.2419  0.2127
 9774W        W 9774   3.158   3.966   1.267 -0.1867 -0.0737 -0.2501
 9775W        W 9775   3.829   3.314  10.272 -0.1656 -0.0623  0.1383
 9776W        W 9776   3.639   5.453   3.722  0.3848  0.1008 -0.1847
 9777W        W 9777   8.160   6.461   6.172  0.0767 -0.0568 -0.1035
 9778W        W 9778   0.959   2.028   6.808 -0.0096  0.0754 -0.0649
 9779W        W 9779   7.536   6.033   1.113  0.0076  0.2223 -0.2261
 9780W        W 9780   6.617   0.603   3.808  0.1325  0.0040 -0.0512
 9781W        W 9781   0.966   9.393   6.468  0.1087 -0.0052  0.0719
 9782W        W 9782   0.438   3.888   2.584 -0.2485 -0.2089  0.1641
 9783W        W 9783   7.093   1.022   7.057 -0.1884 -0.1144 -0.0823
 9784W        W 9784   3.350   5.712   2.565  0.1853  0.1582  0.2122
 9785W        W 9785   3.003   8.463   5.457 -0.3197  0.1739 -0.0464
 9786W        W 9786   7.881   4.605   2.196 -0.1974 -0.0409 -0.5026
 9787W        W 9787   1.649   5.183   6.203 -0.0437  0.3221 -0.1215
 9788W        W 9788   1.711   6.723   1.453  0.3368  0.2775 -0.0134
 9789W        W 9789   4.490  10.275   7.742 -0.0827  0.3563 -0.0426
 9790W        W 9790   1.228   0.805   5.327 -0.0533 -0.0791  0.3259
 9791W        W 9791   0.356   6.911   5.840 -0.0713 -0.0725 -0.3343
 9792W        W 9792   8.464   0.794   4.040  0.3401 -0.1780  0.3662
 9793W        W 9793   8.458   3.527   3.356  0.3915  0.2037  0.2199
 9794W        W 9794   9.966   3.719   9.072 -0.0683 -0.0039 -0.2551
 9795W        W 9795   2.598   0.934   8.213 -0.1236  0.1296  0.1673
 9796W        W 9796   2.928   3.141   4.461  0.0493  0.1067 -0.0922
 9797W        W 9797   5.031   7.167   2.207  0.0168  0.0036  0.0019
 9798W        W 9798   8.603   2.521   4.740 -0.0549 -0.2420  0.0906
 9799W        W 9799   5.088   6.084   4.185 -0.2007  0.0618  0.2980
 9800W        W 9800   8.069   7.871   8.734 -0.0680 -0.0236 -0.1124
 9801W        W 9801   7.927   6.369   1.203 -0.1633  0.0942  0.0829
 9802W        W 9802   0.559   7.080   0.892 -0.2906 -0.0216 -0.1509
 9803W        W 9803   2.573   7.941   6.907 -0.1201  0.2339 -0.0839
 9804W        W 9804   9.757   4.431   3.710  0.2483  0.1420 -0.2073
 9805W        W 9805   0.897   8.338   5.384  0.0151  0.3175 -0.0752
 9806W        W 9806   7.886   4.068   0.254  0.0310  0.0507 -0.2764
 9807W        W 9807   2.985   9.722   9.773  0.1249 -0.0244 -0.1325
 9808W        W 9808   6.965   9.445   9.258 -0.2108 -0.1628  0.1294
 9809W        W 9809   2.872  10.023   4.266  0.1198 -0.0592  0.2638
 9810W        W 9810   4.399   9.494   4.736 -0.1987  0.2196 -0.0604
 9811W        W 9811   0.138   1.517   8.535  0.0240 -0.0902 -0.2737
 9812W        W 9812   9.402   0.807   2.336  0.1264  0.2845 -0.0524
 9813W        W 9813   5.988   9.421   1.486  0.0447 -0.0802  0.1860
 9814W        W 9814   4.338   1.490   0.765  0.0667 -0.2441 -0.0792
 9815W        W 9815   4.152   0.465   9.457  0.0311  0.3417  0.1665
 9816W        W 9816   7.815   6.298   2.822 -0.1287  0.4310  0.0461
 9817W        W 9817   8.878   7.148  10.294  0.0305 -0.0873 -0.0791
 9818W        W 9818   9.164   3.524   5.600 -0.0180 -0.0398 -0.0611
 9819W        W 9819   1.068   9.352   9.142 -0.3719 -0.1918  0.1138
 9820W        W 9820   4.924   8.713   2.696 -0.0224 -0.0473  0.1961
 9821W        W 9821   3.947   7.616   9.907  0.2455  0.2898  0.0981
 9822W        W 9822   7.763   7.589   2.797  0.0621  0.1833  0.0871
 9823W        W 9823   6.624   9.593   5.189  0.0424  0.0119 -0.0889
 9824W        W 9824   5.938   9.343   7.775 -0.4537 -0.0948  0.1694
 9825W        W 9825  10.072   4.105   9.451  0.0888 -0.0817 -0.1009
 9826W        W 9826   1.802   6.463   4.932  0.2007 -0.0201 -0.0949
 9827W        W 9827   8.315   7.747   7.895  0.1175 -0.1905 -0.1837
 9828W        W 9828   0.821   2.707   2.864  0.1779  0.0122 -0.2078
 9829W        W 9829   7.017   2.820   7.240  0.0668  0.0096 -0.2041
 9830W        W 9830   5.505   6.902   8.232  0.4682 -0.1686 -0.3927
 9831W        W 9831   6.949   0.957   8.110 -0.0648 -0.1719 -0.1575
 9832W        W 9832   6.632   9.604   9.792  0.1062  0.1823 -0.0961
 9833W        W 9833   8.596   6.659   7.133 -0.1640 -0.0274 -0.3794
 9834W        W 9834   1.123  10.214   2.859  0.0645  0.0307  0.0418
 9835W        W 9835   0.489   0.548   1.542 -0.3776 -0.0238 -0.0846
 9836W        W 9836   9.787   2.183   4.362 -0.1685  0.0260  0.0573
 9837W        W 9837   8.458   7.877   1.852  0.3441  0.0786  0.1195
 9838W        W 9838   9.716   9.729   2.212  0.0426  0.1732 -0.3612
 9839W        W 9839   7.884   2.411   6.014  0.2317  0.0784  0.1774
 9840W        W 9840   3.025   9.604  10.304  0.0530  0.1088  0.2006
 9841W        W 9841   7.369   2.239   6.579 -0.0193  0.0919  0.0841
 9842W        W 9842   6.499   1.503   9.630 -0.2565  0.2307  0.0000
 9843W        W 9843   9.643   6.844   6.767  0.0214  0.0949 -0.0502
 9844W        W 9844   1.999   2.387  10.293  0.0279  0.0876  0.0184
 9845W        W 9845   2.449   4.622   4.021 -0.2670 -0.2801 -0.0786
 9846W        W 9846   5.219   4.659   2.211  0.1242  0.1394 -0.0391
 9847W        W 9847   7.006   7.265   2.653  0.2565 -0.0538 -0.0531
 9848W        W 9848   3.503   1.743   0.826  0.0475  0.2124 -0.1630
 9849W        W 9849   0.047   4.523   1.407  0.1128 -0.0966  0.0523
 9850W        W 9850   2.743   2.957   6.978  0.2312 -0.2092  0.0545
 9851W        W 9851   2.095   6.707   6.577 -0.1171 -0.1906 -0.1735
 9852W        W 9852   5.838   3.158   4.500  0.1629  0.0404 -0.4263
 9853W        W 9853   4.329   1.542   1.910  0.3973 -0.0832 -0.0060
 9854W        W 9854   3.788   3.503   7.778 -0.0059 -0.0309 -0.0694
 9855W        W 9855   9.769   3.381   1.633 -0.0971 -0.3156  0.0212
 9856W        W 9856   8.335   2.097   7.553  0.2497 -0.0427 -0.3661
 9857W        W 9857   0.676   1.930   7.834 -0.0030 -0.0549 -0.2318
 9858W        W 9858   4.984   4.731   8.380  0.0828 -0.0846  0.1943
 9859W        W 9859   6.731   2.937   8.945  0.2233  0.1263  0.2164
 9860W        W 9860   7.876   4.396   4.469  0.1302 -0.0477  0.0213
 9861W        W 9861   3.564   2.518  10.054  0.2091 -0.3835  0.0763
 9862W        W 9862   7.585   0.014   1.946  0.2581  0.0931  0.0609
 9863W        W 9863   2.810   4.761   2.731  0.1042 -0.1115  0.2320
 9864W        W 9864   5.160   8.309   0.601 -0.1959  0.0665  0.1183
 9865W        W 9865   4.121   0.972   5.342  0.2015 -0.1580  0.0656
 9866W        W 9866   3.335   6.938   5.604 -0.0111  0.1150 -0.2955
 9867W        W 9867   2.752   9.832   6.136 -0.1315  0.2159 -0.1271
 9868W        W 9868   9.797   9.699   3.985  0.2142 -0.3518  0.0407
 9869W        W 9869  10.072   2.883   5.950  0.0647  0.2350  0.1203
 9870W        W 9870   6.408   0.043   5.472 -0.1939  0.3385  0.2813
 9871W        W 9871   0.701   5.362   1.061 -0.0097 -0.0355 -0.2207
 9872W        W 9872   7.376   8.206   2.844 -0.1017 -0.1382 -0.0505
 9873W        W 9873   7.952   5.849   0.940  0.1419 -0.2564  0.0943
 9874W        W 9874   8.195   8.079   4.716 -0.1171 -0.0025  0.0312
 9875W        W 9875   3.045   4.198   3.689 -0.0327 -0.3125 -0.2138
 9876W        W 9876   7.692   1.243   7.532  0.2485 -0.0933 -0.0622
 9877W        W 9877   4.347   0.837   4.571  0.1078 -0.0273 -0.2275
 9878W        W 9878   3.234   7.845   5.389 -0.2331 -0.2679  0.2297
 9879W        W 9879   0.808   8.726   2.632 -0.1694  0.0631 -0.1734
 9880W        W 9880   0.706   7.356   4.983  0.0249 -0.1427  0.2035
 9881W        W 9881   3.762   5.804   3.992  0.2443 -0.0750  0.0462
 9882W        W 9882   3.787   1.572   6.643  0.0550 -0.0871  0.0976
 9883W        W 9883  10.261   1.818   6.868  0.1467  0.0197  0.0272
 9884W        W 9884   1.387   3.664   2.187 -0.0652 -0.2819  0.3301
 9885W        W 9885   1.247   7.470   6.690  0.0925 -0.0325  0.1808
 9886W        W 9886  10.325   1.056   2.712 -0.1436  0.1324 -0.1781
 9887W        W 9887   2.623   0.552   5.686 -0.0078  0.0455  0.1742
 9888W        W 9888   7.262   7.899   9.969 -0.2199  0.2706  0.3476
 9889W        W 9889   0.334   5.123   8.499 -0.4396  0.2472 -0.0190
 9890W        W 9890   4.207   1.760   6.822 -0.1465 -0.3469 -0.1443
 9891W        W 9891   6.966   3.510   1.791  0.1800 -0.1206  0.2390
 9892W        W 9892   0.573   2.042   1.193  0.0061 -0.4659  0.2396
 9893W        W 9893   6.191   9.937   2.199  0.4374 -0.2515 -0.0675
 9894W        W 9894   8.936   8.947   0.993 -0.2266  0.0087 -0.1382
 9895W        W 9895   3.874   1.554   1.712 -0.4926  0.1927 -0.0003
 9896W        W 9896   7.011   7.141   0.785 -0.0683 -0.1232 -0.1906
 9897W        W 9897   2.547   1.850   6.986 -0.2741  0.1040  0.2918
 9898W        W 9898  10.342   1.197   7.473  0.2367 -0.1353  0.0335
 9899W        W 9899   3.460  10.119   5.060  0.0955  0.1837  0.1592
 9900W        W 9900   9.662   2.627   9.025 -0.1465  0.0242 -0.0755
 9901W        W 9901   1.271   8.165   1.922 -0.1514  0.0952  0.0882
 9902W        W 9902   0.744   7.901   1.733  0.1066  0.0562 -0.2122
 9903W        W 9903   4.331   8.286   4.637 -0.2167 -0.0450 -0.0475
 9904W        W 9904   8.857   7.583   1.186  0.2628 -0.0290 -0.0423
 9905W        W 9905   3.679   6.091   2.560 -0.1908 -0.0394  0.1324
 9906W        W 9906   5.854   1.394   2.608  0.1224 -0.0300 -0.0172
 9907W        W 9907   7.813   4.511   7.222 -0.3156  0.1075 -0.0516
 9908W        W 9908   5.873   3.510   7.477 -0.1290 -0.5327  0.0391
 9909W        W 9909   1.258   2.041   0.266 -0.4028  0.0418 -0.4891
 9910W        W 9910   4.619   6.115   5.445  0.2923  0.3315 -0.3794
 9911W        W 9911   6.353   8.965   2.133  0.1943  0.3578 -0.1553
 9912W        W 9912   6.247   7.820   2.960 -0.1801 -0.3107  0.0832
 9913W        W 9913   8.374   2.536   8.859 -0.0718  0.0601 -0.1540
 9914W        W 9914   4.662   1.463   3.622  0.3781  0.3771  0.1577
 9915W        W 9915   2.456   6.563   3.799 -0.1024  0.0500 -0.0254
 9916W        W 9916   1.150   9.383   6.016 -0.0900 -0.0566  0.2530
 9917W        W 9917   9.245   9.459   0.472  0.2787  0.0130 -0.0774
 9918W        W 9918   2.938   1.946   4.190  0.1309 -0.1478  0.2542
 9919W        W 9919   0.993   6.285   9.563  0.2297  0.2588  0.1222
 9920W        W 9920   2.080   7.832   7.086 -0.0083 -0.2232 -0.3030
 9921W        W 9921   9.485   5.992  10.322 -0.0427  0.2175 -0.2779
 9922W        W 9922   1.634   8.153   3.661 -0.1752  0.2858 -0.0255
 9923W        W 9923   1.735   4.901   8.491  0.0285  0.2097 -0.0518
 9924W        W 9924  10.259   6.152   1.908 -0.1287  0.2903  0.0245
 9925W        W 9925   0.814   6.721   3.291  0.1618  0.3085  0.2024
 9926W        W 9926   0.346   7.713   4.768  0.1277  0.0338 -0.0700
 9927W        W 9927   2.998   8.345   5.938 -0.4135  0.1514  0.4250
 9928W        W 9928   4.328   6.204   2.554 -0.0217 -0.0510  0.0740
 9929W        W 9929   2.443   8.858   6.579  0.1014 -0.0700 -0.1734
 9930W        W 9930   5.798   8.519   5.304  0.0450  0.2682 -0.0028
 9931W        W 9931   1.822   0.792   9.617  0.0773 -0.0087  0.0225
 9932W        W 9932   3.384   4.273   7.314 -0.0484  0.0539  0.1234
 9933W        W 9933   6.787   4.106   9.081  0.0540 -0.0339 -0.1241
 9934W        W 9934   6.242   1.869   0.103  0.3110 -0.0379 -0.4025
 9935W        W 9935   0.094   3.221   3.342  0.2226 -0.3983  0.1701
 9936W        W 9936   2.529   8.773   7.112  0.0403 -0.2320 -0.1318
 9937W        W 9937   8.032   4.220   1.366  0.0536 -0.0253  0.0886
 9938W        W 9938   0.685   5.425   3.850  0.1002 -0.2418  0.2891
 9939W        W 9939   5.864   6.022   6.827  0.0715 -0.0838  0.0929
 9940W        W 9940   0.788   8.215   9.893 -0.1961  0.1774  0.0766
 9941W        W 9941   9.885   3.987   2.975 -0.0915 -0.0903  0.2330
 9942W        W 9942   0.372   6.281   2.586 -0.0523 -0.1932  0.1639
 9943W        W 9943   4.308  10.231   7.072 -0.0935 -0.0832  0.2529
 9944W        W 9944   4.349   4.141   3.857 -0.2129  0.1738  0.3178
 9945W        W 9945   6.338   3.255   3.606  0.0165 -0.0617  0.2190
 9946W        W 9946   7.819   9.087   2.172  0.0746  0.1369 -0.3262
 9947W        W 9947  10.021   7.044   9.218  0.0542 -0.1426  0.0306
 9948W        W 9948   0.915   4.717   7.451 -0.1506 -0.1085 -0.0727
 9949W        W 9949   4.926   1.621   0.709 -0.0295  0.2593 -0.0339
 9950W        W 9950   4.232   6.474   6.554  0.0061  0.1483  0.0261
 9951W        W 9951   7.647   3.356   7.699  0.0879 -0.0909  0.3582
 9952W        W 9952   1.444   4.176   3.489  0.1550  0.2471  0.2609
 9953W        W 9953   2.121   2.373   2.710 -0.0525  0.1512  0.1213
 9954W        W 9954   9.494   0.068   9.384  0.2076  0.1453  0.2595
 9955W        W 9955   4.529   7.144  10.160 -0.1135 -0.1583  0.1118
 9956W        W 9956   9.361   8.649   7.991 -0.1909  0.2562  0.0356
 9957W        W 9957   7.054   9.207   5.156 -0.1095 -0.1857  0.0628
 9958W        W 9958   2.907   4.835   5.821 -0.0488  0.0881 -0.2685
 9959W        W 9959   0.401   3.354   8.302  0.3518 -0.0702 -0.0572
 9960W        W 9960   0.134   6.847   0.301  0.1697 -0.0338 -0.2116
 9961W        W 9961   9.590   4.372   3.116 -0.1062  0.0598 -0.1136
 9962W        W 9962   7.717   0.004   2.447 -0.0414 -0.0389 -0.1075
 9963W        W 9963   0.169   4.781   3.242 -0.1643  0.3020  0.1413
 9964W        W 9964   9.445   2.297   2.794  0.0952 -0.3554 -0.1032
 9965W        W 9965   5.962   7.171   1.285  0.1123  0.0376 -0.1281
 9966W        W 9966   2.488   2.310  10.249  0.2072 -0.0695 -0.0988
 9967W        W 9967   2.664   1.816   3.281  0.1362 -0.1025 -0.1973
 9968W        W 9968   0.580   7.058   0.372 -0.0080 -0.2758  0.0253
 9969W        W 9969   1.059   3.810   3.887 -0.0398  0.0958 -0.3002
 9970W        W 9970   6.708   6.041   0.427  0.2438  0.0900 -0.1983
 9971W        W 9971   9.005   4.257   9.220 -0.0393 -0.3241  0.1829
 9972W        W 9972   5.524   4.401   3.622 -0.3604  0.1917  0.1761
 9973W        W 9973   1.805   2.976   8.864 -0.2221  0.1881 -0.1706
 9974W        W 9974   1.319   5.808   6.786  0.1314  0.2518  0.1299
 9975W        W 9975   9.394   2.409   6.925 -0.0418 -0.0031 -0.0328
 9976W        W 9976   9.800   6.248   5.518  0.2022  0.0496 -0.3612
 9977W        W 9977   7.161   8.098   1.780 -0.0303 -0.0953 -0.0902
 9978W        W 9978   5.160   3.222   7.044  0.0406 -0.0166  0.0130
 9979W        W 9979   7.104   2.164   1.747  0.0914 -0.1421 -0.0830
 9980W        W 9980   3.962   0.106   9.909  0.0693 -0.0825  0.0361
 9981W        W 9981   0.327  10.015   7.417 -0.1444 -0.0578 -0.1123
 9982W        W 9982   9.379   4.277   5.100 -0.1100  0.1242  0.0983
 9983W        W 9983   1.716   8.329   8.518  0.1794  0.0584 -0.0457
 9984W        W 9984   1.621   2.541   9.471 -0.1066 -0.0030 -0.1305
 9985W        W 9985   1.100   7.823   3.883  0.1116  0.4386  0.2858
 9986W        W 9986   1.892   5.953   1.761 -0.0300 -0.2911  0.0502
 9987W        W 9987   8.840   3.769   1.746 -0.2354  0.0621  0.0713
 9988W        W 9988   7.134   5.312   2.882  0.1102  0.3539  0.2109
 9989W        W 9989   4.552   7.326   4.556  0.0318 -0.3321 -0.2413
 9990W        W 9990   1.153   6.461   8.509 -0.0715 -0.0614 -0.1257
 9991W        W 9991   0.489   6.226   3.326 -0.0911 -0.2970 -0.2000
 9992W        W 9992   4.535   2.363   9.700  0.1165  0.1768  0.2570
 9993W        W 9993   3.659   1.471   3.652  0.2366  0.0034  0.0130
 9994W        W 9994   2.035   8.477   4.569  0.0325  0.3621 -0.0312
 9995W        W 9995   8.273   5.155   9.931 -0.0460  0.2107  0.2965
 9996W        W 9996   3.893  10.116   0.937 -0.2507  0.2612  0.0862
 9997W        W 9997   2.275   5.383   9.071 -0.2066 -0.1620 -0.1410
 9998W        W 9998   1.030   0.993   7.843  0.3035 -0.0563 -0.1153
 9999W        W 9999   3.035   0.446   2.107  0.2613 -0.1505 -0.2999
10000W        W10000   9.640   7.222   3.907  0.2701  0.1618 -0.0509
10001W        W10001   6.871  10.337   4.213 -0.2452 -0.0347 -0.1629
10002W        W10002   4.725   0.303   4.607 -0.1524 -0.0434  0.1484
10003W        W10003   8.389   2.800   2.185 -0.0956 -0.1103  0.2260
10004W        W10004   0.082   1.752   0.930 -0.1735 -0.3186  0.3018
10005W        W10005   1.962   6.567   0.495  0.2255  0.1493  0.0018
10006W        W10006   7.253   3.355   2.990 -0.1384  0.0177  0.0793
10007W        W10007   9.039   7.056   5.172  0.0069 -0.0447  0.1582
10008W        W10008   0.015   4.426   3.698 -0.3283 -0.2865 -0.3432
10009W        W10009   7.229   8.461   0.477 -0.0416  0.0510  0.1145
10010W        W10010   4.634   3.391   7.087  0.1858  0.1049  0.1427
10011W        W10011   7.799   3.252   0.660  0.0716  0.2379 -0.0576
10012W        W10012   3.449   8.137   6.266 -0.3589  0.1587  0.2322
10013W        W10013   4.723   8.361   3.759 -0.0324 -0.2601 -0.0379
10014W        W10014   4.857   2.744   3.327  0.2104 -0.1838 -0.2330
10015W        W10015   6.314   8.280   8.644 -0.2134  0.1219 -0.1292
10016W        W10016   7.913   3.559   8.871  0.1362  0.1543  0.1973
10017W        W10017   9.131   0.458   6.324  0.1240 -0.2659 -0.0539
10018W        W10018   8.701   4.527   9.552 -0.1329 -0.1670 -0.0011
10019W        W10019   5.099   9.779   3.626  0.0342 -0.1074 -0.0636
10020W        W10020   0.986   5.234   3.512 -0.1923  0.1919  0.0676
10021W        W10021   1.046   7.107   5.919  0.1036 -0.3181 -0.1023
10022W        W10022   5.814   9.331   1.043 -0.0829  0.3365 -0.0787
10023W        W10023   5.742   2.777   9.351 -0.3119 -0.0642 -0.0124
10024W        W10024   0.520   4.743   6.399 -0.0233 -0.2696  0.0078
10025W        W10025   9.435   7.408   3.396  0.1597 -0.2558  0.0833
10026W        W10026   3.357   7.177   3.772 -0.0243  0.2163  0.1003
10027W        W10027   2.866   3.516   2.136 -0.0160  0.1259 -0.0384
10028W        W10028   2.879   2.629   6.479  0.0987  0.1817 -0.1472
10029W        W10029   0.850   5.136   7.088 -0.2179  0.3736  0.2198
10030W        W10030   0.170   1.729   1.473 -0.0751 -0.0714 -0.2209
10031W        W10031   2.245  10.163   1.019  0.4129 -0.1815 -0.2644
10032W        W10032  10.265   9.242   5.118  0.1314 -0.0895  0.2518
10033W        W10033   1.766   1.717   9.330 -0.2637  0.0649 -0.2118
10034W        W10034   0.389  10.322   1.162  0.1395 -0.2867  0.1407
10035W        W10035   1.488   5.384   9.151  0.0015 -0.4398  0.1611
10036W        W10036   0.253   1.854   2.578  0.1817 -0.1610 -0.0341
10037W        W10037   8.314   2.009   0.621 -0.2191 -0.0075  0.1997
10038W        W10038   9.971   4.520   4.727 -0.0442  0.1290 -0.3911
10039W        W10039  10.046   1.059  10.249 -0.0143 -0.0383  0.0979
10040W        W10040   1.400   1.705   7.642 -0.2402  0.1903  0.0551
10041W        W10041   2.578   8.668  10.162 -0.1420 -0.3940 -0.0923
10042W        W10042   2.204   2.079   0.401 -0.2406 -0.1985  0.0934
10043W        W10043   7.903   1.434   9.797  0.1311  0.1282 -0.4175
10044W        W10044   7.884   8.458   2.326  0.0072 -0.0508 -0.1364
10045W        W10045   8.013   7.644   1.746  0.3497  0.2569  0.1389
10046W        W10046   6.588   2.665   4.803  0.3313 -0.2130 -0.2454
10047W        W10047   0.141   9.050   3.615  0.1063 -0.1120  0.1846
10048W        W10048   2.432   9.181   6.117 -0.0740  0.1479  0.2576
10049W        W10049   4.979   6.311   5.178 -0.0095 -0.2818  0.0566
10050W        W10050   2.988   3.986   2.421 -0.0650  0.4110  0.2391
10051W        W10051   6.998   5.585   3.249  0.2744  0.0797 -0.1999
10052W        W10052   9.507   1.834   2.568  0.1561 -0.2221  0.1296
10053W        W10053   7.938   2.641   1.945 -0.1777 -0.3499 -0.3288
10054W        W10054   5.939   4.148   0.712 -0.4100  0.1680  0.2053
10055W        W10055   5.997  10.300   7.267  0.1614 -0.1060 -0.1557
10056W        W10056   8.091   4.676   1.159  0.0350  0.1485 -0.0833
10057W        W10057   5.481   6.945   5.577 -0.0783 -0.0406  0.0322
10058W        W10058   7.827   0.620   7.555 -0.3358  0.0448  0.0278
10059W        W10059   5.704   1.477   0.490  0.2355 -0.0381  0.0868
10060W        W10060   3.214   8.536   6.311 -0.0160 -0.1280 -0.0997
10061W        W10061   3.209  10.312   3.960 -0.0658 -0.1768  0.1128
10062W        W10062   2.660   2.726   9.776  0.3506 -0.1621 -0.0512
10063W        W10063   8.075   2.885   2.579  0.0930 -0.1080  0.1875
10064W        W10064   1.709   6.334   9.316  0.2263  0.2233  0.2426
10065W        W10065   5.394   0.826   3.372  0.2118 -0.1100 -0.2150
10066W        W10066   3.149   7.497   9.959 -0.0770  0.0120  0.0709
10067W        W10067   6.375   3.169   9.911 -0.0724 -0.0384 -0.0993
10068W        W10068   2.947   3.152   3.640 -0.3812  0.3237 -0.1232
10069W        W10069   1.007   1.273   7.016 -0.2193  0.3691 -0.2868
10070W        W10070   1.655   7.879   0.304  0.0123  0.1369 -0.1928
10071W        W10071   6.631   1.166   8.797 -0.3351  0.1835 -0.0191
10072W        W10072   3.110   7.944  10.149  0.1747  0.0388 -0.0747
10073W        W10073   3.802   3.900   0.964  0.4252 -0.1882 -0.0545
10074W        W10074   3.546   4.277   1.326  0.0134  0.2080 -0.0349
10075W        W10075   7.334   1.757   4.274  0.0118  0.1237  0.0543
10076W        W10076   5.142   2.484   9.071  0.0361 -0.0475  0.4625
10077W        W10077   0.778   7.382   2.682 -0.1131 -0.1863 -0.1559
10078W        W10078   3.559   2.513   0.498 -0.1095 -0.0919 -0.2022
10079W        W10079   5.255   6.624   5.956  0.2628  0.0010 -0.0957
10080W        W10080   4.373   0.466   7.889  0.0787  0.1882  0.1643
10081W        W10081   6.104   7.098   3.550  0.0948 -0.2727  0.1318
10082W        W10082   8.790   4.739   0.544  0.2382  0.2196 -0.1536
10083W        W10083   0.303   0.749   0.696 -0.1320  0.0911 -0.0304
10084W        W10084   7.938   6.938   7.157  0.0737 -0.0933  0.0671
10085W        W10085   0.292   2.691   6.855 -0.3128 -0.1084 -0.0979
10086W        W10086   7.701   8.810   6.095  0.2108  0.1515 -0.3123
10087W        W10087   4.018   8.971   5.236  0.1405  0.1746 -0.0580
10088W        W10088   8.890   0.282   9.491  0.0435  0.1153  0.2168
10089W        W10089   8.777   6.919   7.785 -0.0678  0.0515 -0.2272
10090W        W10090   8.323   3.818   5.878  0.2057 -0.1959 -0.0985
10091W        W10091   0.585   1.254   7.955 -0.2513  0.2089 -0.1007
10092W        W10092   3.444   1.218   1.047  0.3053  0.0777 -0.0418
10093W        W10093   9.934   2.463   1.952 -0.4254  0.0936 -0.0362
10094W        W10094   9.963   1.139   5.345 -0.0419  0.2097 -0.1276
10095W        W10095   1.488   4.203   6.155 -0.2399 -0.1659 -0.1995
10096W        W10096   4.147   5.196   6.250  0.0270  0.0858  0.1364
10097W        W10097   0.725   7.881   6.100 -0.1069  0.3040 -0.1431
10098W        W10098   4.638   2.833   5.302  0.0079  0.0355  0.2204
10099W        W10099   9.788   5.904   8.511  0.0267 -0.1944  0.2101
10100W        W10100   9.939   1.277   4.066 -0.3008 -0.2478  0.0964
10101W        W10101   1.261   6.340   5.056  0.0058 -0.0246  0.0723
10102W        W10102   0.247   9.586   0.686 -0.0029 -0.0480 -0.1929
10103W        W10103   2.433   4.592   8.834 -0.3976 -0.1446  0.4088
10104W        W10104   4.176   0.830   6.106  0.0437 -0.2002  0.3263
10105W        W10105   9.001   8.050   8.208  0.1135  0.0175 -0.3173
10106W        W10106   0.793  10.285   3.324  0.2531  0.2323 -0.2938
10107W        W10107   1.795   7.706   2.006 -0.1545  0.1349  0.0004
10108W        W10108   5.614   8.588   9.685  0.1817 -0.2753 -0.3078
10109W        W10109   7.647   8.644   2.983  0.1918 -0.0291 -0.0459
10110W        W10110   5.857   5.564   7.966  0.1430  0.0589  0.1391
10111W        W10111   0.025   2.679   2.860 -0.1603 -0.3298  0.1501
10112W        W10112  10.243   9.542   2.489  0.1594 -0.4411  0.0003
10113W        W10113   6.973   5.238   9.796 -0.1373 -0.2522 -0.1222
10114W        W10114   5.292   2.792   9.442 -0.0789  0.1441 -0.3672
10115W        W10115   7.338   3.779   7.440 -0.0851  0.2241  0.0487
10116W        W10116   8.088   2.598   9.821  0.2430 -0.1194  0.1930
10117W        W10117   1.442   9.766   7.429 -0.0078 -0.2188 -0.0796
10118W        W10118   4.647   2.188   6.765 -0.1535 -0.2254  0.0574
10119W        W10119   7.156   4.718   2.785  0.0402  0.0706  0.2394
10120W        W10120   4.628   0.298   9.469  0.1076  0.2195  0.2410
10121W        W10121   6.303   8.588   9.107 -0.1855 -0.1436 -0.0978
10122W        W10122   6.330   4.069   1.096 -0.0929 -0.1533  0.1655
10123W        W10123   7.327   8.705   0.064  0.1425 -0.2521  0.2071
10124W        W10124   9.227   7.627   2.095  0.0926  0.0449  0.3189
10125W        W10125   2.503   3.310   0.776  0.0536 -0.2090 -0.2251
10126W        W10126   3.372   6.961   9.141 -0.0221  0.0738  0.1672
10127W        W10127   8.828   8.584   8.048 -0.2153  0.0797  0.2545
10128W        W10128   4.932   3.789   8.233  0.2268 -0.0830 -0.0900
10129W        W10129   7.328   4.789   9.911  0.3420  0.1873  0.0519
10130W        W10130   7.302   4.049   3.316  0.0097  0.0403 -0.2143
10131W        W10131   5.142   6.511   8.008  0.0510 -0.0810  0.0900
10132W        W10132   8.538   3.637   8.350  0.0043  0.0738 -0.0902
10133W        W10133   8.860   1.740   1.356 -0.1575  0.1619  0.2294
10134W        W10134   2.643   8.357   8.010  0.0278  0.1330  0.0496
10135W        W10135   5.957   9.289   8.694  0.0819  0.1270 -0.2990
10136W        W10136   8.199   9.676   7.729  0.0706 -0.1115 -0.0969
10137W        W10137   9.609   3.357   1.143  0.2142  0.0359  0.0782
10138W        W10138   4.172   7.961   5.035 -0.0646 -0.4151  0.2274
10139W        W10139   9.313   9.050   1.519 -0.3344 -0.0473 -0.0693
10140W        W10140   8.868   4.402   4.537  0.1433 -0.2386 -0.1755
10141W        W10141   5.060   5.338   9.460  0.1992 -0.2125 -0.0912
10142W        W10142   2.113   0.602   2.244  0.0125 -0.1199  0.2715
10143W        W10143   2.820   0.377   1.560  0.0554  0.3107  0.1060
10144W        W10144   6.607   5.600   6.623  0.0217 -0.2623 -0.3214
10145W        W10145   1.856   6.324   6.461 -0.2887  0.0369 -0.2983
10146W        W10146   7.624   6.933   8.383 -0.1270  0.4950 -0.1940
10147W        W10147   2.100   3.812   1.430  0.1794 -0.2404  0.0849
10148W        W10148   2.450   1.456   2.999 -0.2141 -0.3526  0.0023
10149W        W10149   0.159   6.651   8.065 -0.1077  0.0719  0.1706
10150W        W10150   7.817   7.467   8.705 -0.0044 -0.1999  0.4477
10151W        W10151   4.207   4.466   7.891 -0.0786  0.0155 -0.0424
10152W        W10152   5.850   3.623   8.291  0.0637  0.2115  0.0036
10153W        W10153   2.315   3.820   3.622  0.0771 -0.1272 -0.0553
10154W        W10154   9.358   2.930   7.070 -0.2356  0.1703  0.1436
10155W        W10155   8.915   1.196   1.490  0.3162  0.1790 -0.0338
10156W        W10156   1.031   2.663  10.178 -0.0976  0.0213  0.3684
10157W        W10157   4.523   1.850   8.118 -0.4453  0.0187 -0.0957
10158W        W10158   9.274   7.407   1.432  0.1908 -0.2072 -0.2682
10159W        W10159   8.483   5.690   9.522  0.0922 -0.1620 -0.0725
10160W        W10160   5.185   6.713   8.832 -0.1971  0.0961 -0.0427
10161W        W10161   2.848   9.450   3.680 -0.3207 -0.0729 -0.2431
10162W        W10162   7.218   5.267   0.222 -0.1027 -0.2832  0.0185
10163W        W10163   3.673   6.030   0.221 -0.1847  0.0908 -0.1566
10164W        W10164   9.859   7.984  10.318 -0.4845  0.2098  0.2504
10165W        W10165   3.362   6.115   3.757 -0.1424 -0.1648  0.0326
10166W        W10166   9.849   8.289   4.052 -0.2751 -0.0755 -0.2940
10167W        W10167   4.130   0.894   0.843  0.0035 -0.0055  0.0251
10168W        W10168   5.592   1.442  10.312 -0.3180 -0.0151  0.1174
10169W        W10169   5.017   9.142   6.711 -0.4424  0.2842 -0.0137
10170W        W10170   9.249   5.679   2.163  0.1400  0.0914  0.1408
10171W        W10171   0.731   9.359   1.436  0.2057  0.0268  0.1863
10172W        W10172   3.582   3.279   5.677  0.2226 -0.0496 -0.0865
10173W        W10173   7.665   8.497   3.785  0.1220 -0.1158  0.0873
10174W        W10174   4.979   7.949   1.084  0.2533  0.0870 -0.1890
10175W        W10175   7.260   9.060   3.024 -0.3405  0.0009  0.0995
10176W        W10176   8.569   3.964   5.202 -0.1257 -0.0946  0.1099
10177W        W10177   4.276   8.216   1.751 -0.0044  0.0612 -0.2925
10178W        W10178   2.558   4.548   1.120 -0.1125 -0.0773 -0.0306
10179W        W10179   3.459   7.252   4.463 -0.0521  0.0346 -0.2475
10180W        W10180   2.527   9.588   8.308  0.3453 -0.2784 -0.2538
10181W        W10181   2.230   6.415   0.105  0.3306 -0.0744 -0.0980
10182W        W10182   3.988   3.090   7.607  0.3250  0.0405 -0.0455
10183W        W10183   0.802   1.807   3.602 -0.1509 -0.2891  0.1326
10184W        W10184   0.752   7.094   1.384  0.2048  0.2633 -0.0313
10185W        W10185   1.250   2.228   6.307  0.0530  0.1685  0.3175
10186W        W10186   3.317   1.963   5.746  0.0773 -0.3254  0.1163
10187W        W10187   6.793   0.221   8.484 -0.1793  0.3557  0.0165
10188W        W10188   3.129   5.853   9.170 -0.2015 -0.3633  0.2646
10189W        W10189   3.976   2.141   4.243 -0.4236  0.0254  0.0961
10190W        W10190   9.751   5.858   4.103  0.1793  0.0061  0.2042
10191W        W10191   5.097   5.341  10.266 -0.1954 -0.0836  0.0518
10192W        W10192   1.792   6.753   7.619  0.1715  0.0320 -0.0731
10193W        W10193   3.279   9.042   7.603 -0.0382  0.0365 -0.1774
10194W        W10194   8.603  10.141  10.268 -0.0544  0.1287  0.0123
10195W        W10195   3.277   4.541   5.728  0.4922 -0.1584 -0.0743
10196W        W10196   0.949   2.298   5.906 -0.1936 -0.0173  0.3079
10197W        W10197   4.737   6.242   1.001  0.2083  0.1867 -0.0212
10198W        W10198   3.661   7.713   0.506  0.0460 -0.3162 -0.2090
10199W        W10199   0.523  10.287   5.694 -0.0200  0.2328  0.0732
10200W        W10200   0.454   0.618   9.236 -0.0690  0.1404 -0.0440
10201W        W10201   9.794   8.880   2.824 -0.2640 -0.2125 -0.0344
10202W        W10202   5.443   6.475   5.522 -0.2220  0.2808 -0.0295
10203W        W10203   1.589   8.709   4.966  0.1555 -0.0715 -0.0036
10204W        W10204   8.695   8.755   0.483  0.1401  0.2625 -0.0578
10205W        W10205   4.070   8.100   3.155  0.3282 -0.1833  0.4095
10206W        W10206   1.934   2.695   5.976  0.1709 -0.0453 -0.0362
10207W        W10207   1.795   9.317   5.282 -0.0370 -0.1696 -0.0822
10208W        W10208   9.261   7.176   8.791  0.1877  0.3814  0.0224
10209W        W10209   7.480   0.090   1.171  0.4795  0.2495 -0.0755
10210W        W10210   5.394   2.314   2.993  0.1884  0.3009 -0.0956
10211W        W10211   7.217   3.657   9.755  0.2678  0.1672  0.3119
10212W        W10212   5.020   3.899   4.274 -0.3308  0.0097  0.1399
10213W        W10213   2.004   2.871   1.384  0.0901 -0.1067  0.0283
10214W        W10214   9.444   5.741   1.240  0.1985  0.1465  0.1998
10215W        W10215   5.846   6.124   9.224 -0.2091  0.1643 -0.1096
10216W        W10216   3.125   0.266   2.657  0.0343  0.1272  0.0117
10217W        W10217   7.123   2.497   7.608 -0.1943 -0.0405 -0.0087
10218W        W10218   3.540   7.085   7.459  0.1133  0.0654 -0.2399
10219W        W10219   2.806   0.972   4.857  0.2466 -0.3083 -0.0625
10220W        W10220   7.772   2.652   8.195 -0.0674 -0.2871  0.2911
10221W        W10221   9.730   9.340   6.173 -0.0882 -0.0567 -0.2163
10222W        W10222   7.530   9.463   5.139  0.1016 -0.1860  0.0107
10223W        W10223  10.233   3.416   5.756 -0.0649  0.2242  0.2699
10224W        W10224   2.070   2.968   2.614 -0.2231  0.1419 -0.5326
10225W        W10225   8.516   3.528   5.489  0.1725 -0.0005  0.0112
10226W        W10226   9.129   5.249   3.630 -0.0261  0.1798 -0.2719
10227W        W10227   8.314   3.878   9.794 -0.3433 -0.1302  0.1133
10228W        W10228   1.621   9.105   2.148  0.0756  0.1056 -0.2617
10229W        W10229   4.260   1.025   7.913 -0.1715  0.3607  0.3480
10230W        W10230   7.044   4.165   4.061 -0.0220  0.1038 -0.2230
10231W        W10231   1.850   5.900   7.589 -0.1068 -0.0857  0.3661
10232W        W10232   6.805   8.596   0.206 -0.0386 -0.0226  0.4323
10233W        W10233   2.682   8.668   4.379  0.0525 -0.1746 -0.0693
10234W        W10234   2.591   6.010   6.284 -0.1241 -0.0289 -0.0283
10235W        W10235   7.357   2.286   0.792 -0.0883 -0.2745  0.0044
10236W        W10236   2.879   4.883   4.201  0.0762 -0.1729  0.1266
10237W        W10237   2.198  10.116   3.233 -0.0860 -0.0553  0.2394
10238W        W10238   7.517   4.564   9.428  0.0804 -0.1093 -0.0458
10239W        W10239   8.265   8.414   3.859  0.2321  0.0255  0.1574
10240W        W10240   2.713   2.064   3.738  0.1784 -0.1214  0.1223
10241W        W10241   2.727   4.483   1.637  0.2139  0.1417 -0.0349
10242W        W10242   6.790   7.332   9.603 -0.1440  0.1520  0.2404
10243W        W10243   5.533   9.340   6.298  0.2544  0.1925  0.0755
10244W        W10244   0.118   9.852   2.918  0.0168  0.0990 -0.1290
10245W        W10245   3.993   7.387   7.262 -0.3380 -0.0093 -0.0624
10246W        W10246  10.216   1.531   2.871 -0.1324  0.0045  0.0439
10247W        W10247   6.533   9.141   1.685 -0.2129 -0.1472 -0.0096
10248W        W10248   9.097   0.045   0.346 -0.1138 -0.1973 -0.0561
10249W        W10249   5.926   6.473   8.769  0.1489  0.1615  0.0692
10250W        W10250   2.981   0.717   7.481  0.1115  0.1791 -0.2166
10251W        W10251  10.037   3.804   5.536  0.2297  0.1368 -0.0471
10252W        W10252   1.750   2.435   1.501  0.3478 -0.1320  0.0748
10253W        W10253   4.222   5.115   1.448 -0.2100  0.0095 -0.2767
10254W        W10254   7.602   4.438   0.516 -0.3278  0.0291 -0.2103
10255W        W10255  10.123   2.499   6.323  0.0343  0.2563  0.0102
10256W        W10256   9.692   6.388   8.260  0.0205 -0.2991 -0.1198
10257W        W10257   9.692   6.843   3.431  0.1925  0.0824  0.0964
10258W        W10258   6.436   8.602   3.799  0.0352  0.0534 -0.0259
10259W        W10259   7.882   5.303   7.582 -0.0400  0.2803  0.0365
10260W        W10260   5.604   9.103   1.432  0.1056 -0.0322 -0.2466
10261W        W10261   2.238   4.405   1.503 -0.2814  0.1436 -0.1541
10262W        W10262   6.279  10.236   3.509 -0.0453  0.1842 -0.1019
10263W        W10263   0.717   2.370   8.600 -0.3033 -0.1379 -0.2377
10264W        W10264   5.530   7.778   1.917 -0.1697 -0.3422  0.3021
10265W        W10265   7.389   8.305   3.469  0.0322  0.0654 -0.0223
10266W        W10266   6.751   2.164   7.811  0.1736  0.0171  0.4154
10267W        W10267   3.835   6.162   5.866 -0.4183 -0.0941  0.0259
10268W        W10268   5.774   0.214   3.754 -0.0060  0.0449  0.0957
10269W        W10269   2.216   1.803   5.069  0.2478  0.1423  0.4916
10270W        W10270   5.737   9.628   0.458  0.1427 -0.1082  0.0879
10271W        W10271   4.720   5.167   4.311  0.1027  0.1719  0.0835
10272W        W10272   1.538   2.014   0.714  0.0416  0.1298  0.0282
10273W        W10273   5.074   8.005   6.329  0.1415 -0.2720 -0.3264
10274W        W10274   3.809   8.988   9.766 -0.1246  0.3108 -0.0635
10275W        W10275   6.717   2.733   1.133 -0.1242 -0.1764  0.0949
10276W        W10276   4.464   8.187   1.057  0.0746 -0.0937  0.1749
10277W        W10277   2.143   9.623   7.033  0.1895 -0.0417 -0.3440
10278W        W10278   6.857   4.241   7.685  0.0936 -0.0649 -0.0233
10279W        W10279   5.627   9.966   6.513 -0.0687  0.0805  0.0057
10280W        W10280   4.610   2.498   0.748  0.3029 -0.2081 -0.0029
10281W        W10281  10.297  10.089   3.317 -0.0208 -0.0960 -0.2534
10282W        W10282   7.259   6.141   9.872  0.0375  0.5681  0.0586
10283W        W10283   6.256   5.869   0.463  0.1087  0.0484 -0.0045
10284W        W10284   7.799   6.798   5.912 -0.0461 -0.3275 -0.0239
10285W        W10285   6.038   8.858   0.065 -0.2727  0.3351 -0.1184
10286W        W10286   1.023   0.652   7.370  0.0516 -0.3761 -0.1923
10287W        W10287   3.897   5.825   3.476  0.3299  0.1682  0.1400
10288W        W10288   2.942   9.748   3.323  0.2918  0.0290  0.2267
10289W        W10289   1.655   3.921   0.804  0.1680 -0.1481  0.1458
10290W        W10290   8.792   6.262   2.972  0.0547 -0.0357 -0.2618
10291W        W10291   5.429   4.792   6.063  0.1664  0.1222 -0.0090
10292W        W10292   9.629   6.895   4.870 -0.0476 -0.1490  0.1091
10293W        W10293   8.940   7.357   2.459 -0.3462  0.1131  0.2129
10294W        W10294   2.580   1.008   5.466 -0.0008 -0.2755 -0.1675
10295W        W10295   6.374   9.174   5.117 -0.3730 -0.1133  0.0323
10296W        W10296   4.529   3.233   7.607  0.1617  0.0443  0.0496
10297W        W10297   2.400   5.228   4.811  0.2668 -0.1918 -0.1910
10298W        W10298   3.479   2.083   3.045 -0.1797  0.0988 -0.2555
10299W        W10299   1.701   2.674   7.390  0.1374  0.0727 -0.0974
10300W        W10300   0.279   9.644   9.674 -0.0255 -0.0164 -0.0402
10301W        W10301   0.172   0.873  10.008 -0.0041 -0.6729  0.1239
10302W        W10302   2.001   4.051   4.093  0.0486  0.0456  0.0653
10303W        W10303   0.560   4.951   4.601 -0.1515  0.0573  0.0134
10304W        W10304   6.093   7.779   0.613 -0.1810  0.1929  0.0789
10305W        W10305   1.081   8.174   0.650 -0.3117  0.1039  0.2741
10306W        W10306   0.440   1.293   5.028 -0.1082  0.1061 -0.1981
10307W        W10307   6.528   0.601   8.062  0.0383 -0.0905 -0.1819
10308W        W10308   7.471   2.370   5.529 -0.4263 -0.0850 -0.0031
10309W        W10309   0.632   4.762   2.099  0.0967 -0.0718 -0.0498
10310W        W10310   8.148   8.834   4.586 -0.3086 -0.1400 -0.3442
10311W        W10311   0.685   9.503   5.973  0.0645 -0.0223 -0.0603
10312W        W10312   5.321   1.108   7.420  0.0499  0.2370  0.4997
10313W        W10313   9.123   7.396   2.930 -0.0021 -0.1513  0.2226
10314W        W10314   5.885   9.818   5.057  0.3316 -0.1660 -0.1253
10315W        W10315   4.822   8.967  10.132 -0.0755 -0.0167 -0.1410
10316W        W10316  10.133   3.336   5.266 -0.0522 -0.4003  0.0737
10317W        W10317   0.790   8.230   4.087 -0.0664 -0.2841 -0.0712
10318W        W10318   1.003   7.274   3.270 -0.0222 -0.1682  0.3675
10319W        W10319   0.041   0.144   8.611  0.0026  0.0100  0.0581
10320W        W10320   7.664   7.638  10.143  0.0622  0.1960  0.3366
10321W        W10321   1.384   0.545   9.835 -0.0651 -0.3330 -0.0407
10322W        W10322   2.187   4.800   6.909  0.0739 -0.1105 -0.3384
10323W        W10323   2.481   7.457   7.205  0.3403 -0.1525  0.2379
10324W        W10324   9.225   2.647   0.087  0.1828 -0.1593 -0.2668
10325W        W10325   5.178   0.800   5.297  0.4783  0.1632 -0.0749
10326W        W10326   9.144  10.324   9.800  0.1941 -0.1144 -0.2492
10327W        W10327   5.876   7.259   6.207 -0.2860  0.3098  0.2164
10328W        W10328   6.983   4.498   8.612  0.0376 -0.1021  0.3939
10329W        W10329   2.355   8.813   3.900  0.0742  0.4403 -0.1572
10330W        W10330   6.320   3.875   2.311 -0.0763  0.1417  0.0615
10331W        W10331   9.933   9.368   4.737 -0.0367 -0.1311  0.0373
10332W        W10332   8.293   5.126   0.584 -0.0309  0.0344 -0.2358
10333W        W10333   3.278   5.087   5.471  0.3774 -0.1572  0.1883
10334W        W10334   9.530   6.479   0.051 -0.0114  0.0559  0.2231
10335W        W10335   1.697   0.342   7.359  0.0215 -0.1032  0.2348
10336W        W10336   2.463   2.259   1.459 -0.0334 -0.1582 -0.2007
10337W        W10337   4.758   4.712   4.585 -0.1370 -0.2214 -0.3609
10338W        W10338   2.187   2.492   1.840 -0.1734  0.0689  0.0135
10339W        W10339   9.459   3.020   1.782 -0.2212 -0.5088  0.3239
10340W        W10340   3.129   7.918   2.125  0.2732 -0.2907  0.3447
10341W        W10341   6.192   2.306   6.465  0.1597 -0.0013  0.2677
10342W        W10342   9.868   1.452   2.474  0.1866  0.3162  0.0660
10343W        W10343   5.965   9.500   9.133  0.0055  0.0132 -0.3151
10344W        W10344   6.533   9.013   0.071  0.1870  0.2317 -0.1170
10345W        W10345   8.965   1.690   4.124 -0.1483 -0.0725  0.0083
10346W        W10346   4.750   7.542   3.299  0.0192 -0.3048  0.1262
10347W        W10347   8.979   7.780   1.666  0.0851 -0.2607 -0.2272
10348W        W10348   8.715   5.428   9.861 -0.1286  0.0335  0.0189
10349W        W10349  10.069   2.165   3.921  0.0121  0.3438  0.1698
10350W        W10350   6.342   1.468   0.437  0.1082  0.0150  0.0966
10351W        W10351   1.016   1.258   4.478  0.1464 -0.0411 -0.2416
10352W        W10352   5.029   3.286   1.259 -0.0273 -0.2703  0.1641
10353W        W10353   9.648   8.184   3.583 -0.0812 -0.1498  0.3087
10354W        W10354   0.986   2.372   2.488  0.2091 -0.4001  0.0474
10355W        W10355   6.870   2.612   1.679  0.0175 -0.0296  0.1276
10356W        W10356   2.866   2.592   2.440  0.1278 -0.2366 -0.2636
10357W        W10357   2.365   3.766   8.272 -0.3500 -0.0276  0.2432
10358W        W10358   5.139   5.152   6.534  0.0166 -0.1138  0.0096
10359W        W10359   7.951   4.480   9.018 -0.1398 -0.1528  0.0591
10360W        W10360   7.277   2.978   5.552 -0.2163 -0.0147 -0.0347
10361W        W10361   4.444   7.248   1.190 -0.1000  0.0721 -0.1099
10362W        W10362   9.474   9.705   8.619 -0.0551 -0.0092 -0.1141
10363W        W10363   7.244   6.635   9.500 -0.0532 -0.2390  0.2055
10364W        W10364   0.864   8.831   9.103 -0.0917  0.0640 -0.0866
10365W        W10365   3.073   4.713   5.062 -0.0555 -0.1178  0.2143
10366W        W10366   7.431   6.162   9.409 -0.1025  0.2516 -0.2239
10367W        W10367   6.743   5.856   8.206  0.0878  0.0302 -0.1681
10368W        W10368   1.057   9.039   9.957  0.0641  0.1686  0.0701
10369W        W10369   1.461  10.193   5.501 -0.0329  0.1868  0.3532
10370W        W10370   2.413   8.779   4.795  0.0053 -0.0242  0.0634
10371W        W10371   4.517   9.700   1.984  0.1139  0.0253  0.2486
10372W        W10372   3.696   5.702   7.072 -0.2988 -0.0409  0.2042
10373W        W10373   8.609   9.075   2.086 -0.1263  0.2400  0.0155
10374W        W10374   4.199   1.666   0.029  0.1779 -0.2653  0.1792
10375W        W10375   6.174   3.177   1.687  0.2191 -0.0907 -0.1338
10376W        W10376   7.299   5.722   6.822  0.3874 -0.4298  0.0042
10377W        W10377   9.028   1.405   5.159  0.2741 -0.2123  0.0864
10378W        W10378   9.581   8.266   8.785  0.0955  0.2318  0.2570
10379W        W10379   8.767   0.750   6.205 -0.0012  0.1018  0.1655
10380W        W10380   7.797   8.440   4.706 -0.1884 -0.1212 -0.1375
10381W        W10381   5.190   9.243   4.857 -0.0851 -0.0002 -0.2057
10382W        W10382   5.353   1.066   4.366 -0.3025  0.0116  0.0188
10383W        W10383   5.646   6.925   8.737 -0.0380  0.3470 -0.0112
10384W        W10384   3.928   3.970   8.686 -0.2220  0.2102 -0.0411
10385W        W10385   9.190   0.499   0.825  0.0810  0.3307  0.0698
10386W        W10386   3.659   8.278   0.520  0.0568 -0.2113  0.0155
10387W        W10387   2.795   1.742   2.708 -0.1364  0.0012  0.1230
10388W        W10388   7.625   5.004   7.208 -0.1438 -0.0601 -0.1817
10389W        W10389   5.528   7.506   4.836 -0.1464 -0.3763 -0.1507
10390W        W10390  10.214   3.867   1.741  0.2328  0.2619 -0.0378
10391W        W10391   0.158   2.161   7.813  0.0855 -0.3355  0.0166
10392W        W10392   8.437   0.894   1.639  0.2085  0.2002  0.1385
10393W        W10393   2.853   7.519   8.148 -0.2069 -0.1837 -0.2543
10394W        W10394   3.879   4.674   1.349  0.0029  0.0349 -0.3266
10395W        W10395   9.365   9.957   3.871 -0.1027  0.1274 -0.1475
10396W        W10396   6.315   3.244   2.196  0.3111  0.0630  0.0875
10397W        W10397   8.918   8.265   9.163  0.2779  0.0115 -0.2253
10398W        W10398   2.048   0.848   7.962  0.1216  0.2143 -0.1689
10399W        W10399   9.868   2.253   8.198  0.3218  0.2347  0.4796
10400W        W10400   6.958   8.965   1.560  0.0876  0.3059 -0.0189
10401W        W10401   0.938   8.501   2.066  0.1721 -0.0336  0.1674
10402W        W10402   4.090   6.879   1.927 -0.1002 -0.2019 -0.0443
10403W        W10403   0.028   4.668   9.294  0.0747 -0.0551 -0.0902
10404W        W10404   1.354   9.723   4.882 -0.1470  0.2066 -0.0288
10405W        W10405   2.570   5.583   7.614 -0.1566  0.0669  0.2403
10406W        W10406   0.453   6.277   1.097  0.1005 -0.0145 -0.0717
10407W        W10407   8.004   7.699   4.415  0.0332  0.0556 -0.0844
10408W        W10408   1.969   6.348   7.837  0.0324  0.1486  0.2090
10409W        W10409   9.835   4.354   7.756 -0.1959  0.2060 -0.0596
10410W        W10410   5.785   9.766   8.035  0.0406  0.0201 -0.1051
10411W        W10411   3.699   1.671   1.255 -0.0585  0.1447  0.2003
10412W        W10412   0.171   3.620   5.255  0.0060  0.4740 -0.0559
10413W        W10413   5.783   6.103   2.989  0.1830 -0.0869 -0.4294
10414W        W10414   9.441   3.606   2.602 -0.1790  0.1030 -0.1167
10415W        W10415   5.278   7.455   5.304  0.1731 -0.1057 -0.1223
10416W        W10416   2.019   6.933   5.040 -0.1472 -0.1898 -0.0952
10417W        W10417   7.004   3.248   9.251  0.0123  0.1076  0.0390
10418W        W10418   3.021   5.539   0.825  0.0126  0.3035 -0.2260
10419W        W10419   2.522   3.276   8.109 -0.3062  0.2001  0.0657
10420W        W10420   9.839   8.344   7.883 -0.1138 -0.2297  0.2949
10421W        W10421   6.698   4.640   9.008  0.1031  0.1296 -0.2467
10422W        W10422   6.793   1.695   5.015 -0.1534  0.2033 -0.2010
10423W        W10423   7.043   1.660   3.268  0.1344 -0.1149 -0.0614
10424W        W10424   3.204   8.251   2.996  0.0739  0.0845  0.1077
10425W        W10425   0.298   9.759   1.970 -0.0141 -0.4404  0.0143
10426W        W10426   3.689   4.379   8.145  0.0512 -0.2479 -0.3899
10427W        W10427   8.332   9.981   0.886 -0.3068 -0.0846 -0.3718
10428W        W10428   1.844   9.009   2.586  0.1526 -0.1426 -0.1228
10429W        W10429   6.094   0.341   8.990 -0.1541  0.1795 -0.0147
10430W        W10430   9.213   8.044  10.267  0.1449 -0.0760  0.1138
10431W        W10431   3.347   5.848   9.705 -0.0800 -0.3084  0.2823
10432W        W10432  10.036   8.463   5.851  0.1900  0.1603  0.0710
10433W        W10433   1.922   9.909   7.478 -0.3475  0.1196 -0.1143
10434W        W10434   0.478   8.671   8.773  0.1007 -0.1820 -0.0904
10435W        W10435   4.630   1.213   4.835  0.0695  0.1910 -0.2962
10436W        W10436   8.970   3.176   3.693 -0.1102  0.0336 -0.3770
10437W        W10437   3.437   6.512   1.520 -0.1777  0.3314 -0.0583
10438W        W10438   8.194   2.565   4.923  0.0139  0.2863  0.1666
10439W        W10439   4.754   3.272   9.059 -0.2959  0.5111 -0.0399
10440W        W10440   0.750   7.727   2.267  0.0049  0.0237  0.1810
10441W        W10441   7.650   1.360   1.834  0.1091  0.0623  0.1740
10442W        W10442   2.726   4.350   0.398  0.2760 -0.1876  0.1505
10443W        W10443   3.429   5.384   3.085 -0.0452  0.1224  0.1732
10444W        W10444  10.313   7.487   6.544 -0.0302  0.1543  0.0165
10445W        W10445   6.041   6.616   0.107  0.0084  0.1256  0.1842
10446W        W10446   1.309   2.529   7.067  0.0194 -0.0730 -0.2538
10447W        W10447   7.769   0.923   1.686 -0.3964  0.0760  0.1256
10448W        W10448   9.916   7.365   3.230 -0.3046 -0.0779  0.1262
10449W        W10449   6.043   2.814  10.148 -0.1610  0.1468  0.3583
10450W        W10450   8.571   4.171  10.314 -0.1534  0.1144 -0.2243
10451W        W10451   1.480  10.191   6.379 -0.2289  0.3322 -0.0797
10452W        W10452   2.365   1.069   3.572 -0.1110 -0.0348  0.2144
10453W        W10453   3.167   8.517   0.377 -0.3629 -0.1793 -0.1493
10454W        W10454   6.443   3.236   6.862 -0.2387  0.0408  0.1748
10455W        W10455   8.891   1.285   6.189 -0.1663 -0.2715  0.0985
10456W        W10456   8.364   9.248   3.586 -0.1508 -0.0088  0.0368
10457W        W10457   6.436   2.885   3.136  0.2330  0.2343  0.0808
10458W        W10458   6.177   7.115   7.566  0.2379 -0.1682  0.1812
10459W        W10459   8.156   9.409  10.287 -0.0605  0.0607  0.2776
10460W        W10460  10.013   4.463   4.205  0.0530 -0.0874 -0.0231
10461W        W10461   9.160   8.287   4.847 -0.0752 -0.1842  0.1964
10462W        W10462   4.111   7.575   5.358 -0.2156 -0.2193  0.0622
10463W        W10463   9.893   9.182   2.304 -0.1848 -0.1739 -0.2147
10464W        W10464   8.458   9.671   2.601 -0.2224 -0.0156  0.2332
10465W        W10465   0.990   4.398   0.953  0.2450 -0.2065  0.0347
10466W        W10466  10.023   1.014   9.704 -0.0292 -0.0322 -0.0477
10467W        W10467   6.980   2.954   8.182 -0.0909  0.0330 -0.0451
10468W        W10468   4.753   5.349   2.137  0.1189 -0.5050  0.0776
10469W        W10469   0.941   1.923   5.553 -0.1398 -0.2021 -0.1870
10470W        W10470   7.551   9.740   6.065  0.0240 -0.3980  0.1450
10471W        W10471   5.826   9.872   5.556 -0.1240 -0.1213  0.1689
10472W        W10472   7.281   3.884   6.802  0.0614  0.3614 -0.3248
10473W        W10473   3.383   8.109   7.241 -0.1160 -0.0716 -0.1373
10474W        W10474   7.522   8.862   5.626 -0.1975  0.1085  0.0618
10475W        W10475   9.701   3.727   5.979  0.0702  0.1279  0.0594
10476W        W10476   0.288   6.437   5.733  0.0755  0.0639  0.0824
10477W        W10477   2.517   8.425   2.242 -0.0822  0.0720 -0.2122
10478W        W10478   0.476   2.197   3.373 -0.1313 -0.0513 -0.2601
10479W        W10479   6.349   8.435   0.051  0.0963 -0.2762 -0.1462
10480W        W10480   1.841   4.659  10.174  0.2807  0.1662 -0.0040
10481W        W10481   9.629   4.772   7.465 -0.2083  0.0730  0.0057
10482W        W10482   2.304   4.162   9.312  0.2828 -0.2278 -0.0271
10483W        W10483   9.815   6.166   7.476  0.0531 -0.0259  0.1263
10484W        W10484   8.002   6.772   5.439  0.0497 -0.2657 -0.1272
10485W        W10485   6.885   3.602   6.977 -0.0136  0.1219 -0.2829
10486W        W10486   8.523   1.734   5.360 -0.0114 -0.0070 -0.3138
10487W        W10487   4.300   5.178   6.806 -0.0574  0.0193 -0.1540
10488W        W10488   0.173   9.709   6.070  0.4695 -0.2473  0.0063
10489W        W10489   0.608   3.920   5.425 -0.2271  0.1297 -0.1945
10490W        W10490   0.281   5.686   5.513 -0.2432  0.0058 -0.0236
10491W        W10491   0.254   4.364   2.454  0.0294 -0.2845 -0.0989
10492W        W10492   7.076   8.160   6.310 -0.0690  0.0511  0.0362
10493W        W10493   1.351  10.036  10.058  0.1078  0.2867 -0.1929
10494W        W10494   5.616   7.993   4.928  0.0460 -0.5684 -0.3352
10495W        W10495   3.778   3.376   9.333  0.1568 -0.0191  0.1789
10496W        W10496   9.397  10.177   2.284 -0.0152 -0.3513  0.3777
10497W        W10497   4.824   5.650   0.953  0.0592  0.0850  0.2366
10498W        W10498   0.571   8.930   2.185 -0.1572 -0.2413 -0.0017
10499W        W10499   9.324   0.582   3.651  0.0737 -0.0686 -0.0584
10500W        W10500   3.645   1.611   2.169 -0.4070  0.1531 -0.2762
10501W        W10501   1.828   4.505   7.758  0.5430  0.3100 -0.0998
10502W        W10502   4.508   8.922   6.571 -0.3153  0.2583  0.0993
10503W        W10503   2.584   6.274   7.970  0.2755  0.1947 -0.1335
10504W        W10504   2.676   4.281   2.821  0.2138  0.2584 -0.2089
10505W        W10505   3.610  10.189   6.415 -0.1131  0.0084  0.0985
10506W        W10506   0.537   6.091   5.264 -0.0460  0.0968 -0.1356
10507W        W10507   5.331   6.310   2.256 -0.1244  0.2243 -0.3147
10508W        W10508   1.119   9.213   1.051  0.2147  0.3687  0.3188
10509W        W10509   8.043   4.769   5.779 -0.0713  0.2977  0.1362
10510W        W10510   5.806   8.993   0.455  0.0256  0.2431  0.1896
10511W        W10511   0.660   3.413   6.285  0.0132 -0.0246 -0.1068
10512W        W10512   5.523   4.160   0.406 -0.0555 -0.0891 -0.1186
10513W        W10513   9.588   1.476   0.858 -0.1752  0.1129  0.0798
10514W        W10514   7.903   5.462  10.033 -0.2439  0.2319 -0.0633
10515W        W10515  10.135   4.634   0.031 -0.1915  0.0658  0.0873
10516W        W10516   8.840   9.789   6.468 -0.2096  0.1851  0.2792
10517W        W10517   2.887   9.129  10.245  0.1873  0.0213  0.0990
10518W        W10518   9.850   3.613   3.929 -0.0280  0.1309  0.0735
10519W        W10519   5.179   8.144   6.915  0.0399 -0.0076  0.1963
10520W        W10520   7.498   4.545  10.326  0.2373  0.3680  0.0592
10521W        W10521   1.547   4.310   0.403 -0.1604 -0.1070  0.1037
10522W        W10522   2.873   6.063   3.424 -0.0406  0.0760 -0.3116
10523W        W10523   2.101   2.063   8.085 -0.0637 -0.0008  0.2180
10524W        W10524   7.514   0.378   9.334  0.3245  0.0673  0.0797
10525W        W10525   3.233   8.786   9.052  0.1978 -0.1243  0.0664
10526W        W10526   1.540   0.889   0.246 -0.1121 -0.0944  0.0786
10527W        W10527   1.660   1.636   2.382 -0.0326 -0.0248 -0.2459
10528W        W10528   3.689   5.758   8.368  0.2705 -0.0884  0.2407
10529W        W10529   3.860   6.274   1.718 -0.0038  0.1038 -0.1333
10530W        W10530   1.898   6.777   8.098 -0.0529 -0.0587 -0.0036
10531W        W10531   5.024   8.607   6.146  0.0875 -0.3346  0.0874
10532W        W10532   9.718   7.837   3.970 -0.1166  0.0086  0.1019
10533W        W10533   0.691   8.077   0.163 -0.3903  0.0976 -0.2035
10534W        W10534   3.520   4.758   8.399 -0.0326 -0.2457 -0.1054
10535W        W10535   8.330   5.126   8.417 -0.0876 -0.0942 -0.2706
10536W        W10536   3.320   7.983   3.451  0.1405 -0.0478 -0.4236
10537W        W10537   8.867   6.428   7.927 -0.0515 -0.1758 -0.3675
10538W        W10538   5.118   4.317   8.196  0.1008  0.0321  0.0739
10539W        W10539   0.684   7.882   8.582 -0.3313  0.2401 -0.1820
10540W        W10540   0.360   1.458   6.181 -0.0695  0.0384  0.0056
10541W        W10541   0.265   6.927   5.324  0.2268  0.1123  0.2450
10542W        W10542   7.484   4.834   4.601 -0.0911  0.0459  0.1710
10543W        W10543   4.175   2.060   7.818 -0.4115 -0.2667  0.1775
10544W        W10544   6.117   2.768   3.529 -0.0411 -0.0281  0.0717
10545W        W10545   8.542   2.884   0.393  0.1475  0.0993 -0.1140
10546W        W10546   4.514   2.201   6.111  0.1766  0.0606 -0.2650
10547W        W10547   4.012   0.349   1.611  0.1030 -0.1586  0.3031
10548W        W10548   8.735   9.757   3.890  0.1024  0.0310  0.3921
10549W        W10549   9.698   9.977   2.670  0.0475  0.1804  0.3975
10550W        W10550   8.066   8.237   5.195 -0.3028  0.3180 -0.1563
10551W        W10551   7.914   3.073   9.464  0.0613  0.1896 -0.2248
10552W        W10552   0.704   6.252   0.632  0.0214  0.3028 -0.1907
10553W        W10553   9.713  10.069   0.963 -0.0132 -0.4008 -0.2300
10554W        W10554   9.631   4.330   9.777  0.3590  0.0180  0.0634
10555W        W10555   5.411   0.891   9.925 -0.0292 -0.0748  0.2838
10556W        W10556   9.595   5.853   8.928 -0.0293  0.1623 -0.4429
10557W        W10557   0.209   4.431   1.962  0.3437  0.0818 -0.1165
10558W        W10558   9.271   0.354   3.219  0.4261  0.0283  0.1027
10559W        W10559   8.092   6.619   3.272 -0.2266  0.2362 -0.1495
10560W        W10560   8.382   1.044   7.050 -0.1212 -0.2276  0.3029
10561W        W10561   1.882   4.069   3.224  0.1300  0.0016 -0.4217
10562W        W10562   7.078   6.490   1.860  0.4081  0.0515 -0.0955
10563W        W10563   0.276   8.585   8.328 -0.0054  0.0435 -0.1005
10564W        W10564   1.483   1.453   4.631  0.1901  0.1364  0.0858
10565W        W10565   7.749   1.909   6.137 -0.2020 -0.1252 -0.4384
10566W        W10566   6.838   2.106   6.458 -0.3646 -0.0887 -0.2372
10567W        W10567   8.800   6.205   7.033 -0.0758  0.0135  0.2032
10568W        W10568   6.113   4.150   1.546 -0.2512  0.0500  0.0053
10569W        W10569   9.881   8.472   3.104 -0.4335 -0.1349 -0.1343
10570W        W10570   1.037   7.266   1.030 -0.0430 -0.0254  0.0913
10571W        W10571   7.439   0.695   8.356 -0.0200  0.2170 -0.2151
10572W        W10572   5.754   2.438   1.320 -0.1145 -0.0937 -0.0906
10573W        W10573   3.050   9.333   2.122  0.0980  0.1635 -0.0336
10574W        W10574   4.104   6.737   0.323  0.0907  0.1185 -0.0841
10575W        W10575   6.237   6.580   7.460  0.1395  0.1252 -0.1047
10576W        W10576   9.892   3.761   1.316 -0.1043  0.0918  0.2152
10577W        W10577   1.846   1.305   2.076 -0.0528  0.0318  0.0123
10578W        W10578   0.328   6.823   1.265  0.2171 -0.1351  0.0318
10579W        W10579   0.043   6.214   7.632  0.1526 -0.1614 -0.2413
10580W        W10580   1.229   9.705   2.723 -0.2982 -0.0258  0.1940
10581W        W10581   6.024   1.732   4.677  0.0578  0.0817  0.2671
10582W        W10582   2.567   5.486   5.298  0.2082  0.1275  0.0477
10583W        W10583   2.617   9.316   1.748 -0.0968 -0.0729  0.0588
10584W        W10584   7.091   4.641   7.393 -0.4468  0.3747  0.1492
10585W        W10585   0.934   2.070   3.228  0.0886  0.2484 -0.2024
10586W        W10586   2.551   1.391   2.504 -0.2570 -0.2036 -0.1916
10587W        W10587   3.195   4.268   1.651  0.1323  0.0979  0.4832
10588W        W10588   7.695   6.614   7.439  0.1589  0.0166 -0.1179
10589W        W10589   7.633   2.677   7.728  0.0732  0.1045 -0.0152
10590W        W10590   0.954   9.890   5.136 -0.1161 -0.0510  0.2477
10591W        W10591   6.819   7.266   1.740  0.0567  0.2672 -0.0655
10592W        W10592   7.132   0.472   1.071 -0.1541  0.0225 -0.1145
10593W        W10593   7.143   6.435   2.332 -0.3074  0.2480  0.0167
10594W        W10594   4.010   4.247   1.656 -0.4367  0.1047  0.0557
10595W        W10595   3.222   5.476   8.317  0.1807  0.1608 -0.0516
10596W        W10596   8.816   0.693   0.431  0.2287  0.1653  0.2409
10597W        W10597   1.188   7.980   0.105  0.1294 -0.0002 -0.1308
10598W        W10598   3.021  10.215   9.689  0.2183  0.0341  0.2676
10599W        W10599   5.260   3.753   3.904 -0.2057  0.1188  0.0017
10600W        W10600   0.308   8.848   7.894  0.0999 -0.0308  0.0275
10601W        W10601   4.371   8.171   4.099  0.1695 -0.1491 -0.1067
10602W        W10602   5.736   4.474   5.758  0.0792  0.0031  0.0284
10603W        W10603   6.170   9.491   1.933  0.7055  0.0980  0.0026
10604W        W10604   8.864   0.488   2.948  0.0601  0.1014 -0.2710
10605W        W10605   2.808   9.586   7.035  0.3524  0.0393 -0.1509
10606W        W10606   3.267   3.048   2.144 -0.3754  0.0779 -0.1785
10607W        W10607   3.802   5.738   4.483 -0.1311  0.0293 -0.4294
10608W        W10608   2.615   4.889   0.322 -0.2607 -0.1542 -0.0323
10609W        W10609   6.964   1.234   4.846  0.1048 -0.0973  0.1418
10610W        W10610   9.059   8.447   2.552 -0.1893 -0.1469 -0.2799
10611W        W10611   7.781  10.261   9.215 -0.3043  0.1612 -0.1275
10612W        W10612   6.285   3.382   9.245 -0.1307 -0.1832 -0.0611
10613W        W10613   0.336   6.437   6.271 -0.0683  0.1043  0.1825
10614W        W10614   6.164   4.061   8.160  0.2489 -0.1271  0.3026
10615W        W10615   8.854   8.009   2.246  0.2893  0.0897 -0.2027
10616W        W10616   5.076   7.071   5.754  0.3944  0.0656 -0.2545
10617W        W10617   1.381   6.645   9.535 -0.1089 -0.1685 -0.0058
10618W        W10618   2.228   8.116   3.646  0.3730  0.1316 -0.2543
10619W        W10619   6.984   2.346   1.279  0.0986  0.3241 -0.0159
10620W        W10620   9.299   2.705   2.527 -0.0705  0.1255 -0.2401
10621W        W10621   2.110   0.749   8.515 -0.0643 -0.0403 -0.1501
10622W        W10622   5.378   3.050   7.865  0.2711  0.0688 -0.1765
10623W        W10623   1.830   5.139   1.978 -0.1285  0.1627  0.1099
10624W        W10624   0.288   3.531   3.015  0.0303 -0.3263  0.0897
10625W        W10625   4.109   9.242   6.931 -0.1403 -0.0335 -0.3625
10626W        W10626   1.180   0.768  10.184 -0.2513  0.1481 -0.0933
10627W        W10627   3.632   8.392   3.008 -0.3653 -0.0250 -0.1461
10628W        W10628   8.242   7.096   4.305  0.0956 -0.1121 -0.0904
10629W        W10629   5.778   4.401   7.886 -0.0328 -0.1918  0.0098
10630W        W10630   0.280   5.996   9.273  0.1392 -0.1522 -0.3685
10631W        W10631   2.989   1.768   6.603  0.0658 -0.1374  0.0490
10632W        W10632   8.148  10.209   7.237  0.1821  0.0186  0.0990
10633W        W10633   0.435   1.925   8.532 -0.2813 -0.0754  0.1267
10634W        W10634   4.066   4.365   6.200  0.0074 -0.0929 -0.1625
10635W        W10635   0.212   6.844   3.548  0.0938  0.3975 -0.0914
10636W        W10636   7.713   0.240   4.064  0.2134  0.2908 -0.2690
10637W        W10637   4.331   5.710   9.714  0.0258 -0.0406 -0.2855
10638W        W10638   1.100   7.126   0.440  0.0825 -0.1098  0.2252
10639W        W10639   6.322   9.379   1.091  0.0104 -0.2400 -0.1882
10640W        W10640   9.654   8.258   1.209 -0.0542  0.1466  0.3165
10641W        W10641   2.637   6.084   2.033  0.1445 -0.0579  0.0800
10642W        W10642   6.658   5.545   2.695 -0.1352  0.0854 -0.0572
10643W        W10643   4.971   1.584   1.863  0.2452  0.1532 -0.0452
10644W        W10644   0.276   6.441   2.107 -0.0837  0.2163 -0.2322
10645W        W10645   2.169   1.441   9.162 -0.0200  0.0932 -0.2407
10646W        W10646   5.463   4.288   7.254 -0.0607 -0.1901  0.1878
10647W        W10647   2.695   6.886   7.170 -0.2275 -0.1827 -0.0357
10648W        W10648   1.196   3.178   6.726 -0.1016 -0.0462  0.2055
10649W        W10649   0.011   3.717   3.609  0.0524  0.1550  0.1284
10650W        W10650   4.448   6.416   3.757 -0.0451  0.0038 -0.3132
10651W        W10651   7.761   6.653   1.633  0.2465 -0.1609  0.0762
10652W        W10652   1.990   6.547   2.134 -0.0511 -0.2005 -0.0990
10653W        W10653   9.738   4.014   1.909 -0.0081 -0.0562  0.0364
10654W        W10654   3.374   5.514   1.267 -0.0809  0.3570  0.0293
10655W        W10655   9.468   1.083   1.590 -0.0704 -0.1545 -0.1031
10656W        W10656   7.348   0.457   2.548  0.0813  0.2346 -0.0811
10657W        W10657   8.354   2.543   0.780 -0.1455 -0.0011  0.0586
10658W        W10658   5.460   0.651   1.677 -0.1280 -0.0257  0.1054
10659W        W10659   8.785   2.049   0.521  0.0257  0.0349 -0.1584
10660W        W10660   5.656   3.589   4.819  0.1959  0.1303  0.3726
10661W        W10661   0.121   3.076   9.188  0.1431  0.3369  0.1307
10662W        W10662   1.535   1.748   1.925  0.0968 -0.0018 -0.0893
10663W        W10663   0.526   3.387   2.160 -0.1007 -0.0344 -0.1780
10664W        W10664   8.928  10.141   9.308  0.3574  0.1295 -0.2686
10665W        W10665   9.554   6.666   7.413 -0.0021  0.2180 -0.0606
10666W        W10666   4.075   1.263   3.900  0.0214 -0.3774  0.1345
10667W        W10667   5.175   2.949   6.535 -0.3440 -0.4713  0.2557
10668W        W10668   5.900  10.275   5.202 -0.0002  0.3043  0.0238
10669W        W10669   9.298   2.066   7.273  0.4363 -0.0402  0.2858
10670W        W10670   6.110   2.816   5.203  0.2378  0.1774  0.3300
10671W        W10671   4.046   6.448   2.220  0.1163 -0.2383 -0.0550
10672W        W10672   1.655   8.575   9.569  0.0999 -0.0322  0.1897
10673W        W10673   9.045   6.897   9.601  0.2591 -0.2428  0.1422
10674W        W10674   7.307   6.120   0.584  0.0850  0.2237 -0.0642
10675W        W10675   3.799   7.128   5.467 -0.3168 -0.0526  0.0060
10676W        W10676   8.415   6.595   2.887 -0.1720 -0.0502 -0.5721
10677W        W10677   2.013   9.859   8.863 -0.0385 -0.0618  0.2847
10678W        W10678   9.210   7.440   7.335  0.0498 -0.1340  0.1157
10679W        W10679  10.168   4.902   3.911 -0.1712 -0.0333 -0.1188
10680W        W10680   1.458   9.648   0.239 -0.2240  0.1370  0.1560
10681W        W10681   4.873   0.447   5.538 -0.0837 -0.1581 -0.2312
10682W        W10682   0.053   0.883   5.233  0.2065 -0.2701 -0.1434
10683W        W10683   7.634  10.292   0.529  0.4031 -0.0142  0.0894
10684W        W10684   6.251   8.957   4.663  0.1200  0.1812  0.0104
10685W        W10685   9.806   0.590   8.131  0.0738  0.1868  0.1348
10686W        W10686  10.268   0.272   1.640  0.2580 -0.3302 -0.1414
10687W        W10687   7.485   8.244   0.022 -0.0888  0.1405  0.2139
10688W        W10688   1.884   8.860   4.181 -0.1569 -0.0698  0.2525
10689W        W10689   6.201   0.344   3.499 -0.1013 -0.1170 -0.1000
10690W        W10690   0.637   0.426   4.121  0.2514 -0.0410 -0.2314
10691W        W10691   2.249   5.622   4.540 -0.1020 -0.2923 -0.0268
10692W        W10692   6.007   3.970   4.905 -0.4453  0.1488 -0.2959
10693W        W10693   4.507   7.457   9.127 -0.1427  0.2673  0.1123
10694W        W10694   6.236   8.919   4.177 -0.1329 -0.3654 -0.1325
10695W        W10695   0.033   7.186   7.373 -0.0660  0.2250 -0.0617
10696W        W10696   7.453   3.107   8.072 -0.0269 -0.0231  0.0792
10697W        W10697   8.010   3.158   4.638 -0.1601 -0.0684 -0.0859
10698W        W10698   3.166   8.432   7.973 -0.2224  0.4017 -0.1677
10699W        W10699   6.456   2.655   7.272 -0.0168 -0.1834 -0.2118
10700W        W10700   2.750   6.494   2.640 -0.2641  0.0308  0.1409
10701W        W10701   4.726   6.770   0.115  0.1392 -0.3274  0.0497
10702W        W10702   4.669  10.033   3.772  0.1344 -0.1002 -0.1296
10703W        W10703   7.215   3.677   8.353 -0.0928  0.4236  0.1241
10704W        W10704   1.174   0.332   9.425  0.1252  0.3747 -0.0861
10705W        W10705   8.120   7.764  10.148  0.0883  0.1373 -0.1944
10706W        W10706   7.264   7.908   8.062  0.1283 -0.0218 -0.2712
10707W        W10707   7.371   8.971   1.922  0.4108  0.1094 -0.0982
10708W        W10708   2.235   0.573   5.319 -0.1552 -0.0338 -0.0882
10709W        W10709   5.607   2.993  10.285  0.1093  0.0944  0.0883
10710W        W10710   7.088   2.695   2.123  0.5058  0.0160 -0.0721
10711W        W10711   8.450   6.664   8.816  0.1790 -0.1242  0.3648
10712W        W10712   6.186   0.962   2.742  0.2234  0.2274 -0.0526
10713W        W10713   2.367   5.657   8.549 -0.1516  0.0159 -0.3307
10714W        W10714   1.444   7.271   0.741 -0.0591 -0.1245 -0.0190
10715W        W10715   3.886   0.259   0.280  0.0758 -0.1944 -0.1064
10716W        W10716   9.981   9.761   3.042  0.0455 -0.2252  0.0801
10717W        W10717   8.858   9.453   3.468 -0.0722  0.1902 -0.0728
10718W        W10718   0.808   4.872   1.242 -0.1475 -0.2512  0.2031
10719W        W10719   5.564   1.453   6.044 -0.1000  0.3838  0.2493
10720W        W10720   2.206   0.978   6.301  0.0416  0.1474 -0.1479
10721W        W10721   5.154   0.288   9.429 -0.2776 -0.1247  0.0334
10722W        W10722   2.427  10.238   1.634 -0.1094  0.0655  0.1240
10723W        W10723   5.802   8.479   8.166 -0.0203 -0.1365 -0.1621
10724W        W10724   0.690   7.561   3.965  0.2102  0.1389 -0.0165
10725W        W10725   8.415   7.661   2.374  0.0582  0.1947 -0.4812
10726W        W10726   3.304   5.265   7.806  0.1179 -0.0921  0.1761
10727W        W10727   6.544   4.088   1.817  0.0270 -0.0754 -0.0167
10728W        W10728   5.033   1.397   0.015 -0.3765  0.4174 -0.1749
10729W        W10729   3.317   8.942   2.409  0.0147 -0.1160 -0.0698
10730W        W10730   6.470   8.137   7.641 -0.0048 -0.0187 -0.0894
10731W        W10731   6.060   4.027   2.847  0.0117  0.0515 -0.0330
10732W        W10732   2.246   8.485   1.791 -0.0837  0.2959  0.0739
10733W        W10733   4.439   8.739   2.851  0.1839 -0.0902 -0.0066
10734W        W10734   4.567   5.490   8.562 -0.2389  0.0121  0.1425
10735W        W10735  10.223   3.917   7.724  0.1623 -0.1006  0.1997
10736W        W10736  10.345   5.126   8.856  0.1239  0.1444  0.0837
10737W        W10737   9.749   9.685   9.863 -0.0445 -0.0414 -0.1779
10738W        W10738   5.497   6.975   1.871 -0.0526 -0.0884 -0.0524
10739W        W10739   8.466   0.963   8.049 -0.0791  0.1442 -0.1891
10740W        W10740   7.590   9.968   3.538  0.0493 -0.0584  0.0983
10741W        W10741   6.427   4.548   3.526  0.2482  0.0745  0.3417
10742W        W10742   3.167   9.817   5.769 -0.2794  0.0595 -0.0341
10743W        W10743  10.248   8.071   2.751 -0.1754  0.0167  0.0161
10744W        W10744   6.391   5.809   7.072 -0.0434 -0.1074  0.0433
10745W        W10745   0.001   5.178   9.398 -0.4617 -0.0100  0.1565
10746W        W10746   8.610   0.211   0.213  0.1858  0.2062 -0.0634
10747W        W10747   7.904   9.140   5.828 -0.0776  0.2417 -0.1395
10748W        W10748   9.893   2.691   2.692 -0.0555 -0.0277  0.1263
10749W        W10749   5.650   9.755   1.346  0.0316  0.1665 -0.0050
10750W        W10750   8.416   8.913   4.035  0.1891  0.0320 -0.4278
10751W        W10751   4.621   8.208   5.007  0.0137 -0.2015 -0.2317
10752W        W10752   6.665   1.513   6.489  0.0024  0.1747  0.1605
10753W        W10753   3.374   4.956   2.056  0.3825 -0.1646  0.0087
10754W        W10754   1.939   7.422   0.540  0.1904 -0.0203  0.1131
10755W        W10755   1.814   5.003   9.020  0.0966 -0.2609  0.1238
10756W        W10756   8.348   8.964   1.132  0.2283  0.1926 -0.0122
10757W        W10757   8.858   1.268   9.579 -0.2154 -0.1434 -0.1090
10758W        W10758   7.381   8.993   0.524  0.0494 -0.0677 -0.0207
10759W        W10759  10.328   0.952   8.548 -0.1739  0.1197  0.2592
10760W        W10760   3.388   7.112   2.234  0.0056 -0.0244 -0.1001
10761W        W10761   0.959   2.397   5.405 -0.1120  0.0035  0.1066
10762W        W10762   6.568   6.084   0.895  0.1488  0.2191 -0.2657
10763W        W10763   4.451   6.216   4.940 -0.0339  0.1433 -0.1283
10764W        W10764   1.891   2.585   2.293  0.2123  0.3272 -0.1115
10765W        W10765   6.244   4.556   1.977  0.0653 -0.4375 -0.5078
10766W        W10766   1.062   3.304   3.980  0.1064  0.2254  0.0416
10767W        W10767   6.589   6.888   9.912  0.0644 -0.4085 -0.1169
10768W        W10768   0.807   6.639   1.152  0.1240  0.2076 -0.0010
10769W        W10769   6.491   0.630   5.037 -0.0233  0.0174 -0.2149
10770W        W10770   9.051   7.100   6.112  0.1929  0.2858 -0.0071
10771W        W10771   4.835   6.443   5.736 -0.2049 -0.1426  0.0121
10772W        W10772   4.661   1.679  10.197  0.4768 -0.3279 -0.0687
10773W        W10773   7.726   6.001   3.871 -0.0423 -0.1253  0.1541
10774W        W10774   3.473   9.787   3.089  0.4096 -0.0669  0.0633
10775W        W10775   0.607   0.816   3.740  0.0845 -0.1559  0.0704
10776W        W10776   4.416   0.794   7.409 -0.0619 -0.2188 -0.2456
10777W        W10777   2.447   3.079   8.892 -0.0325 -0.0848  0.1417
10778W        W10778   8.713   3.988   4.666 -0.0540  0.1513  0.1720
10779W        W10779   0.792   7.898   8.070 -0.0847  0.2065 -0.0485
10780W        W10780   0.537   7.144   7.300  0.4533  0.0352  0.1303
10781W        W10781   8.183   1.978   2.386  0.1510 -0.0497 -0.0765
10782W        W10782   2.522   1.767   4.680 -0.0184  0.3053  0.0223
10783W        W10783   1.361   7.259   8.112  0.0336 -0.0077 -0.2121
10784W        W10784   7.538   8.665   0.924  0.0427  0.0893 -0.1967
10785W        W10785   9.852   3.031   7.244 -0.5614  0.0688  0.0242
10786W        W10786   6.580   5.775   3.174 -0.0451  0.0051  0.0820
10787W        W10787   3.057   3.582   1.590 -0.3181 -0.2389 -0.2445
10788W        W10788   8.234   3.238   0.282  0.1201 -0.0982  0.1131
10789W        W10789   5.451   6.381   8.475 -0.2959  0.0943 -0.1201
10790W        W10790   1.903   0.049   1.572  0.0831  0.1355 -0.0008
10791W        W10791   1.206   7.726   8.832 -0.1607  0.0842 -0.0373
10792W        W10792   1.237   1.524   8.050 -0.1369  0.0307  0.1408
10793W        W10793   4.896   1.559   5.091 -0.1943  0.0681  0.0664
10794W        W10794   2.619   2.809   3.823  0.2311 -0.1490  0.2291
10795W        W10795   8.272   7.540   3.338 -0.2270  0.1150  0.0361
10796W        W10796   5.859   2.150   2.693 -0.2077 -0.2755 -0.1094
10797W        W10797   5.428   7.878   0.815  0.1083 -0.2073 -0.0081
10798W        W10798   4.972   5.098   5.523 -0.1452  0.1727 -0.1351
10799W        W10799   0.517   7.950   5.178 -0.0701 -0.2051 -0.0572
10800W        W10800   7.846   5.332   8.649 -0.1460  0.0379 -0.2112
10801W        W10801  10.026   2.688   3.193 -0.2044 -0.1681  0.1646
10802W        W10802  10.130   8.097   1.382 -0.1011  0.1122 -0.0967
10803W        W10803   6.169   4.991   3.736  0.1251 -0.0119 -0.0089
10804W        W10804   1.808   8.154   6.149  0.0174 -0.0410 -0.0818
10805W        W10805   3.873   2.526   2.796  0.2333  0.0216 -0.2923
10806W        W10806   8.204   6.767   1.902  0.1488  0.0311 -0.0150
10807W        W10807   1.354   6.128   0.440  0.2664  0.0014 -0.0958
10808W        W10808   4.550  10.094   0.692 -0.1652  0.3291  0.0716
10809W        W10809   5.889   3.417   6.942  0.2513 -0.1527  0.0178
10810W        W10810   4.765   9.711   6.045 -0.2797 -0.1219  0.1069
10811W        W10811  10.338   9.398   4.080  0.0232 -0.4385  0.1352
10812W        W10812   6.637   7.008   4.567 -0.1198 -0.1603  0.0374
10813W        W10813   6.569   2.212   4.039  0.1189 -0.0110  0.1754
10814W        W10814   7.540   3.080   4.710  0.1342  0.2268 -0.4604
10815W        W10815   2.200   3.946   5.408 -0.0177  0.0967  0.0512
10816W        W10816   0.604   4.847   9.881  0.0006  0.1344 -0.1423
10817W        W10817   7.368  10.262   6.294 -0.0341  0.2274  0.2240
10818W        W10818  10.102   4.198   6.957  0.2120  0.0900  0.2584
10819W        W10819   0.866   0.318   9.067 -0.0691  0.0080  0.2449
10820W        W10820   7.224   0.601   8.861 -0.3078  0.1765 -0.0774
10821W        W10821  10.157  10.103   8.803 -0.0933 -0.3036 -0.1067
10822W        W10822   8.655   9.247   9.506 -0.1233 -0.0642 -0.0273
10823W        W10823   9.849   9.206   4.265 -0.2200 -0.1757 -0.1866
10824W        W10824   8.469   7.075   9.120 -0.1223 -0.0432 -0.3713
10825W        W10825   0.195   5.165   4.144  0.1151 -0.0767  0.3867
10826W        W10826   8.806   2.568   2.398 -0.0100  0.1385 -0.1017
10827W        W10827   7.508   9.820   0.679  0.2360 -0.1603 -0.2275
10828W        W10828   6.959   2.299   2.471 -0.0434 -0.0366 -0.2989
10829W        W10829   4.245   1.663   4.670  0.3139 -0.1710  0.3786
10830W        W10830   5.154   0.582   8.153 -0.0655  0.0109 -0.0804
10831W        W10831   0.235   8.208   0.293 -0.0485 -0.0463  0.0743
10832W        W10832   5.004   1.810   7.917 -0.0631  0.2154 -0.0402
10833W        W10833   5.555   1.868   5.615  0.1314 -0.0578 -0.2305
10834W        W10834   1.692   3.480   0.127  0.1756 -0.2347 -0.0839
10835W        W10835   6.712   8.975   2.951 -0.1174  0.0148 -0.1439
10836W        W10836   4.555   6.574   4.564  0.0488  0.0084  0.0586
10837W        W10837   3.549   2.130   8.977  0.0534  0.1565 -0.0576
10838W        W10838   4.717   1.942   2.083  0.1447 -0.2466  0.3229
10839W        W10839   5.818   9.437   5.787 -0.0240  0.0109  0.1461
10840W        W10840   4.216   2.896   4.526 -0.1093 -0.1696  0.1794
10841W        W10841   4.074   6.766   3.818  0.1813 -0.5722 -0.0984
10842W        W10842   1.555   7.441   9.125  0.0769 -0.0311  0.0371
10843W        W10843   1.833   9.696   5.643 -0.2838  0.2092 -0.0017
10844W        W10844   7.012   9.297   8.758 -0.0264 -0.0382 -0.1419
10845W        W10845   3.149   6.757   7.439  0.2371  0.1129 -0.1554
10846W        W10846   5.391   3.669   9.631  0.0567 -0.1773 -0.1525
10847W        W10847   4.616   9.474   1.072  0.3826  0.0957  0.1156
10848W        W10848   8.171   3.533   9.299  0.2088 -0.0062  0.0079
10849W        W10849   8.940   5.056   1.474 -0.0679  0.0812 -0.2404
10850W        W10850   1.022   1.105   8.326  0.0644 -0.0409 -0.0416
10851W        W10851   6.398   4.911   6.073 -0.1562 -0.1181 -0.0358
10852W        W10852   5.159   0.436   0.428 -0.2622  0.0873  0.0271
10853W        W10853   6.887   0.694  10.057 -0.1726 -0.0296 -0.1432
10854W        W10854   4.148   7.876   1.393 -0.2070  0.2018  0.0653
10855W        W10855  10.056   1.989   9.807  0.0421  0.2512 -0.1236
10856W        W10856   1.239   0.305   7.622  0.0687  0.0125  0.2584
10857W        W10857   7.330   1.516   7.163 -0.2433  0.1417  0.0171
10858W        W10858   6.291   9.826   4.769 -0.0787 -0.1970 -0.0211
10859W        W10859   5.161  10.231   0.757 -0.1800 -0.2439  0.3630
10860W        W10860   4.911   7.990   4.162 -0.0210 -0.1080 -0.1638
10861W        W10861   1.804   5.883   9.603 -0.0350  0.3447  0.2406
10862W        W10862   1.959   7.401   3.455  0.0775  0.2124  0.1059
10863W        W10863   5.305   2.398   1.162  0.3158 -0.0512 -0.0824
10864W        W10864   9.217   7.205   9.970 -0.2014 -0.0139 -0.1364
10865W        W10865   1.678   4.702   3.676 -0.0695 -0.0596  0.0817
10866W        W10866   2.074   6.600   0.979  0.0686  0.0042 -0.1539
10867W        W10867   6.632   6.267   7.135 -0.1735  0.0259  0.0065
10868W        W10868   7.054   1.178   7.629 -0.2278  0.0567  0.0469
10869W        W10869   2.555   1.265   0.571  0.0235 -0.2182 -0.3175
10870W        W10870   4.208   2.422   1.627  0.1003 -0.0774 -0.1847
10871W        W10871   2.823   0.120  10.111 -0.0959  0.0868  0.1806
10872W        W10872   7.637   1.327   8.910  0.0487  0.1039  0.1440
10873W        W10873   4.226   5.936   3.944  0.0814 -0.1091 -0.0552
10874W        W10874   5.062   4.710   9.311  0.1282  0.1189  0.0641
10875W        W10875   5.467  10.119   4.998  0.0817  0.0499 -0.1549
10876W        W10876   6.908   8.454   4.386 -0.1940 -0.2691 -0.0115
10877W        W10877   6.644   8.145   3.885 -0.0412  0.0282 -0.0731
10878W        W10878   1.075   3.647   6.413 -0.1282  0.1605  0.2421
10879W        W10879   7.909   7.920   3.284  0.0990  0.0234 -0.1207
10880W        W10880   5.770   7.797   6.956  0.1690  0.4604  0.6377
10881W        W10881   5.875   2.685   8.510 -0.2357 -0.1683  0.0029
10882W        W10882   1.234   7.876   9.807 -0.0366 -0.1685  0.3698
10883W        W10883   3.771   1.649   4.806 -0.0044  0.2421 -0.1869
10884W        W10884  10.219   5.341   2.048 -0.5217  0.0855 -0.1332
10885W        W10885   9.998   7.105   5.974  0.0476  0.0570 -0.1797
10886W        W10886   8.384   6.151   3.960 -0.0304  0.2507 -0.1244
10887W        W10887   8.239   9.340   2.331  0.0207 -0.0970 -0.0374
10888W        W10888   7.757   6.050   1.572  0.3267  0.0101 -0.1006
10889W        W10889   5.453   3.461   4.361 -0.2395 -0.1418  0.2002
10890W        W10890   7.141   5.753   9.278 -0.1733 -0.2184 -0.2245
10891W        W10891   4.318   8.070   6.344  0.0630  0.2011  0.1222
10892W        W10892   1.057   8.646   9.636  0.2435 -0.1131  0.0451
10893W        W10893   1.082   4.402   6.547  0.1262 -0.3697  0.2434
10894W        W10894   6.863  10.127   7.099 -0.0935 -0.0187 -0.0036
10895W        W10895   3.961   6.133   6.349 -0.2278 -0.1089  0.3155
10896W        W10896   4.017   9.191   4.413  0.0207  0.3889 -0.2255
10897W        W10897   0.453   5.759   8.842  0.1245  0.1453 -0.3004
10898W        W10898   1.601   5.746   6.240 -0.0084 -0.1900  0.0534
10899W        W10899   7.475   7.120   7.622  0.2117  0.0673 -0.2746
10900W        W10900   1.597   8.288   0.562 -0.5163 -0.0729 -0.1186
10901W        W10901   4.741   8.443   1.905 -0.0574 -0.1054  0.0105
10902W        W10902   7.980   8.178   0.167  0.1138  0.0992  0.0429
10903W        W10903  10.196   8.637   7.958 -0.1463 -0.0059  0.0143
10904W        W10904   6.741   4.747   7.735  0.2034  0.0955 -0.0983
10905W        W10905   8.335   9.686   0.273  0.0788  0.0307  0.1339
10906W        W10906   7.229   4.134  10.024 -0.1342 -0.1332  0.0189
10907W        W10907   7.406   1.298   0.712  0.1155 -0.1498  0.0971
10908W        W10908   4.814   7.543   7.140  0.0152 -0.0419 -0.0703
10909W        W10909   5.910   2.938   1.288 -0.4447 -0.0415 -0.2221
10910W        W10910   7.281   8.378   8.376 -0.1202 -0.1407  0.1602
10911W        W10911   2.281   8.623   9.274 -0.2287 -0.0227 -0.0329
10912W        W10912   3.178   4.717   7.128  0.0801 -0.2321 -0.0084
10913W        W10913   8.761   7.714   3.670  0.1206  0.0938 -0.0397
10914W        W10914   0.062   7.370   5.156  0.3638  0.0750 -0.3264
10915W        W10915   9.092   9.784   0.065  0.0232 -0.1651  0.2136
10916W        W10916   0.282   2.102   7.034 -0.0753 -0.3122  0.2709
10917W        W10917   3.924   5.334   3.288  0.4351  0.0736 -0.0684
10918W        W10918   2.399   1.388   1.967  0.2102  0.1985  0.3123
10919W        W10919   0.688   1.617   9.406 -0.3821  0.2386 -0.0095
10920W        W10920   2.745   7.286   0.701  0.2998 -0.0033 -0.1525
10921W        W10921   1.229   1.013   6.586  0.1601  0.0249 -0.2614
10922W        W10922   0.891   5.864   0.978  0.3679 -0.1060  0.0868
10923W        W10923   3.031   6.698   8.150  0.0439 -0.1961 -0.2220
10924W        W10924   9.898   7.830   7.987  0.0639  0.1279 -0.2018
10925W        W10925   5.038   3.841   1.092 -0.1604  0.2321 -0.2656
10926W        W10926   8.868   8.251   5.218 -0.1219  0.0067 -0.0161
10927W        W10927   8.591   6.481   2.131  0.0715 -0.0939 -0.3424
10928W        W10928   1.741   8.864   8.512  0.0370 -0.1207 -0.0432
10929W        W10929   1.781   3.775  10.041 -0.1755 -0.0634  0.1503
10930W        W10930   9.740   2.518   7.256 -0.1422  0.1488 -0.1248
10931W        W10931   0.628   6.848  10.297  0.0182  0.0793 -0.1821
10932W        W10932   5.901   7.754   5.961  0.1241 -0.0461  0.1765
10933W        W10933   1.594   1.477   2.887  0.3050 -0.1945  0.2822
10934W        W10934   3.966   7.965   0.230  0.1103 -0.1107 -0.1784
10935W        W10935   0.793   8.447   5.912  0.1312 -0.1564  0.1316
10936W        W10936   3.127   6.580   2.323  0.2148 -0.0487  0.0426
10937W        W10937   9.230   6.669  10.007  0.0468 -0.0467  0.0228
10938W        W10938   7.328   5.315   1.633  0.0667  0.0617 -0.0033
10939W        W10939   1.824   1.766   9.809  0.0582 -0.0978  0.3840
10940W        W10940   7.295   2.632   8.455  0.3842 -0.4149 -0.0950
10941W        W10941   0.786   0.234   6.824  0.1679 -0.0026 -0.4133
10942W        W10942   2.748   2.608   1.942  0.0134  0.0792 -0.0328
10943W        W10943   2.003   5.206   4.505  0.1259 -0.0300  0.0018
10944W        W10944  10.000   0.364   7.713  0.0507 -0.0473 -0.2414
10945W        W10945   7.208   8.669   6.055  0.1590 -0.0989  0.0925
10946W        W10946   5.174   6.697   6.869  0.1751 -0.1180 -0.0171
10947W        W10947   9.178   2.685   2.048 -0.1338  0.0171  0.0161
10948W        W10948   6.070   8.209   6.751  0.1855 -0.2808  0.1793
10949W        W10949   3.776   5.563   5.137  0.0954  0.2296  0.0291
10950W        W10950   0.340   7.335   7.803  0.2053 -0.0722  0.0644
10951W        W10951   5.629   1.945   1.415 -0.1622 -0.0411  0.1061
10952W        W10952   5.243   9.840   6.154 -0.0328 -0.0426  0.3457
10953W        W10953   1.734   3.238   8.293 -0.1510 -0.0641 -0.0073
10954W        W10954   6.553   2.249   1.576  0.0331  0.0320  0.0391
10955W        W10955   4.354   1.284   6.566 -0.1401 -0.0795 -0.1997
10956W        W10956   1.996   1.393   3.184 -0.2058  0.0074 -0.3103
10957W        W10957   5.709   1.509   6.496 -0.1275 -0.0032 -0.0566
10958W        W10958   6.070   2.575   9.692 -0.1480 -0.1898  0.1300
10959W        W10959   6.899   1.373   9.909 -0.4648  0.0751  0.0762
10960W        W10960   5.631   2.099   4.159 -0.0417 -0.3681 -0.2429
10961W        W10961   0.850   3.612   5.876 -0.4653 -0.0468  0.2346
10962W        W10962   2.126   7.256   4.576  0.0983 -0.2177 -0.1905
10963W        W10963   4.894   8.805   5.551 -0.1643 -0.1899 -0.0614
10964W        W10964   1.467   5.059   4.809 -0.2934 -0.1340  0.2417
10965W        W10965   4.974   7.953   7.347  0.2181  0.0767  0.0547
10966W        W10966   2.931   0.233   6.567 -0.1483 -0.2131 -0.0438
10967W        W10967   0.889   2.440   7.976  0.0635  0.0093  0.1408
10968W        W10968   0.321   9.483   4.447  0.1414  0.1502  0.0291
10969W        W10969   5.299   6.089   6.176  0.0106  0.0385 -0.1294
10970W        W10970   7.127   5.014   1.148 -0.1182  0.1208 -0.2039
10971W        W10971   6.523   4.204   0.494 -0.0380  0.0088 -0.1663
10972W        W10972   9.456   0.568   5.184 -0.1060 -0.1716 -0.0244
10973W        W10973   3.115   1.333   2.419 -0.1112  0.2099  0.0478
10974W        W10974   9.324   1.886   6.825  0.0669  0.2238 -0.0712
10975W        W10975   0.195   2.527   5.982 -0.1381  0.1680  0.0871
10976W        W10976   6.036   4.937   9.707 -0.0684  0.2143 -0.1502
10977W        W10977   3.668   0.721   3.915  0.0506 -0.0083  0.1134
10978W        W10978   2.175   7.748   3.008 -0.0098  0.3091 -0.2061
10979W        W10979   7.883   6.273   9.568  0.2645 -0.2505  0.0608
10980W        W10980   0.920   2.370   9.731 -0.3371 -0.0733 -0.1665
10981W        W10981   9.723   9.481   5.324 -0.2370  0.3559 -0.0657
10982W        W10982   0.671   5.481   6.319 -0.0827  0.0760 -0.0377
10983W        W10983   6.738   1.566   7.606 -0.1550 -0.0325  0.1769
10984W        W10984   2.637   4.655   7.274 -0.1856 -0.0836 -0.2061
10985W        W10985   6.906   2.059   5.918 -0.0152  0.1921 -0.0260
10986W        W10986   2.565   3.607   1.630  0.1691  0.0632 -0.2096
10987W        W10987   8.728   0.831   1.095  0.1316 -0.1695 -0.0140
10988W        W10988   9.371   9.616   5.636  0.2409  0.0455  0.2276
10989W        W10989  10.301  10.347   2.128  0.0266 -0.0593 -0.1472
10990W        W10990   7.022   7.065   3.133  0.0520  0.0495 -0.3071
10991W        W10991   1.730   9.255   1.667 -0.1240  0.4122  0.1727
10992W        W10992   2.706  10.233   4.889 -0.2680  0.1474 -0.1999
10993W        W10993   3.291   6.349   6.766 -0.0600  0.1333  0.0400
10994W        W10994   7.133   7.694   4.945  0.0805 -0.2905 -0.2233
10995W        W10995   3.294   8.867   1.940  0.0720  0.0525 -0.1171
10996W        W10996   2.740   5.618   3.612  0.1646 -0.1498  0.2013
10997W        W10997   9.208   8.904   4.782  0.1441 -0.1895 -0.2820
10998W        W10998  10.348   9.469   3.247 -0.1672 -0.2012 -0.2886
10999W        W10999   1.531   2.843   8.135 -0.0046 -0.1950  0.1682
11000W        W11000   7.824   2.031   3.523 -0.2811  0.0290 -0.1643
11001W        W11001   8.688   1.262   4.173  0.2120 -0.2746  0.1870
11002W        W11002   0.903   5.163   1.975  0.1624 -0.2539  0.1227
11003W        W11003   3.761   0.232   8.398  0.1455 -0.1232 -0.2037
11004W        W11004  10.222   5.639   9.197  0.1571  0.0304  0.0139
11005W        W11005   1.122   8.330   6.765 -0.0252 -0.1309 -0.0258
11006W        W11006   3.522   3.195   6.299 -0.1540 -0.0275  0.0544
11007W        W11007   7.824   9.734   9.207  0.0623 -0.0640  0.2351
11008W        W11008   4.847   9.712   8.801 -0.3902 -0.1254 -0.0437
11009W        W11009   5.833   4.505   6.990  0.1235  0.3105  0.1152
11010W        W11010   6.161   4.759   5.661 -0.0601  0.0246 -0.2473
11011W        W11011   0.395   4.381   5.554 -0.1196  0.0482  0.0878
11012W        W11012   9.911   7.864   4.988  0.0449 -0.0558  0.2043
11013W        W11013   9.355   5.426   4.164  0.0934  0.1450  0.0110
11014W        W11014   4.866   4.071   3.856  0.0517  0.0115  0.0190
11015W        W11015   8.298   5.997   8.254 -0.1982  0.2865 -0.0562
11016W        W11016   1.943   1.881   2.947  0.0816  0.1587  0.2463
11017W        W11017   2.868   6.909   3.864 -0.0876 -0.1800  0.1174
11018W        W11018   0.792   3.239   2.697  0.1092  0.0053  0.3618
11019W        W11019   9.388   1.126   7.602  0.0354  0.0353  0.2111
11020W        W11020   9.166   3.522   4.568 -0.0465  0.1374  0.0054
11021W        W11021   5.931   8.941   5.050 -0.2763 -0.2414 -0.1150
11022W        W11022   2.068   6.167   4.649 -0.0542  0.0525  0.2797
11023W        W11023   7.480   6.318   4.193  0.0549 -0.0782  0.0151
11024W        W11024   5.908   6.751   0.867 -0.1818  0.2372 -0.1143
11025W        W11025   0.888   3.510   8.379  0.1229  0.2449 -0.3385
11026W        W11026   2.546   3.246   9.997 -0.1428 -0.2305 -0.2015
11027W        W11027   3.973   1.862   0.874  0.1614 -0.3527  0.0757
11028W        W11028   9.952   2.467   9.731 -0.2655 -0.3567  0.1746
11029W        W11029   5.886   2.111   9.662  0.0920  0.2247  0.0032
11030W        W11030   9.625   5.756   5.974 -0.0246 -0.2109  0.2076
11031W        W11031   9.851   0.677   2.466  0.0445  0.4188 -0.1656
11032W        W11032   6.734   3.417   2.646 -0.0406  0.0334 -0.1590
11033W        W11033   3.105   0.912   0.828 -0.0990 -0.0112 -0.1551
11034W        W11034   4.218   8.548   3.377  0.0214 -0.1924 -0.3724
11035W        W11035   8.683   0.381   8.183 -0.0858 -0.0137 -0.0687
11036W        W11036   2.249   3.406   2.630 -0.0315  0.0968 -0.0194
11037W        W11037   6.594   3.914   4.097 -0.0684 -0.2136 -0.1529
11038W        W11038  10.266   2.240   3.382  0.0638  0.1895 -0.3866
11039W        W11039  10.300   1.504   9.773  0.1571 -0.4546 -0.1795
11040W        W11040   7.756   2.416   5.102 -0.0296 -0.3375  0.0396
11041W        W11041   7.453   9.927   9.547  0.4033  0.0460  0.0660
11042W        W11042   3.509   6.754   7.060 -0.4038 -0.2604  0.2502
11043W        W11043   5.488   2.545   4.598  0.0916  0.0215  0.0833
11044W        W11044   0.779   1.826   6.410  0.0733 -0.2728  0.3438
11045W        W11045   0.037   8.425   3.890  0.0479 -0.0221  0.2068
11046W        W11046   5.611   4.341   8.786 -0.0167  0.0539  0.0106
11047W        W11047   2.496   7.705   3.455  0.4347 -0.0285  0.1130
11048W        W11048   6.674   9.787   3.396  0.0471  0.0939 -0.0403
11049W        W11049   8.309   1.194   3.268 -0.1140 -0.1165  0.0544
11050W        W11050   6.667   4.719   0.409 -0.1658  0.1208  0.2240
11051W        W11051   1.381   6.148   1.760  0.2737 -0.3356 -0.1818
11052W        W11052   9.235   8.651   5.241 -0.1478 -0.2249  0.0243
11053W        W11053   5.810   7.478   0.899  0.0672  0.0057  0.1729
11054W        W11054   5.620   5.320   0.093  0.0541  0.5153 -0.0293
11055W        W11055   9.923  10.055   6.638  0.1336 -0.0582 -0.0761
11056W        W11056   6.440   4.091   3.231  0.0168  0.1051 -0.0505
11057W        W11057   7.439   8.834   9.812  0.1146 -0.0590 -0.1167
11058W        W11058   9.526   9.131   3.711  0.1044  0.1243  0.3344
11059W        W11059  10.152   7.956   3.704  0.0893  0.1265  0.1438
11060W        W11060   2.826   8.337   7.132  0.0226  0.0143  0.0324
11061W        W11061   3.126   1.192   8.921 -0.2064 -0.4204 -0.1753
11062W        W11062   3.312   3.642   7.934  0.0871  0.1112  0.1780
11063W        W11063   5.295   9.317   9.835  0.0240 -0.2156  0.1760
11064W        W11064   5.935   7.457   7.249  0.1179 -0.2071 -0.0944
11065W        W11065   3.598   2.249   0.937  0.2965 -0.4223  0.1590
11066W        W11066   6.426  10.221   4.400  0.0350 -0.2785 -0.0100
11067W        W11067   1.247   8.600   5.647 -0.0182 -0.2996  0.0886
11068W        W11068   7.488   0.944   2.741  0.2045 -0.0793 -0.1065
11069W        W11069   4.051   4.240   1.191  0.0181  0.0092 -0.2149
11070W        W11070   0.618   9.867   7.832 -0.0885 -0.0955  0.1458
11071W        W11071   2.060   7.114   1.291  0.2126  0.0502 -0.0281
11072W        W11072   1.563   0.497   2.469  0.2927 -0.0391 -0.0379
11073W        W11073   5.575   2.788   9.860 -0.0311  0.1076 -0.0489
11074W        W11074   7.703   2.881   8.671 -0.0646 -0.0158 -0.2980
11075W        W11075   2.653   1.038  10.007  0.1364 -0.1679  0.3279
11076W        W11076   8.664   7.403   5.330 -0.0377 -0.1685 -0.1048
11077W        W11077   2.070   7.228   7.843  0.0747 -0.3683 -0.3936
11078W        W11078   3.891   3.683   0.228 -0.2093 -0.1235 -0.0638
11079W        W11079   0.574   6.944   6.266 -0.0951 -0.4742 -0.1536
11080W        W11080   9.956  10.302   0.655 -0.0250  0.1172 -0.3027
11081W        W11081   1.977   7.120   6.157 -0.0269  0.2083  0.2932
11082W        W11082   1.415   5.480   2.121 -0.3073  0.0158 -0.3331
11083W        W11083   6.835   8.745  10.054  0.0694  0.3149  0.0290
11084W        W11084   4.971   0.351   2.657 -0.2196  0.0565  0.1683
11085W        W11085   9.228   8.283   3.997  0.1712 -0.0535 -0.2630
11086W        W11086   4.735   5.401   6.285  0.1486  0.3617  0.0624
11087W        W11087   6.054   4.347   9.468  0.0471  0.0303  0.0006
11088W        W11088   7.976   9.113   8.447 -0.2669  0.2174 -0.2095
11089W        W11089   1.639   8.635   7.404  0.0064 -0.0486  0.0288
11090W        W11090   1.608   3.387   6.494 -0.2323 -0.0020  0.1805
11091W        W11091   3.568   6.566   8.152  0.0361 -0.3020  0.0049
11092W        W11092   5.089   4.620   1.716 -0.0506 -0.1503  0.2614
11093W        W11093   7.203   7.026   5.889 -0.0653 -0.1312 -0.0324
11094W        W11094   6.089   1.420  10.322  0.1796 -0.1745  0.1488
11095W        W11095   4.796   2.899   7.121 -0.2174  0.0765  0.1556
11096W        W11096   9.887   9.712   7.892  0.1308  0.1284  0.0245
11097W        W11097   6.495   4.526  10.310 -0.0995 -0.0271 -0.0192
11098W        W11098   7.865   1.005   6.088  0.0225 -0.3154  0.2659
11099W        W11099   1.959   6.626   5.415 -0.2604 -0.3783 -0.0221
11100W        W11100   8.735   2.853   8.907 -0.0399  0.0242  0.0679
11101W        W11101   2.725   0.704   8.822 -0.0952 -0.0904 -0.3006
11102W        W11102   6.575   7.118   8.120  0.0658 -0.4947  0.0155
11103W        W11103   3.181   8.457   3.602 -0.2258  0.3055 -0.2298
11104W        W11104   1.729   7.594   7.996  0.0824 -0.0463 -0.2194
11105W        W11105   7.678   2.608   6.461  0.1323 -0.0197 -0.0311
11106W        W11106   2.509   0.029   3.462  0.2640  0.0799 -0.0206
11107W        W11107   1.010   6.986   9.824 -0.1630  0.1646 -0.0101
11108W        W11108   3.355   1.499   9.247  0.4055  0.1529  0.2270
11109W        W11109   1.847   2.378   0.448 -0.4785  0.0041  0.1326
11110W        W11110   1.697   8.152   4.767 -0.3198  0.0834  0.1862
11111W        W11111   3.036   8.748   2.843 -0.1198  0.1462 -0.0402
11112W        W11112   5.500   6.964   6.610 -0.4163 -0.0948  0.0513
11113W        W11113   1.943   8.955   3.591 -0.2392  0.3091  0.1891
11114W        W11114   7.872   0.315   8.645 -0.0641 -0.2999  0.0722
11115W        W11115   7.532   8.055   9.423 -0.1361  0.0990 -0.2131
11116W        W11116   9.638   1.002   9.336  0.0782  0.0338  0.2766
11117W        W11117   1.092   2.103  10.164  0.0729  0.1208  0.1547
11118W        W11118   8.667   1.938   1.825 -0.1118  0.1544  0.0289
11119W        W11119   7.525   8.354   5.740 -0.0352  0.2620 -0.0717
11120W        W11120   8.500   1.079   0.725  0.1819  0.0829  0.0592
11121W        W11121   6.370   6.873   1.370  0.2810  0.0497 -0.0961
11122W        W11122   2.826   3.447   4.842  0.0182  0.4908 -0.2416
11123W        W11123   6.954   7.646   6.640  0.0210 -0.1603  0.1515
11124W        W11124   3.507   1.778   6.962  0.2180 -0.0704 -0.1063
11125W        W11125   3.623   0.815   1.134  0.1844 -0.1424  0.2299
11126W        W11126   8.782   8.644   1.352  0.0232  0.1204  0.0197
11127W        W11127   1.104   7.287   5.317  0.0502 -0.0664  0.1081
11128W        W11128   9.436   0.550   8.465 -0.1077 -0.3745 -0.6023
11129W        W11129   1.006   8.344   1.490  0.0518 -0.0441 -0.0450
11130W        W11130   2.149   1.525   0.369  0.2433 -0.0329  0.0343
11131W        W11131   0.536   4.246   6.007  0.0144 -0.0425  0.0777
11132W        W11132   6.337   6.960   2.972  0.2712  0.0020 -0.3284
11133W        W11133  10.116   1.922   9.329  0.2383 -0.0802  0.1396
11134W        W11134   7.334   5.749   4.226 -0.2455 -0.0529  0.2182
11135W        W11135   1.123   9.814   6.232  0.2685  0.0603 -0.3888
11136W        W11136   5.875   3.536   2.034  0.0409  0.1900 -0.1471
11137W        W11137   2.656   7.268   1.187 -0.0039  0.1009  0.0890
11138W        W11138   0.946   7.790   0.973  0.2401 -0.1372 -0.1383
11139W        W11139   3.056   9.923   4.762  0.4903 -0.4629 -0.1199
11140W        W11140   9.115   4.707   7.894 -0.5049  0.0132  0.0967
11141W        W11141   3.313   0.634   4.894 -0.0954 -0.0634  0.0263
11142W        W11142   2.964   4.662   0.708  0.2633 -0.1790 -0.0859
11143W        W11143   7.044   2.171   0.357  0.1907  0.0136  0.0062
11144W        W11144   8.015   7.918   6.327 -0.1052  0.0500  0.1842
11145W        W11145   0.717  10.176   9.063 -0.1043 -0.0640 -0.3906
11146W        W11146   5.026   8.588   2.249 -0.2050  0.0380  0.2538
11147W        W11147   9.267   1.184   5.786  0.2346 -0.0255  0.1909
11148W        W11148   7.464   2.395   8.912 -0.4184  0.2271  0.1816
10.3518 10.3518 10.3518 0.0000 0.0000 0.0000 0.0000 0.0000 0.0000
