t=10000.0 ps
11148
    1COH    COH    1   9.894   1.068   5.068 -0.2150 -0.4623 -0.5329
    2COC    COC    2   9.722   1.088   5.258  0.1738  0.5055  0.0610
    3COC    COC    3   9.559   0.839   5.333  0.2838  0.0416 -0.1127
    4COC    COC    4   9.302   0.712   5.307 -0.0449 -0.1416 -0.0594
    5COC    COC    5   9.020   0.835   5.347  0.0006 -0.2271 -0.0204
    6COC    COC    6   8.705   0.772   5.347  0.1696 -0.4508  0.2265
    7COC    COC    7   8.473   0.808   5.476  0.3562 -0.1213  0.3369
    8COC    COC    8   8.427   0.998   5.701 -0.2106 -0.4144 -0.0903
    9COC    COC    9   8.376   0.834   5.973  0.0066  0.0939  0.1542
   10COC    COC   10   8.324   0.549   6.126 -0.1884 -0.1009  0.0254
   11COC    COC   11   8.007   0.497   6.253 -0.1440  0.0160  0.4472
   12COC    COC   12   7.782   0.665   6.292 -0.2619 -0.4121 -0.2111
   13COC    COC   13   7.899   0.898   6.457 -0.0946 -0.0458  0.1749
   14COC    COC   14   7.964   1.171   6.499  0.1016  0.2534 -0.0831
   15COC    COC   15   8.142   1.217   6.741 -0.0621 -0.2594 -0.0135
   16COC    COC   16   8.264   1.487   6.738  0.1724 -0.1782  0.0739
   17COC    COC   17   8.431   1.571   6.519 -0.4401 -0.3862  0.1873
   18COC    COC   18   8.433   1.754   6.257 -0.0226  0.4616  0.1871
   19COC    COC   19   8.453   1.947   6.001  0.1210 -0.1791  0.1852
   20COC    COC   20   8.640   1.831   5.829 -0.2417  0.4928  0.4686
   21COC    COC   21   8.793   1.566   5.908 -0.0294 -0.2001 -0.0455
   22COC    COC   22   9.015   1.447   5.698  0.0283 -0.0151  0.0016
   23COC    COC   23   8.851   1.239   5.525  0.0842  0.0050 -0.6423
   24COC    COC   24   8.709   1.162   5.277  0.1598  0.1918  0.0991
   25COC    COC   25   8.732   1.304   5.007 -0.1829 -0.1120  0.0914
   26COC    COC   26   8.873   1.579   4.975  0.0976 -0.0818  0.3155
   27COC    COC   27   9.132   1.542   4.835 -0.1256 -0.1225  0.2981
   28COC    COC   28   9.245   1.267   4.775 -0.6531 -0.1463  0.3717
   29COC    COC   29   9.307   1.140   4.517  0.3945 -0.1879 -0.0114
   30COC    COC   30   9.439   1.218   4.252 -0.0015 -0.3193 -0.2997
   31COC    COC   31   9.727   1.307   4.169 -0.0945 -0.3468  0.0496
   32COC    COC   32   9.977   1.150   4.214 -0.4310 -0.1808 -0.0097
   33COC    COC   33  10.158   1.390   4.104 -0.0900  0.1588  0.2274
   34COC    COC   34  10.097   1.670   3.906  0.0809 -0.0019  0.2802
   35COC    COC   35   9.872   1.655   3.679 -0.0586  0.3437 -0.0835
   36COC    COC   36   9.619   1.470   3.682 -0.2945 -0.4048  0.1541
   37COC    COC   37   9.391   1.479   3.497 -0.1133  0.0678  0.0051
   38COC    COC   38   9.105   1.422   3.429  0.2143 -0.0937 -0.1464
   39COC    COC   39   9.164   1.302   3.168  0.0299  0.2971  0.3747
   40COC    COC   40   9.355   1.547   3.075  0.0901 -0.1629 -0.0411
   41COC    COC   41   9.610   1.544   2.926 -0.3400  0.1177 -0.0563
   42COC    COC   42   9.696   1.829   2.838  0.1065 -0.0195  0.0651
   43COC    COC   43   9.464   1.965   2.840  0.0229  0.1958 -0.0603
   44COC    COC   44   9.389   2.097   3.063  0.2253 -0.2938 -0.0438
   45COC    COC   45   9.278   2.009   3.319 -0.2351 -0.0905 -0.2741
   46COH    COH   46   9.188   1.793   3.364 -0.2921  0.3141  0.1282
   47COH    COH   47   1.112   6.894   1.943  0.2690  0.1300 -0.1601
   48COC    COC   48   0.976   6.972   1.731  0.0156  0.0759  0.1342
   49COC    COC   49   1.142   7.177   1.632  0.1688 -0.2631  0.0169
   50COC    COC   50   1.004   7.441   1.752  0.1681  0.3142 -0.6097
   51COC    COC   51   0.770   7.648   1.745 -0.1770  0.1983 -0.1633
   52COC    COC   52   0.531   7.832   1.715  0.1618 -0.0619  0.1064
   53COC    COC   53   0.551   8.082   1.540  0.1910  0.2383  0.1138
   54COC    COC   54   0.741   8.272   1.688  0.0337  0.0080 -0.1426
   55COC    COC   55   0.958   8.073   1.814  0.0629  0.1053  0.3039
   56COC    COC   56   1.176   7.849   1.667  0.4837  0.0722 -0.1715
   57COC    COC   57   1.312   7.883   1.407 -0.1937  0.2686 -0.0236
   58COC    COC   58   1.262   7.631   1.215 -0.2799  0.1526  0.2195
   59COC    COC   59   1.243   7.368   1.243  0.3250 -0.2228 -0.0247
   60COC    COC   60   1.457   7.158   1.313 -0.0886  0.0688 -0.1433
   61COC    COC   61   1.487   6.918   1.474  0.3536  0.1090  0.3317
   62COC    COC   62   1.771   6.833   1.574 -0.1962 -0.0589  0.3206
   63COC    COC   63   1.628   6.609   1.726  0.2643 -0.2983  0.1581
   64COC    COC   64   1.258   6.614   1.768 -0.5527  0.1175 -0.0752
   65COC    COC   65   0.964   6.549   1.761  0.0688  0.3638  0.1677
   66COC    COC   66   0.854   6.472   1.469 -0.2710  0.1048 -0.1363
   67COC    COC   67   1.087   6.289   1.443  0.3363 -0.2665  0.1701
   68COC    COC   68   1.277   6.036   1.342  0.1514 -0.0277  0.1001
   69COC    COC   69   1.179   5.766   1.415  0.1910  0.0170 -0.1392
   70COC    COC   70   1.113   5.830   1.714 -0.3132  0.0324 -0.1713
   71COC    COC   71   1.292   5.736   1.954  0.4456 -0.0427  0.1486
   72COC    COC   72   1.364   5.500   2.109  0.4347  0.2601  0.0006
   73COC    COC   73   1.394   5.470   2.395  0.4529 -0.1449  0.0831
   74COC    COC   74   1.652   5.620   2.540  0.0367 -0.3943 -0.0730
   75COC    COC   75   1.715   5.516   2.849 -0.1053 -0.0931 -0.2312
   76COC    COC   76   1.623   5.247   2.911 -0.0792  0.0310 -0.2199
   77COC    COC   77   1.737   5.025   3.111  0.1052  0.1050  0.2291
   78COC    COC   78   1.567   4.929   3.349  0.1179  0.0241  0.0059
   79COC    COC   79   1.419   5.032   3.595 -0.0851 -0.1738 -0.4004
   80COC    COC   80   1.236   5.276   3.666 -0.4787 -0.0577  0.0551
   81COC    COC   81   0.994   5.366   3.537 -0.1517  0.4227 -0.0532
   82COC    COC   82   0.733   5.235   3.648 -0.3460  0.1916 -0.1402
   83COC    COC   83   0.486   5.130   3.490 -0.3138 -0.0715 -0.3034
   84COC    COC   84   0.534   4.850   3.424 -0.2297  0.0157 -0.0245
   85COC    COC   85   0.694   4.638   3.252 -0.3410  0.1505  0.0669
   86COC    COC   86   0.540   4.400   3.086  0.0745 -0.0430  0.0684
   87COC    COC   87   0.294   4.355   3.239  0.1817  0.0609 -0.2813
   88COC    COC   88   0.191   4.640   3.254 -0.1034  0.0945 -0.5038
   89COC    COC   89   0.255   4.890   3.094  0.4948 -0.1255 -0.0579
   90COC    COC   90   0.445   4.819   2.875 -0.2956  0.1753 -0.0310
   91COC    COC   91   0.733   4.690   2.794  0.2173  0.0494  0.0047
   92COH    COH   92   0.880   4.871   2.984  0.0957  0.2996  0.7731
   93COH    COH   93   4.503   9.343   1.654  0.3538 -0.2599  0.2195
   94COC    COC   94   4.391   9.347   1.877 -0.1497 -0.0431  0.2191
   95COC    COC   95   4.154   9.509   1.790 -0.0574 -0.0677  0.1988
   96COC    COC   96   4.037   9.432   1.536  0.3462 -0.0739  0.1212
   97COC    COC   97   3.769   9.332   1.422  0.2405 -0.0456 -0.4682
   98COC    COC   98   3.578   9.572   1.391 -0.0422 -0.0038  0.6007
   99COC    COC   99   3.494   9.628   1.655  0.4877 -0.1784  0.2830
  100COC    COC  100   3.723   9.628   1.839 -0.0177 -0.2802 -0.4723
  101COC    COC  101   3.687   9.797   2.095 -0.2225  0.2051 -0.0983
  102COC    COC  102   3.773  10.093   2.054  0.1981  0.2082 -0.1765
  103COC    COC  103   4.021  10.185   2.239 -0.0845 -0.1557  0.4772
  104COC    COC  104   4.293  10.211   2.087 -0.3167  0.2005 -0.1847
  105COC    COC  105   4.546  10.173   2.187 -0.2285  0.0449 -0.0838
  106COC    COC  106   4.643   0.104   2.308  0.1975 -0.2351 -0.0790
  107COC    COC  107   4.386   0.228   2.415 -0.0115  0.0593  0.4853
  108COC    COC  108   4.179   0.256   2.173 -0.2468  0.1974  0.0332
  109COC    COC  109   3.903   0.279   2.224  0.6338 -0.0049 -0.0778
  110COC    COC  110   3.690   0.149   2.067 -0.2427  0.2412 -0.0255
  111COC    COC  111   3.784   0.045   1.772 -0.2050  0.2020  0.0888
  112COC    COC  112   4.099  10.277   1.711  0.3486  0.3183  0.0368
  113COC    COC  113   4.348   0.023   1.627 -0.1729  0.4997  0.4566
  114COC    COC  114   4.430   0.261   1.683 -0.4080 -0.2799  0.0172
  115COC    COC  115   4.512   0.379   1.936  0.0934  0.1371  0.1313
  116COC    COC  116   4.550   0.542   2.179 -0.0624  0.0977  0.1632
  117COC    COC  117   4.728   0.593   2.391  0.0237  0.0783 -0.2399
  118COC    COC  118   4.881   0.794   2.156 -0.0212 -0.0203 -0.1597
  119COC    COC  119   4.848   1.085   2.137 -0.0874  0.1154  0.0584
  120COC    COC  120   4.777   1.295   2.363 -0.3479 -0.1463 -0.0626
  121COC    COC  121   4.565   1.466   2.215 -0.0616 -0.0836 -0.2457
  122COC    COC  122   4.812   1.676   2.115  0.1533 -0.1316  0.3821
  123COC    COC  123   4.665   1.837   1.902 -0.1944 -0.2913 -0.0325
  124COC    COC  124   4.389   1.696   1.827  0.2058  0.0197  0.1971
  125COC    COC  125   4.104   1.790   1.839 -0.0106 -0.1313 -0.1599
  126COC    COC  126   4.027   1.554   1.670  0.0182  0.1539  0.2032
  127COC    COC  127   4.022   1.372   1.895  0.1358  0.1921 -0.1185
  128COC    COC  128   4.255   1.240   1.972  0.0054 -0.5091  0.3773
  129COC    COC  129   4.229   1.113   2.246 -0.0764 -0.3184 -0.3030
  130COC    COC  130   4.448   0.986   2.363  0.4440  0.3285  0.1215
  131COC    COC  131   4.458   1.121   2.636  0.1064 -0.2851 -0.1475
  132COC    COC  132   4.219   1.203   2.852 -0.1637  0.0126  0.0510
  133COC    COC  133   4.214   1.475   2.907  0.0184  0.1038  0.0677
  134COC    COC  134   4.043   1.392   3.198 -0.1803  0.1465  0.0802
  135COC    COC  135   4.157   1.529   3.447  0.0232 -0.3783  0.1243
  136COC    COC  136   4.223   1.824   3.501 -0.0562 -0.1742 -0.3640
  137COC    COC  137   4.300   2.025   3.710  0.3357  0.3929  0.0749
  138COH    COH  138   4.342   2.012   3.991 -0.2595 -0.3951 -0.0368
  139COH    COH  139   9.255   4.817   8.833 -0.1958  0.4163 -0.1391
  140COC    COC  140   9.132   4.571   8.850 -0.0553 -0.3068  0.2576
  141COC    COC  141   8.959   4.502   9.092  0.0423  0.0150 -0.1505
  142COC    COC  142   9.149   4.298   9.249 -0.1134  0.1220 -0.0866
  143COC    COC  143   9.094   4.006   9.250 -0.5162 -0.2755  0.0867
  144COC    COC  144   9.121   3.815   9.014 -0.1139 -0.1157  0.0387
  145COC    COC  145   9.023   3.544   8.906  0.2111 -0.1805  0.0012
  146COC    COC  146   8.788   3.416   8.739  0.3584 -0.3300 -0.0772
  147COC    COC  147   8.573   3.199   8.738  0.0417 -0.1646 -0.0519
  148COC    COC  148   8.299   3.395   8.669 -0.1890  0.0939 -0.1804
  149COC    COC  149   8.209   3.465   8.392 -0.3506  0.4584  0.0889
  150COC    COC  150   7.915   3.474   8.351 -0.1013  0.2360 -0.2033
  151COC    COC  151   7.726   3.723   8.223  0.1204 -0.2386  0.0379
  152COC    COC  152   7.632   3.706   7.939  0.0251  0.0971 -0.4636
  153COC    COC  153   7.535   3.443   7.799 -0.0595 -0.2290 -0.0417
  154COC    COC  154   7.707   3.236   7.703 -0.0663  0.2569  0.1963
  155COC    COC  155   7.672   3.304   7.383  0.4902 -0.0566 -0.1323
  156COC    COC  156   7.356   3.322   7.370  0.0065 -0.4997  0.2260
  157COC    COC  157   7.313   3.573   7.220 -0.2790  0.1693  0.1975
  158COC    COC  158   7.282   3.573   6.908  0.5015 -0.4905  0.1130
  159COC    COC  159   7.099   3.818   6.762 -0.2217  0.2943  0.0397
  160COC    COC  160   7.002   3.885   6.494 -0.0808  0.0265 -0.1090
  161COC    COC  161   6.851   3.720   6.307  0.3539 -0.1284 -0.1569
  162COC    COC  162   6.563   3.574   6.350 -0.1145 -0.1546 -0.4713
  163COC    COC  163   6.518   3.258   6.345  0.0026  0.2979 -0.0565
  164COC    COC  164   6.544   3.067   6.094 -0.0386 -0.0948  0.2446
  165COC    COC  165   6.494   3.259   5.884  0.3002 -0.2265 -0.6704
  166COC    COC  166   6.593   3.149   5.614  0.2977 -0.0627 -0.1489
  167COC    COC  167   6.748   2.887   5.533  0.2529 -0.4136 -0.1916
  168COC    COC  168   6.857   2.946   5.249  0.2406 -0.1047  0.1644
  169COC    COC  169   6.830   3.219   5.096  0.2167  0.3179 -0.2538
  170COC    COC  170   7.092   3.342   5.047 -0.0140 -0.3831 -0.4213
  171COC    COC  171   7.361   3.446   4.855  0.3828  0.1424  0.1454
  172COC    COC  172   7.447   3.745   4.945 -0.1434  0.1509 -0.0100
  173COC    COC  173   7.443   3.873   5.232  0.1352  0.0978  0.2522
  174COC    COC  174   7.247   3.793   5.414  0.0504  0.1749  0.2551
  175COC    COC  175   7.009   3.987   5.375 -0.0168 -0.0795  0.0389
  176COC    COC  176   6.833   4.016   5.610 -0.0043 -0.1798 -0.1280
  177COC    COC  177   6.527   4.103   5.617  0.0297 -0.3441 -0.1382
  178COC    COC  178   6.417   4.408   5.580  0.0021  0.1622 -0.2967
  179COC    COC  179   6.479   4.647   5.468 -0.0540 -0.1548 -0.0244
  180COC    COC  180   6.742   4.682   5.289  0.0037  0.1501 -0.2146
  181COC    COC  181   6.728   4.897   5.110 -0.1695 -0.2052  0.1591
  182COC    COC  182   6.901   5.135   5.138  0.0583 -0.3689 -0.2657
  183COC    COC  183   7.144   4.969   5.166 -0.2175 -0.0817 -0.3586
  184COH    COH  184   7.153   4.708   5.124  0.0296  0.0819  0.2728
  185COH    COH  185   4.563   6.694   2.930 -0.2726  0.3707 -0.3293
  186COC    COC  186   4.547   6.733   3.191  0.1642 -0.3180  0.1523
  187COC    COC  187   4.762   6.924   3.257 -0.2178  0.3521 -0.3740
  188COC    COC  188   4.991   6.976   3.098  0.2152 -0.0211  0.1272
  189COC    COC  189   5.026   6.735   2.907  0.1450  0.0216  0.1710
  190COC    COC  190   4.845   6.754   2.647 -0.0091  0.2903 -0.0606
  191COC    COC  191   4.779   6.505   2.444  0.0764 -0.2417  0.4336
  192COC    COC  192   4.840   6.451   2.146  0.1872 -0.3812  0.0252
  193COC    COC  193   4.693   6.238   2.002 -0.2655 -0.2026  0.3627
  194COC    COC  194   4.452   6.094   2.082 -0.1796 -0.4323 -0.0797
  195COC    COC  195   4.303   6.153   2.350 -0.2371 -0.0122 -0.0589
  196COC    COC  196   4.015   6.159   2.265 -0.1555 -0.3903  0.1249
  197COC    COC  197   3.838   5.929   2.430  0.3861 -0.4238 -0.0227
  198COC    COC  198   3.569   5.815   2.527  0.1402 -0.1115 -0.0706
  199COC    COC  199   3.449   6.045   2.694 -0.1695 -0.2786  0.3093
  200COC    COC  200   3.446   6.312   2.640  0.0246  0.0673  0.1457
  201COC    COC  201   3.359   6.455   2.395 -0.2943 -0.3818 -0.0889
  202COC    COC  202   3.578   6.464   2.184 -0.3350 -0.6398 -0.4775
  203COC    COC  203   3.699   6.316   1.943 -0.0307  0.1073  0.0689
  204COC    COC  204   3.655   6.488   1.684 -0.0127  0.3522 -0.0206
  205COC    COC  205   3.890   6.447   1.459 -0.1650  0.0466 -0.0502
  206COC    COC  206   3.723   6.366   1.221 -0.1150  0.1382 -0.1808
  207COC    COC  207   3.509   6.234   1.336  0.3571  0.2595  0.1506
  208COC    COC  208   3.446   5.948   1.339  0.2650  0.0919 -0.0593
  209COC    COC  209   3.142   5.896   1.376 -0.0253  0.1124  0.1560
  210COC    COC  210   3.078   5.909   1.696  0.1794 -0.1803  0.0383
  211COC    COC  211   3.106   5.659   1.846  0.1829 -0.6327 -0.2825
  212COC    COC  212   3.066   5.384   1.782 -0.2513  0.2851 -0.1060
  213COC    COC  213   2.794   5.238   1.843  0.0203  0.2115 -0.0248
  214COC    COC  214   2.664   5.008   2.026 -0.2275  0.3127 -0.3995
  215COC    COC  215   2.775   4.709   1.978  0.2720 -0.2125  0.0999
  216COC    COC  216   2.957   4.717   2.237 -0.0238 -0.1884  0.0809
  217COC    COC  217   3.181   4.526   2.297 -0.1998 -0.0889 -0.4941
  218COC    COC  218   3.174   4.315   2.104 -0.1244  0.1283  0.2044
  219COC    COC  219   2.925   4.263   1.953  0.2713 -0.0091 -0.4341
  220COC    COC  220   2.653   4.050   1.967  0.1463 -0.2442 -0.3383
  221COC    COC  221   2.426   4.116   2.193  0.0911  0.2581 -0.1353
  222COC    COC  222   2.155   4.044   2.080 -0.4363  0.2869 -0.5386
  223COC    COC  223   2.217   3.778   1.921  0.1649 -0.1003  0.2003
  224COC    COC  224   2.266   3.521   2.019 -0.6636  0.2855  0.3173
  225COC    COC  225   2.370   3.411   2.288 -0.2742  0.1318 -0.0442
  226COC    COC  226   2.495   3.693   2.355 -0.1650  0.2272 -0.2554
  227COC    COC  227   2.785   3.736   2.454  0.1407  0.1654  0.1359
  228COC    COC  228   2.978   3.593   2.233 -0.0215 -0.4367 -0.2342
  229COC    COC  229   2.979   3.605   1.919 -0.2478 -0.5753  0.3026
  230COH    COH  230   2.990   3.867   1.947  0.1948  0.4004 -0.4332
  231COH    COH  231   9.574   9.637   2.914  0.1600  0.0718 -0.3009
  232COC    COC  232   9.692   9.851   3.028 -0.1193 -0.2076 -0.1143
  233COC    COC  233   9.715  10.052   3.257  0.0736  0.1406  0.2863
  234COC    COC  234   9.656  10.256   3.519  0.2251  0.1941  0.0815
  235COC    COC  235   9.698  10.313   3.817 -0.0409 -0.2047  0.2718
  236COC    COC  236   9.620   0.271   3.868  0.0957  0.0610 -0.3968
  237COC    COC  237   9.580   0.398   3.597  0.2328 -0.1906  0.2543
  238COC    COC  238   9.334   0.560   3.550  0.0293 -0.2504 -0.0626
  239COC    COC  239   9.252   0.656   3.834  0.0685  0.3394 -0.1982
  240COC    COC  240   9.351   0.549   4.104 -0.1249  0.2929 -0.0731
  241COC    COC  241   9.250   0.284   4.179 -0.1173  0.2721  0.3131
  242COC    COC  242   9.156   0.183   4.435 -0.2246  0.4120 -0.0490
  243COC    COC  243   9.344   0.099   4.648 -0.0397  0.3411  0.0192
  244COC    COC  244   9.344  10.268   4.882  0.0148  0.0974 -0.2226
  245COC    COC  245   9.594  10.161   5.051  0.2651 -0.1445  0.1424
  246COC    COC  246   9.887  10.112   5.007 -0.1182  0.0435  0.1003
  247COC    COC  247  10.150  10.205   4.855 -0.0431 -0.3325  0.1217
  248COC    COC  248   0.006  10.044   4.744  0.3043 -0.0634 -0.1675
  249COC    COC  249   0.145  10.157   4.478  0.2159 -0.2088 -0.0483
  250COC    COC  250   0.347   9.962   4.462  0.0619 -0.1194  0.5417
  251COC    COC  251   0.594   9.944   4.651  0.0993  0.0691  0.1929
  252COC    COC  252   0.519   9.821   4.951 -0.1018  0.0221 -0.1362
  253COC    COC  253   0.286   9.640   4.980 -0.1071 -0.2950  0.3051
  254COC    COC  254   0.239   9.469   4.703 -0.2012 -0.4350  0.4234
  255COC    COC  255   0.148   9.569   4.404  0.1924 -0.2114  0.1090
  256COC    COC  256   0.207   9.305   4.263  0.0093  0.2328  0.0742
  257COC    COC  257   0.046   9.101   4.088  0.0631  0.0230 -0.0944
  258COC    COC  258  10.294   8.941   3.830  0.1415  0.5758 -0.1452
  259COC    COC  259   0.047   8.907   3.542 -0.0454 -0.0998 -0.5649
  260COC    COC  260   0.286   8.868   3.334  0.3334  0.0369  0.0673
  261COC    COC  261   0.184   8.711   3.097  0.3740 -0.4447  0.2914
  262COC    COC  262  10.281   8.488   3.007  0.3695  0.1685  0.2554
  263COC    COC  263  10.145   8.205   2.993  0.2055 -0.0462  0.4563
  264COC    COC  264  10.020   7.939   3.070 -0.0900  0.1283 -0.3961
  265COC    COC  265   9.754   7.852   3.021 -0.4133 -0.0045 -0.1447
  266COC    COC  266   9.498   7.778   2.981  0.1127 -0.1244  0.1578
  267COC    COC  267   9.500   7.668   2.682  0.1875 -0.0672  0.0991
  268COC    COC  268   9.591   7.383   2.515  0.7503  0.2228  0.3284
  269COC    COC  269   9.857   7.383   2.532 -0.0242  0.0632  0.1636
  270COC    COC  270   9.980   7.099   2.387  0.2814 -0.0356 -0.0419
  271COC    COC  271  10.204   6.906   2.490 -0.0998 -0.3716  0.1421
  272COC    COC  272  10.231   6.691   2.264 -0.2198 -0.1851  0.3985
  273COC    COC  273  10.067   6.576   1.997  0.1733  0.0325 -0.0082
  274COC    COC  274   9.816   6.592   1.854 -0.0288  0.2041  0.0936
  275COC    COC  275   9.602   6.657   1.644 -0.2625  0.0181  0.1635
  276COH    COH  276   9.801   6.602   1.452  0.3945  0.1634 -0.3248
  277COH    COH  277   6.830   2.705   8.326  0.3321 -0.1511 -0.5138
  278COC    COC  278   6.746   2.942   8.391  0.3017  0.0865 -0.1372
  279COC    COC  279   6.467   2.863   8.311 -0.1206  0.1001 -0.0713
  280COC    COC  280   6.299   2.768   8.551  0.0495  0.2578  0.3903
  281COC    COC  281   6.334   2.509   8.697 -0.3799  0.1612  0.0232
  282COC    COC  282   6.630   2.538   8.700 -0.0740  0.1257 -0.0886
  283COC    COC  283   6.878   2.721   8.727 -0.0036 -0.2530 -0.0821
  284COC    COC  284   6.839   2.880   8.978  0.0997  0.0357  0.2448
  285COC    COC  285   6.612   2.984   9.163 -0.1592 -0.1432 -0.0128
  286COC    COC  286   6.591   3.019   9.481  0.1062  0.2044 -0.0539
  287COC    COC  287   6.336   3.018   9.650  0.2373 -0.3065  0.3303
  288COC    COC  288   6.014   3.015   9.695  0.1614 -0.1287 -0.1810
  289COC    COC  289   5.930   3.031   9.990 -0.2039 -0.0096 -0.1422
  290COC    COC  290   5.652   2.970   9.988  0.2365  0.4531 -0.0362
  291COC    COC  291   5.441   2.743   9.980  0.2476 -0.2338 -0.0428
  292COC    COC  292   5.204   2.732   9.805 -0.1265 -0.0866  0.0783
  293COC    COC  293   5.005   2.898   9.934  0.0743  0.3283  0.0806
  294COC    COC  294   4.763   2.750   9.941  0.0900 -0.2063  0.7185
  295COC    COC  295   4.573   2.561   9.792 -0.2511 -0.2854  0.2085
  296COC    COC  296   4.312   2.682   9.701 -0.0261 -0.4512  0.0774
  297COC    COC  297   4.418   2.927   9.559  0.0809  0.3103  0.3731
  298COC    COC  298   4.133   3.033   9.473  0.0683 -0.3924  0.1670
  299COC    COC  299   4.204   3.245   9.254  0.1482 -0.0523  0.1824
  300COC    COC  300   4.470   3.347   9.148 -0.2520 -0.7012 -0.3557
  301COC    COC  301   4.691   3.230   9.307  0.0065  0.1324  0.4839
  302COC    COC  302   4.672   3.250   9.600 -0.2982  0.0889  0.3046
  303COC    COC  303   4.714   3.505   9.722  0.0920 -0.2938 -0.1913
  304COC    COC  304   4.719   3.430  10.033  0.1313 -0.0123  0.2111
  305COC    COC  305   4.588   3.171  10.034  0.1764 -0.1351 -0.0331
  306COC    COC  306   4.377   2.933  10.059  0.5819  0.0679 -0.0150
  307COC    COC  307   4.054   2.984   9.954 -0.0949 -0.2071 -0.0532
  308COC    COC  308   3.904   3.091  10.187 -0.2065  0.2654 -0.0527
  309COC    COC  309   3.802   2.899   0.061  0.0658 -0.2327  0.1654
  310COC    COC  310   3.721   2.588   0.027 -0.3215 -0.1253  0.3102
  311COC    COC  311   3.567   2.522   0.316  0.2625 -0.1255 -0.0039
  312COC    COC  312   3.386   2.730   0.490 -0.1268 -0.0632  0.0745
  313COC    COC  313   3.403   3.036   0.536 -0.3239  0.1518 -0.0755
  314COC    COC  314   3.603   3.246   0.506  0.1157 -0.1672 -0.1528
  315COC    COC  315   3.459   3.508   0.601  0.6162 -0.1318 -0.0639
  316COC    COC  316   3.143   3.482   0.508  0.3606  0.0943 -0.3461
  317COC    COC  317   2.895   3.309   0.628  0.0715  0.3398 -0.2178
  318COC    COC  318   2.703   3.137   0.761  0.2643  0.2141 -0.2328
  319COC    COC  319   2.531   2.884   0.733 -0.0085 -0.0364 -0.1013
  320COC    COC  320   2.319   2.698   0.871 -0.0197  0.3671 -0.2680
  321COC    COC  321   2.118   2.727   1.130  0.1682  0.1332  0.1088
  322COH    COH  322   2.089   2.564   1.336 -0.3550 -0.3837 -0.0762
  323COH    COH  323  10.225   5.962   1.500  0.3338  0.0567 -0.6225
  324COC    COC  324   0.020   5.911   1.337  0.1087 -0.3555 -0.0627
  325COC    COC  325   0.262   6.058   1.243  0.4698  0.4123 -0.1258
  326COC    COC  326   0.314   5.949   0.977 -0.3049  0.0280 -0.0074
  327COC    COC  327   0.328   6.150   0.717  0.2714 -0.0571  0.4080
  328COC    COC  328   0.255   6.204   0.459  0.1899 -0.1805  0.2288
  329COC    COC  329   0.195   6.229   0.187  0.1339 -0.0285 -0.0388
  330COC    COC  330   0.043   6.338  10.267  0.0424  0.1577  0.1819
  331COC    COC  331  10.089   6.234  10.333  0.0669 -0.1111  0.1645
  332COC    COC  332  10.122   5.997   0.151 -0.3607 -0.0094  0.0097
  333COC    COC  333   9.901   5.896   0.327 -0.1766 -0.4414 -0.0392
  334COC    COC  334   9.642   5.872   0.471  0.2056 -0.0497  0.2175
  335COC    COC  335   9.355   5.944   0.549 -0.1615 -0.2274 -0.1020
  336COC    COC  336   9.248   6.178   0.369  0.0704  0.1300  0.2043
  337COC    COC  337   9.141   6.198   0.116 -0.2998  0.1882 -0.2555
  338COC    COC  338   9.287   6.361  10.229  0.1143 -0.4080 -0.4572
  339COC    COC  339   9.341   6.299   9.943  0.0174  0.0029  0.2146
  340COC    COC  340   9.408   6.542   9.808 -0.0915  0.0561 -0.2313
  341COC    COC  341   9.409   6.751   9.991  0.2636 -0.0436 -0.5423
  342COC    COC  342   9.416   7.043   9.946 -0.1284  0.0528 -0.0718
  343COC    COC  343   9.504   7.189  10.225  0.0023 -0.1972  0.1409
  344COC    COC  344   9.283   7.387  10.331 -0.1122  0.1823  0.2030
  345COC    COC  345   9.041   7.335  10.151 -0.0959  0.0555  0.0647
  346COC    COC  346   8.737   7.337  10.325  0.4518 -0.1036  0.0808
  347COC    COC  347   8.475   7.401  10.145 -0.1799 -0.1226  0.3355
  348COC    COC  348   8.416   7.602   9.939 -0.3179 -0.1462 -0.0124
  349COC    COC  349   8.136   7.695   9.910  0.3394 -0.2723  0.1034
  350COC    COC  350   7.976   7.823   9.674 -0.0200  0.2573  0.0539
  351COC    COC  351   8.022   8.083   9.498  0.0345  0.3880 -0.2256
  352COC    COC  352   8.226   8.096   9.263 -0.3228  0.0980  0.2280
  353COC    COC  353   8.180   7.942   9.004  0.2501 -0.1758  0.1578
  354COC    COC  354   8.169   7.659   9.102  0.1415 -0.0935 -0.2191
  355COC    COC  355   7.959   7.573   9.332  0.1093  0.1247 -0.0220
  356COC    COC  356   7.744   7.704   9.201 -0.1830  0.0277 -0.0999
  357COC    COC  357   7.551   7.896   9.346 -0.2339  0.1816  0.0225
  358COC    COC  358   7.507   7.817   9.606 -0.2287 -0.1485  0.3100
  359COC    COC  359   7.262   7.952   9.702 -0.1424  0.0188  0.0633
  360COC    COC  360   7.293   8.126   9.948  0.1631  0.2484 -0.2876
  361COC    COC  361   7.441   8.355  10.061 -0.4958  0.1521  0.5436
  362COC    COC  362   7.772   8.417  10.059 -0.0854  0.0280  0.2294
  363COC    COC  363   7.825   8.443   9.764  0.1430  0.1097  0.2508
  364COC    COC  364   7.621   8.413   9.543 -0.1199  0.1153 -0.0615
  365COC    COC  365   7.489   8.580   9.338 -0.0234 -0.0368 -0.1264
  366COC    COC  366   7.285   8.687   9.163  0.5795  0.0504  0.1853
  367COC    COC  367   7.000   8.586   8.972  0.2771  0.0403 -0.5270
  368COH    COH  368   6.833   8.687   8.786 -0.2904  0.2753 -0.0677
  369COH    COH  369   1.854   9.698   8.755  0.0077 -0.1795  0.2282
  370COC    COC  370   1.861   9.907   8.905  0.2158 -0.0798 -0.0657
  371COC    COC  371   1.853  10.105   8.664 -0.0763  0.2172  0.3236
  372COC    COC  372   2.039   9.949   8.460  0.0953 -0.0611 -0.5492
  373COC    COC  373   2.225  10.213   8.412  0.0500  0.2582  0.1788
  374COC    COC  374   2.147   0.131   8.530  0.0371  0.3924  0.0368
  375COC    COC  375   2.096   0.427   8.422  0.4107  0.2378 -0.2479
  376COC    COC  376   1.778   0.465   8.415  0.2903  0.0086  0.1065
  377COC    COC  377   1.691   0.781   8.341 -0.0853  0.5622 -0.3363
  378COC    COC  378   1.593   0.888   8.068  0.1023  0.2996  0.0286
  379COC    COC  379   1.761   0.819   7.799  0.6078 -0.0334  0.0095
  380COC    COC  380   2.038   0.871   7.768 -0.0484  0.1926  0.2564
  381COC    COC  381   2.134   1.031   8.026 -0.1373  0.1472  0.0941
  382COC    COC  382   2.391   1.017   8.170  0.0209 -0.3291  0.3319
  383COC    COC  383   2.456   0.757   8.326 -0.3889  0.0696 -0.1834
  384COC    COC  384   2.481   0.920   8.580  0.0071  0.0013  0.1183
  385COC    COC  385   2.423   1.211   8.580 -0.1052  0.4292 -0.3172
  386COC    COC  386   2.163   1.321   8.506  0.0204 -0.1418 -0.0802
  387COC    COC  387   2.121   1.598   8.652  0.6923 -0.1090  0.2715
  388COC    COC  388   2.351   1.768   8.639 -0.0769  0.0135  0.1890
  389COC    COC  389   2.470   2.043   8.706 -0.0918 -0.0874 -0.1793
  390COC    COC  390   2.323   2.285   8.563 -0.0593 -0.1832  0.1832
  391COC    COC  391   2.466   2.497   8.756 -0.4902 -0.1433  0.4143
  392COC    COC  392   2.757   2.394   8.711  0.1082 -0.1745  0.0255
  393COC    COC  393   2.965   2.325   8.491  0.4464  0.0826  0.2088
  394COC    COC  394   2.996   2.014   8.473 -0.2142  0.1357 -0.0793
  395COC    COC  395   3.205   1.925   8.699 -0.0386  0.0960  0.1475
  396COC    COC  396   3.495   1.943   8.815  0.0730 -0.4531  0.1996
  397COC    COC  397   3.703   1.733   8.792 -0.3321 -0.0892 -0.1235
  398COC    COC  398   3.511   1.532   8.866  0.1648  0.5285  0.0968
  399COC    COC  399   3.549   1.258   8.846  0.4459  0.2719  0.3246
  400COC    COC  400   3.319   1.083   8.763 -0.0041 -0.1523  0.1874
  401COC    COC  401   3.226   0.829   8.921  0.1857  0.1311 -0.1419
  402COC    COC  402   3.347   0.754   9.183 -0.1796  0.0008 -0.0948
  403COC    COC  403   3.164   0.574   9.342  0.4386 -0.0134 -0.1514
  404COC    COC  404   2.864   0.571   9.393  0.1893 -0.2063 -0.0774
  405COC    COC  405   2.621   0.741   9.535 -0.0480 -0.1400  0.2913
  406COC    COC  406   2.529   0.881   9.809  0.4015  0.0712  0.3645
  407COC    COC  407   2.326   0.774  10.001  0.0641 -0.3215  0.0860
  408COC    COC  408   2.417   0.486  10.092 -0.0153 -0.1853  0.2739
  409COC    COC  409   2.199   0.279  10.049  0.0905 -0.0496 -0.0548
  410COC    COC  410   1.884   0.244  10.013  0.3581 -0.2670 -0.1197
  411COC    COC  411   1.758   0.255   9.737  0.0507 -0.2153  0.0234
  412COC    COC  412   1.767   0.052   9.548  0.1092 -0.2308  0.1617
  413COC    COC  413   1.587   0.130   9.350  0.0652 -0.2596 -0.0356
  414COH    COH  414   1.389   0.300   9.406 -0.1381 -0.0764  0.3348
  415COH    COH  415   3.186   3.570   7.782  0.3247 -0.1044  0.1049
  416COC    COC  416   3.387   3.409   7.803  0.1537  0.0170  0.1834
  417COC    COC  417   3.215   3.320   8.048 -0.0363 -0.2212 -0.3713
  418COC    COC  418   2.988   3.111   8.102  0.2064  0.2674  0.0324
  419COC    COC  419   2.910   3.209   8.395  0.0487 -0.1135  0.2003
  420COC    COC  420   2.680   3.360   8.340  0.0689  0.0570 -0.3881
  421COC    COC  421   2.586   3.362   8.079  0.3619 -0.1618 -0.0028
  422COC    COC  422   2.289   3.286   8.005 -0.0054  0.1756 -0.1660
  423COC    COC  423   2.054   3.480   7.899 -0.6097 -0.0015 -0.0299
  424COC    COC  424   2.068   3.461   7.588 -0.4035  0.0684  0.1485
  425COC    COC  425   2.022   3.159   7.463  0.1412  0.4242  0.2491
  426COC    COC  426   2.054   2.966   7.244 -0.1544  0.1026  0.1241
  427COC    COC  427   2.003   2.661   7.351 -0.2349 -0.1074 -0.0431
  428COC    COC  428   1.724   2.517   7.311  0.2128 -0.4350  0.2368
  429COC    COC  429   1.563   2.741   7.195  0.5310 -0.0834 -0.2723
  430COC    COC  430   1.603   3.045   7.291 -0.1149 -0.2009 -0.0346
  431COC    COC  431   1.758   3.258   7.094 -0.0801  0.1020  0.0236
  432COC    COC  432   1.652   3.282   6.795  0.1825  0.0347 -0.0706
  433COC    COC  433   1.395   3.426   6.729  0.0307 -0.5730  0.1091
  434COC    COC  434   1.515   3.585   6.495  0.2300  0.1192 -0.2567
  435COC    COC  435   1.475   3.368   6.292 -0.3415 -0.1634  0.0787
  436COC    COC  436   1.592   3.108   6.435  0.0788  0.2895  0.1624
  437COC    COC  437   1.542   2.821   6.545 -0.2564 -0.2050 -0.1755
  438COC    COC  438   1.322   2.646   6.589  0.2010 -0.1992  0.1454
  439COC    COC  439   1.201   2.576   6.850  0.2766  0.2370 -0.2363
  440COC    COC  440   1.012   2.665   7.060 -0.3706 -0.3401 -0.2222
  441COC    COC  441   0.684   2.659   7.036 -0.2771 -0.3449 -0.3855
  442COC    COC  442   0.376   2.570   7.082  0.4349 -0.0762  0.0445
  443COC    COC  443   0.375   2.281   7.129 -0.0784  0.1067 -0.2417
  444COC    COC  444   0.290   2.093   6.891  0.0525 -0.2299 -0.3433
  445COC    COC  445  10.329   2.101   6.901  0.4630  0.1112  0.2225
  446COC    COC  446  10.259   2.032   7.196 -0.4396  0.0061 -0.1430
  447COC    COC  447  10.096   1.821   7.291  0.0726 -0.3223  0.1001
  448COC    COC  448  10.097   1.601   7.493  0.6565  0.2132 -0.1541
  449COC    COC  449  10.297   1.529   7.679 -0.5049  0.0389  0.0908
  450COC    COC  450   0.093   1.303   7.519 -0.2203  0.3807 -0.1835
  451COC    COC  451   0.248   1.084   7.682 -0.0596  0.1565 -0.0977
  452COC    COC  452   0.231   0.916   7.933 -0.0808 -0.0131 -0.2813
  453COC    COC  453  10.337   0.719   8.000 -0.0851 -0.2279  0.2398
  454COC    COC  454   0.063   0.443   8.001  0.2063  0.1187  0.1401
  455COC    COC  455  10.324   0.132   8.026 -0.1126  0.0132 -0.0323
  456COC    COC  456  10.264   0.222   8.344 -0.2018  0.3253  0.1001
  457COC    COC  457  10.249   0.521   8.408 -0.0501 -0.3789  0.2665
  458COC    COC  458  10.049   0.691   8.580 -0.0795 -0.1347 -0.0418
  459COC    COC  459   9.968   0.834   8.837  0.1191 -0.0701 -0.1096
  460COH    COH  460  10.135   0.705   9.021 -0.2203  0.1489 -0.0478
  461COH    COH  461   4.980   6.386   4.671 -0.0211 -0.0235  0.1269
  462COC    COC  462   4.728   6.277   4.761  0.2796 -0.1832 -0.1689
  463COC    COC  463   4.608   6.108   4.540 -0.3413  0.0446 -0.1752
  464COC    COC  464   4.345   6.000   4.588 -0.1120  0.3162 -0.1823
  465COC    COC  465   4.212   5.873   4.818  0.0778 -0.0403 -0.1079
  466COC    COC  466   3.892   5.826   4.763 -0.0054  0.3138  0.0189
  467COC    COC  467   3.893   5.643   4.554  0.1535 -0.2676  0.2000
  468COC    COC  468   3.790   5.399   4.444  0.0496 -0.0604 -0.1973
  469COC    COC  469   4.011   5.204   4.397  0.0618 -0.2131 -0.0312
  470COC    COC  470   4.144   5.417   4.200 -0.3183 -0.1882  0.1893
  471COC    COC  471   4.325   5.621   4.359 -0.1090 -0.1412 -0.3271
  472COC    COC  472   4.592   5.601   4.437 -0.3466  0.0009 -0.0880
  473COC    COC  473   4.824   5.740   4.310  0.0920 -0.2738 -0.1740
  474COC    COC  474   5.054   5.867   4.509 -0.0454  0.1520  0.5133
  475COC    COC  475   4.985   5.984   4.738  0.1685 -0.1326 -0.3860
  476COC    COC  476   5.082   5.802   4.995 -0.1065 -0.2158 -0.4943
  477COC    COC  477   5.254   5.577   5.050 -0.2463 -0.0204 -0.0018
  478COC    COC  478   5.223   5.281   5.196 -0.0412 -0.1502 -0.2223
  479COC    COC  479   5.211   5.288   5.505 -0.3970  0.3306 -0.4575
  480COC    COC  480   5.270   5.074   5.756  0.1589  0.3458  0.1277
  481COC    COC  481   5.281   4.771   5.716  0.4793  0.2465  0.3893
  482COC    COC  482   5.447   4.525   5.638 -0.1463 -0.0495  0.0134
  483COC    COC  483   5.778   4.502   5.649  0.1612 -0.0265  0.2062
  484COC    COC  484   5.786   4.549   5.367 -0.0721 -0.7872 -0.1567
  485COC    COC  485   5.574   4.462   5.149 -0.3049  0.0477 -0.7554
  486COC    COC  486   5.302   4.324   5.150 -0.1485 -0.4236 -0.1248
  487COC    COC  487   5.074   4.541   5.260  0.1288 -0.0543  0.0937
  488COC    COC  488   5.000   4.812   5.116 -0.1380 -0.0915 -0.0812
  489COC    COC  489   5.066   4.982   4.860 -0.1036 -0.0272 -0.1469
  490COC    COC  490   5.022   4.878   4.564  0.2295  0.4053 -0.0672
  491COC    COC  491   5.030   5.109   4.399 -0.1347 -0.2352  0.1264
  492COC    COC  492   5.250   5.047   4.225  0.4250 -0.2288  0.0600
  493COC    COC  493   5.496   5.049   4.332 -0.3746 -0.1229 -0.0932
  494COC    COC  494   5.465   4.941   4.628  0.2748 -0.3629 -0.1739
  495COC    COC  495   5.465   4.631   4.780  0.1642  0.1151  0.2911
  496COC    COC  496   5.689   4.490   4.651 -0.0153  0.1183  0.2230
  497COC    COC  497   5.617   4.202   4.761  0.0659  0.1036  0.1440
  498COC    COC  498   5.339   4.171   4.680 -0.2030 -0.2354  0.1467
  499COC    COC  499   5.288   3.933   4.459  0.4779  0.1700  0.1843
  500COC    COC  500   5.254   3.842   4.167 -0.4794 -0.3026  0.0230
  501COC    COC  501   5.110   3.765   3.902 -0.2527 -0.0551 -0.0207
  502COC    COC  502   4.932   3.590   3.698  0.1748 -0.1713 -0.1341
  503COC    COC  503   4.979   3.294   3.702  0.0246 -0.1892 -0.3866
  504COC    COC  504   5.147   3.022   3.687 -0.1720  0.1525 -0.0999
  505COC    COC  505   5.291   3.117   3.430  0.3204 -0.3108 -0.1128
  506COH    COH  506   5.324   2.930   3.300 -0.0380  0.2949  0.3035
  507COH    COH  507   7.083   8.559   9.582  0.0848 -0.4432  0.1538
  508COC    COC  508   7.060   8.539   9.855  0.4464 -0.0997 -0.1878
  509COC    COC  509   6.821   8.746   9.833 -0.3189 -0.0477 -0.0314
  510COC    COC  510   6.551   8.728   9.679 -0.0303  0.2530 -0.3189
  511COC    COC  511   6.313   8.704   9.891  0.1038  0.0696  0.3220
  512COC    COC  512   6.254   8.903  10.076  0.2101  0.0502 -0.3024
  513COC    COC  513   6.415   9.163   9.996  0.2114  0.2694  0.0396
  514COC    COC  514   6.206   9.361   9.923 -0.3023  0.2602  0.2104
  515COC    COC  515   6.003   9.367   9.671 -0.1344 -0.0048 -0.0666
  516COC    COC  516   5.961   9.274   9.418 -0.0655  0.1049  0.2388
  517COC    COC  517   5.985   8.983   9.266  0.6027 -0.1903  0.1929
  518COC    COC  518   6.263   8.855   9.274  0.3392  0.2101  0.3639
  519COC    COC  519   6.328   8.578   9.122  0.1908 -0.0641  0.2445
  520COC    COC  520   6.624   8.494   9.125 -0.1651  0.1785  0.3444
  521COC    COC  521   6.708   8.264   9.042 -0.0277  0.3338  0.0574
  522COC    COC  522   6.927   8.188   8.884 -0.2174 -0.0148 -0.0472
  523COC    COC  523   6.944   8.202   8.582  0.0451  0.3704 -0.0664
  524COC    COC  524   7.168   8.341   8.405  0.0605 -0.3062  0.3199
  525COC    COC  525   7.073   8.455   8.178 -0.3319 -0.0718 -0.0523
  526COC    COC  526   7.191   8.744   8.162 -0.4356  0.0484 -0.1371
  527COC    COC  527   7.448   8.871   8.023 -0.1072  0.5082  0.1377
  528COC    COC  528   7.284   8.926   7.800  0.1462 -0.1277 -0.1029
  529COC    COC  529   7.058   8.720   7.756  0.1870 -0.1022 -0.0706
  530COC    COC  530   6.790   8.790   7.663  0.2960  0.2195 -0.3679
  531COC    COC  531   6.698   9.054   7.610 -0.1246 -0.3153  0.3621
  532COC    COC  532   6.670   8.986   7.302  0.1132 -0.1474 -0.0344
  533COC    COC  533   6.552   8.770   7.164  0.0167 -0.1288 -0.2047
  534COC    COC  534   6.368   8.789   6.945  0.1827  0.0094 -0.1486
  535COC    COC  535   6.508   8.907   6.690  0.2805 -0.1683 -0.2511
  536COC    COC  536   6.592   9.177   6.583 -0.1419 -0.0492 -0.5570
  537COC    COC  537   6.387   9.376   6.510 -0.0427  0.0216 -0.3918
  538COC    COC  538   6.511   9.667   6.557 -0.1867  0.3040  0.0947
  539COC    COC  539   6.853   9.664   6.654 -0.0806  0.6274  0.1063
  540COC    COC  540   7.005   9.936   6.651 -0.0952 -0.3033 -0.1030
  541COC    COC  541   6.996  10.152   6.435  0.0335 -0.0191 -0.0052
  542COC    COC  542   7.038   0.042   6.616 -0.0406  0.3228  0.1720
  543COC    COC  543   7.154   0.336   6.466  0.1972  0.2621  0.0013
  544COC    COC  544   6.869   0.424   6.420  0.1351 -0.1412  0.1083
  545COC    COC  545   6.834   0.649   6.180 -0.2647 -0.0447  0.2889
  546COC    COC  546   6.649   0.472   5.973  0.1348 -0.1610 -0.0971
  547COC    COC  547   6.427   0.571   5.801 -0.3778 -0.1419 -0.3721
  548COC    COC  548   6.341   0.857   5.864  0.1089  0.1073  0.0587
  549COC    COC  549   6.374   0.974   5.591  0.2563  0.0994  0.1427
  550COC    COC  550   6.265   0.864   5.358  0.1719  0.2536 -0.1623
  551COC    COC  551   6.459   0.675   5.197 -0.2569 -0.1426 -0.6431
  552COH    COH  552   6.664   0.720   5.409 -0.1353  0.0661 -0.0495
  553COH    COH  553   5.352   0.623   0.377 -0.0013 -0.0510 -0.0767
  554COC    COC  554   5.601   0.543   0.413  0.1031  0.1519  0.1066
  555COC    COC  555   5.570   0.468   0.732 -0.0015  0.0408  0.3709
  556COC    COC  556   5.623   0.661   0.947  0.0146 -0.3440 -0.2636
  557COC    COC  557   5.540   0.704   1.227 -0.1567 -0.1411 -0.0058
  558COC    COC  558   5.241   0.764   1.351  0.0309  0.1756  0.1733
  559COC    COC  559   5.065   0.509   1.355  0.1098  0.0102  0.0341
  560COC    COC  560   4.851   0.409   1.151 -0.1600  0.5273  0.0123
  561COC    COC  561   4.674   0.197   1.335 -0.4246  0.2058 -0.1529
  562COC    COC  562   4.406   0.176   1.167  0.5200 -0.4365  0.2525
  563COC    COC  563   4.214   0.281   0.952 -0.3513 -0.1311 -0.0307
  564COC    COC  564   3.975   0.119   0.896  0.0109 -0.0427  0.1290
  565COC    COC  565   3.751   0.117   0.704 -0.0327  0.4561  0.1360
  566COC    COC  566   3.718   0.366   0.527 -0.0158 -0.0285  0.3072
  567COC    COC  567   3.855   0.264   0.299 -0.4575 -0.2902  0.2536
  568COC    COC  568   4.052   0.401   0.080 -0.0581 -0.4312 -0.3111
  569COC    COC  569   4.367   0.370   0.065  0.0792  0.0494  0.0260
  570COC    COC  570   4.657   0.297   0.159 -0.0367 -0.0366 -0.2599
  571COC    COC  571   4.833   0.450   0.378  0.1107 -0.3914 -0.1872
  572COC    COC  572   4.861   0.433   0.652 -0.1446  0.0318  0.0199
  573COC    COC  573   5.136   0.396   0.682  0.0674 -0.2754 -0.4860
  574COC    COC  574   5.281   0.158   0.577  0.1669  0.0055  0.3423
  575COC    COC  575   5.244   0.269   0.288  0.1677 -0.4006 -0.0456
  576COC    COC  576   5.192   0.345   0.019  0.1874 -0.3941  0.2332
  577COC    COC  577   4.965   0.144  10.321 -0.3279 -0.1451 -0.1141
  578COC    COC  578   5.163  10.273  10.258 -0.0091  0.2033  0.1033
  579COC    COC  579   5.242  10.191   0.203 -0.2940 -0.4662  0.1533
  580COC    COC  580   5.440  10.055   0.361  0.3683  0.2663 -0.0987
  581COC    COC  581   5.742  10.004   0.321  0.0929 -0.0862  0.0581
  582COC    COC  582   5.908   9.986   0.596 -0.1954 -0.0723 -0.2793
  583COC    COC  583   5.955   9.682   0.643 -0.5230 -0.1994  0.5630
  584COC    COC  584   5.994   9.457   0.430 -0.2443 -0.1083 -0.2929
  585COC    COC  585   5.854   9.229   0.589 -0.2175 -0.1158  0.0548
  586COC    COC  586   5.934   8.924   0.627 -0.1124 -0.3572 -0.0072
  587COC    COC  587   5.975   8.860   0.939  0.0812  0.1951 -0.2431
  588COC    COC  588   5.732   8.672   0.992 -0.3058 -0.3770 -0.2964
  589COC    COC  589   5.779   8.433   1.184 -0.1657  0.1102  0.1065
  590COC    COC  590   5.894   8.516   1.385  0.1108 -0.2424 -0.1480
  591COC    COC  591   5.676   8.642   1.531 -0.1428  0.1788 -0.2695
  592COC    COC  592   5.672   8.887   1.744 -0.0419 -0.2003  0.0342
  593COC    COC  593   5.677   9.199   1.671 -0.3093  0.1607 -0.0929
  594COC    COC  594   5.560   9.465   1.647 -0.1765 -0.0196  0.2813
  595COC    COC  595   5.463   9.484   1.346 -0.0079 -0.0629 -0.0212
  596COC    COC  596   5.183   9.383   1.352  0.0868  0.2784 -0.1696
  597COC    COC  597   5.117   9.379   1.646  0.0086  0.0801  0.0325
  598COH    COH  598   4.907   9.348   1.839 -0.3359 -0.1087  0.1611
  599COH    COH  599   0.734   7.305   6.683  0.0514 -0.2041  0.1229
  600COC    COC  600   0.810   7.043   6.598  0.2949 -0.2405 -0.2271
  601COC    COC  601   1.137   7.096   6.528  0.1818 -0.1012 -0.1604
  602COC    COC  602   1.125   7.382   6.505  0.1595 -0.1298  0.0228
  603COC    COC  603   0.932   7.567   6.366  0.3517 -0.2299  0.1090
  604COC    COC  604   0.710   7.706   6.506 -0.2215 -0.0142 -0.1190
  605COC    COC  605   0.618   7.960   6.478 -0.2200 -0.2137  0.0255
  606COC    COC  606   0.511   8.105   6.697 -0.1006 -0.1461  0.4070
  607COC    COC  607   0.304   8.307   6.766  0.1647  0.0085  0.2532
  608COC    COC  608   0.152   8.518   6.558 -0.1260 -0.0239 -0.4004
  609COC    COC  609  10.323   8.527   6.329 -0.1575  0.2462  0.0526
  610COC    COC  610   0.123   8.498   6.059  0.2501 -0.3647 -0.2107
  611COC    COC  611   0.266   8.254   5.943  0.0647 -0.2535  0.0631
  612COC    COC  612   0.192   7.964   5.838  0.0275 -0.3917  0.0951
  613COC    COC  613   0.113   7.697   6.031 -0.1145 -0.1691 -0.2657
  614COC    COC  614   0.347   7.570   6.157  0.2349  0.1002  0.2067
  615COC    COC  615   0.635   7.615   6.047  0.0986 -0.1453  0.0211
  616COC    COC  616   0.895   7.719   5.940  0.2428 -0.3003 -0.1733
  617COC    COC  617   0.906   7.904   5.681  0.1068  0.7018 -0.3284
  618COC    COC  618   0.923   7.783   5.399  0.0716  0.1496  0.0419
  619COC    COC  619   1.241   7.857   5.311  0.2938 -0.0231 -0.0199
  620COC    COC  620   1.406   7.615   5.276 -0.1304 -0.1395 -0.2443
  621COC    COC  621   1.639   7.440   5.426  0.0768 -0.2986  0.1673
  622COC    COC  622   1.784   7.166   5.380  0.2391 -0.1211 -0.1345
  623COC    COC  623   1.638   6.936   5.469  0.0289  0.3369 -0.0870
  624COC    COC  624   1.425   6.713   5.558  0.0047 -0.4381 -0.3675
  625COC    COC  625   1.127   6.577   5.483 -0.3634  0.0634 -0.0405
  626COC    COC  626   0.919   6.722   5.387  0.3811  0.0376  0.1683
  627COC    COC  627   0.709   6.821   5.533 -0.3471 -0.3433 -0.0962
  628COC    COC  628   0.583   7.055   5.367  0.4697 -0.2165 -0.0316
  629COC    COC  629   0.330   7.084   5.542  0.2367 -0.2090  0.0848
  630COC    COC  630   0.086   6.899   5.557  0.1571  0.1035 -0.0639
  631COC    COC  631   0.005   6.726   5.809 -0.4882 -0.2361 -0.1659
  632COC    COC  632  10.079   6.824   5.892  0.1807  0.0518  0.0949
  633COC    COC  633   9.838   6.637   5.941  0.1957  0.0392  0.0395
  634COC    COC  634   9.659   6.656   6.171  0.1907  0.2352 -0.1997
  635COC    COC  635   9.381   6.806   6.249 -0.2787  0.5970 -0.0972
  636COC    COC  636   9.265   6.814   6.533  0.0314  0.2456 -0.4772
  637COC    COC  637   9.079   6.954   6.713  0.2000 -0.3272 -0.0918
  638COC    COC  638   9.044   7.029   7.024 -0.1647  0.1769  0.0044
  639COC    COC  639   9.028   6.768   7.134 -0.0100 -0.2505 -0.2049
  640COC    COC  640   8.842   6.576   7.019 -0.2529 -0.2924  0.0773
  641COC    COC  641   8.822   6.551   6.729  0.0826 -0.1753  0.0110
  642COC    COC  642   9.034   6.470   6.583  0.3331  0.1017  0.4591
  643COC    COC  643   9.348   6.386   6.531  0.2580  0.0614  0.0719
  644COH    COH  644   9.373   6.179   6.655 -0.1827 -0.0303 -0.3371
  645COH    COH  645   9.516   8.804   1.439 -0.4039 -0.3313 -0.4727
  646COC    COC  646   9.772   8.779   1.354 -0.0290  0.3921  0.0759
  647COC    COC  647   9.882   8.519   1.213  0.0930 -0.0201 -0.0146
  648COC    COC  648   9.801   8.359   0.980  0.0088  0.2209 -0.1539
  649COC    COC  649   9.726   8.100   0.831  0.0378  0.4784  0.0642
  650COC    COC  650   9.712   7.788   0.892 -0.0872  0.2385 -0.3483
  651COC    COC  651   9.665   7.488   1.000  0.3391 -0.2361 -0.0616
  652COC    COC  652   9.690   7.276   0.814  0.0046  0.3802  0.0063
  653COC    COC  653   9.871   7.052   0.850  0.2237 -0.0381 -0.1634
  654COC    COC  654  10.064   7.090   1.079  0.2121  0.0242  0.0782
  655COC    COC  655  10.112   6.880   1.292 -0.0197  0.0046  0.2018
  656COC    COC  656  10.025   6.640   1.139  0.0781  0.2995  0.2541
  657COC    COC  657  10.206   6.641   0.914 -0.2199 -0.4085  0.1566
  658COC    COC  658   0.020   6.394   0.923 -0.0103  0.0435 -0.1576
  659COC    COC  659  10.217   6.129   0.882  0.5109  0.0659 -0.1150
  660COC    COC  660  10.139   6.234   0.597  0.1781  0.2165 -0.1736
  661COC    COC  661  10.014   6.326   0.371 -0.0114 -0.2404 -0.1308
  662COC    COC  662   9.715   6.307   0.349  0.0103  0.2936  0.0101
  663COC    COC  663   9.521   6.533   0.434 -0.0805 -0.4897  0.0361
  664COC    COC  664   9.619   6.767   0.641  0.1109  0.5514  0.2051
  665COC    COC  665   9.657   7.016   0.474  0.0007  0.2613 -0.1547
  666COC    COC  666   9.742   7.013   0.199  0.1434 -0.0829 -0.1430
  667COC    COC  667   9.573   6.785   0.013  0.3575 -0.3004  0.4835
  668COC    COC  668   9.787   6.619   0.018 -0.4515  0.2849 -0.0475
  669COC    COC  669  10.087   6.671   0.047 -0.2779 -0.2019  0.0591
  670COC    COC  670  10.104   6.968   0.017 -0.2456  0.1109  0.0874
  671COC    COC  671  10.132   7.148   0.255 -0.0461  0.0385 -0.2982
  672COC    COC  672  10.314   7.421   0.196  0.2471 -0.1377 -0.6488
  673COC    COC  673  10.151   7.676   0.262 -0.0076 -0.0020  0.1392
  674COC    COC  674   9.910   7.873   0.172 -0.0328  0.1563  0.0732
  675COC    COC  675   9.733   7.803  10.266 -0.0899 -0.0074 -0.0556
  676COC    COC  676   9.658   7.658  10.011 -0.0775  0.4125 -0.3764
  677COC    COC  677   9.679   7.817   9.760 -0.1631  0.2421 -0.0976
  678COC    COC  678   9.460   7.857   9.560 -0.0100 -0.2547 -0.0011
  679COC    COC  679   9.449   8.091   9.356 -0.2534 -0.5435 -0.0651
  680COC    COC  680   9.605   8.115   9.081 -0.3345  0.0412  0.2960
  681COC    COC  681   9.917   8.118   9.059 -0.1491  0.0317 -0.2408
  682COC    COC  682   9.958   8.000   8.807 -0.1821  0.0617 -0.0114
  683COC    COC  683  10.043   7.677   8.842 -0.0386 -0.0135 -0.0289
  684COC    COC  684   9.873   7.417   8.916  0.3317  0.0416  0.0207
  685COC    COC  685   9.705   7.309   8.688 -0.1187  0.0523 -0.2551
  686COC    COC  686   9.852   7.195   8.490  0.0240  0.0260 -0.3517
  687COC    COC  687   9.752   7.011   8.236  0.5507  0.1283 -0.1935
  688COC    COC  688   9.451   6.887   8.302  0.0876  0.0313  0.0374
  689COC    COC  689   9.452   6.611   8.186  0.0618 -0.2479 -0.3827
  690COH    COH  690   9.505   6.682   7.932  0.0498 -0.0527 -0.1044
  691COH    COH  691   3.361   8.397   9.484 -0.0782  0.2220  0.7977
  692COC    COC  692   3.532   8.219   9.314 -0.1257 -0.3036 -0.1718
  693COC    COC  693   3.843   8.187   9.279 -0.0313  0.6672 -0.2482
  694COC    COC  694   4.055   7.973   9.263  0.2136  0.0923  0.3616
  695COC    COC  695   4.299   8.090   9.196  0.0962 -0.3881 -0.3811
  696COC    COC  696   4.557   8.188   9.329  0.0979 -0.2236  0.0066
  697COC    COC  697   4.695   8.372   9.119 -0.2761  0.0582 -0.4004
  698COC    COC  698   4.586   8.661   9.111 -0.0468 -0.1135 -0.2241
  699COC    COC  699   4.872   8.809   9.155  0.2882  0.3340  0.0851
  700COC    COC  700   4.936   8.928   8.874  0.0276  0.4391  0.1433
  701COC    COC  701   4.781   9.121   8.714  0.0134 -0.3278 -0.1027
  702COC    COC  702   4.925   9.296   8.520  0.1905  0.1631  0.2582
  703COC    COC  703   5.214   9.355   8.487 -0.0019 -0.0893 -0.1789
  704COC    COC  704   5.344   9.116   8.607 -0.2125  0.4606 -0.2805
  705COC    COC  705   5.477   8.942   8.390 -0.0289 -0.1027 -0.1956
  706COC    COC  706   5.763   8.777   8.306  0.1620 -0.2885 -0.0792
  707COC    COC  707   6.005   8.976   8.400  0.0326  0.0769 -0.0646
  708COC    COC  708   6.322   8.970   8.363 -0.0477  0.0262 -0.1630
  709COC    COC  709   6.585   8.858   8.565 -0.0186 -0.2860 -0.4569
  710COC    COC  710   6.788   8.718   8.374  0.3245 -0.1221 -0.3239
  711COC    COC  711   6.804   8.865   8.152  0.0331 -0.3099 -0.2108
  712COC    COC  712   6.548   8.906   8.013 -0.2982 -0.1082  0.4311
  713COC    COC  713   6.431   9.144   7.916 -0.0136  0.1966  0.2509
  714COC    COC  714   6.211   9.284   8.096 -0.0002  0.2228 -0.2325
  715COC    COC  715   6.202   9.357   8.407  0.1511  0.2451 -0.0288
  716COC    COC  716   6.187   9.620   8.507 -0.3429 -0.0713 -0.1018
  717COC    COC  717   6.337   9.813   8.330 -0.2464 -0.3454 -0.0825
  718COC    COC  718   6.508   9.663   8.168 -0.1731 -0.0795 -0.6885
  719COC    COC  719   6.664   9.741   7.933 -0.5003 -0.2099  0.4168
  720COC    COC  720   6.770   9.452   7.827 -0.1052  0.3305 -0.1597
  721COC    COC  721   6.963   9.238   7.867  0.1417  0.3234  0.2655
  722COC    COC  722   7.193   9.355   8.003 -0.0967 -0.1464 -0.4099
  723COC    COC  723   7.476   9.324   7.906  0.0952 -0.2470  0.3989
  724COC    COC  724   7.677   9.169   7.756  0.3088  0.2390  0.1352
  725COC    COC  725   7.623   9.234   7.451  0.7532  0.0877 -0.0302
  726COC    COC  726   7.768   9.389   7.237  0.2078  0.1301  0.1223
  727COC    COC  727   7.940   9.231   7.027 -0.0234  0.0774  0.3427
  728COC    COC  728   8.172   9.030   7.078  0.1125 -0.1063  0.1872
  729COC    COC  729   8.168   8.705   7.021 -0.1430 -0.3303  0.3372
  730COC    COC  730   8.374   8.529   6.905  0.0328 -0.0599  0.1872
  731COC    COC  731   8.644   8.635   6.823  0.0554 -0.0341  0.2665
  732COC    COC  732   8.738   8.471   6.557  0.0184 -0.1787 -0.0300
  733COC    COC  733   8.842   8.193   6.538  0.3824  0.0762 -0.1888
  734COC    COC  734   9.064   8.092   6.343 -0.0506 -0.3898 -0.1783
  735COC    COC  735   9.170   7.786   6.314  0.2185 -0.1532  0.1264
  736COH    COH  736   9.004   7.572   6.395  0.2554 -0.1328  0.2378
  737COH    COH  737   0.093   6.429   6.557 -0.5510  0.0497 -0.0507
  738COC    COC  738   0.320   6.434   6.729  0.2804  0.3025 -0.0480
  739COC    COC  739   0.442   6.686   6.880 -0.0062  0.3164 -0.0308
  740COC    COC  740   0.698   6.608   6.926 -0.2700  0.3493  0.2151
  741COC    COC  741   0.804   6.347   6.810 -0.0986 -0.0938 -0.3661
  742COC    COC  742   0.602   6.117   6.740 -0.1959 -0.0514 -0.1460
  743COC    COC  743   0.726   5.841   6.715  0.1888  0.0848  0.1524
  744COC    COC  744   0.958   5.796   6.561  0.1552  0.5263 -0.0192
  745COC    COC  745   0.892   5.596   6.355  0.2380 -0.1943  0.2175
  746COC    COC  746   0.568   5.533   6.402  0.1560  0.1249 -0.2192
  747COC    COC  747   0.304   5.681   6.495  0.3411 -0.0441 -0.0326
  748COC    COC  748   0.233   5.975   6.571 -0.2926 -0.3922  0.1922
  749COC    COC  749  10.324   6.040   6.362  0.2424 -0.1432 -0.0966
  750COC    COC  750  10.189   6.273   6.217 -0.1988 -0.2458  0.1319
  751COC    COC  751  10.241   6.356   5.962 -0.0149 -0.2385  0.0988
  752COC    COC  752   9.995   6.286   5.775  0.1556  0.1113 -0.4127
  753COC    COC  753   9.708   6.278   5.642 -0.1985 -0.0758 -0.0358
  754COC    COC  754   9.683   6.506   5.471 -0.3667 -0.0931  0.3552
  755COC    COC  755   9.713   6.421   5.203  0.0060  0.0409 -0.4439
  756COC    COC  756   9.644   6.547   4.885  0.1502 -0.1161  0.1905
  757COC    COC  757   9.649   6.867   4.810  0.1764  0.0132 -0.2364
  758COC    COC  758   9.495   7.051   4.606 -0.0367  0.1864  0.0875
  759COC    COC  759   9.232   7.031   4.417 -0.0993 -0.0353  0.3066
  760COC    COC  760   9.079   7.243   4.303 -0.3806  0.2632  0.4199
  761COC    COC  761   8.933   7.137   4.058  0.3940  0.1451  0.1864
  762COC    COC  762   8.754   6.992   3.835 -0.0437 -0.2397  0.0217
  763COC    COC  763   8.607   6.761   3.936 -0.0944  0.2145 -0.0808
  764COC    COC  764   8.559   6.697   4.223  0.5026  0.2824 -0.0656
  765COC    COC  765   8.631   6.453   4.375 -0.1054 -0.1270 -0.0415
  766COC    COC  766   8.382   6.358   4.544  0.2028  0.1471 -0.3099
  767COC    COC  767   8.189   6.123   4.501  0.0487 -0.0473 -0.0771
  768COC    COC  768   8.127   5.955   4.263 -0.5528  0.1169  0.0753
  769COC    COC  769   7.945   5.742   4.290 -0.1006  0.1289 -0.3885
  770COC    COC  770   8.158   5.497   4.312 -0.1620  0.0060  0.0404
  771COC    COC  771   8.160   5.401   4.580  0.5625 -0.0590 -0.3411
  772COC    COC  772   8.171   5.690   4.717 -0.2483 -0.0962  0.2556
  773COC    COC  773   8.421   5.885   4.799  0.0922  0.1223 -0.3864
  774COC    COC  774   8.483   5.947   5.091 -0.1892 -0.5072  0.2783
  775COC    COC  775   8.544   6.119   5.328  0.0680  0.1498 -0.1260
  776COC    COC  776   8.501   6.153   5.630  0.2136 -0.0641  0.0236
  777COC    COC  777   8.552   5.945   5.835 -0.2110 -0.1865 -0.0697
  778COC    COC  778   8.759   5.898   6.032 -0.0495 -0.0793 -0.1656
  779COC    COC  779   9.026   5.716   6.046  0.0891 -0.2948 -0.0875
  780COC    COC  780   9.175   5.902   5.902  0.3296 -0.1385  0.3619
  781COC    COC  781   9.372   6.136   5.974 -0.1091  0.1741 -0.0275
  782COH    COH  782   9.472   6.241   6.199  0.4440 -0.7974 -0.1529
  783COH    COH  783   4.617   9.234   5.808  0.5680 -0.5921 -0.0575
  784COC    COC  784   4.767   9.072   5.966 -0.3376  0.5292  0.2896
  785COC    COC  785   4.771   8.918   5.676  0.1646 -0.0040  0.2639
  786COC    COC  786   4.473   8.809   5.683 -0.5050 -0.5156  0.1148
  787COC    COC  787   4.288   9.035   5.805  0.2395 -0.3171 -0.1009
  788COC    COC  788   4.044   9.083   5.990 -0.1018 -0.0043  0.1291
  789COC    COC  789   3.785   9.205   5.945 -0.2531  0.1791 -0.2463
  790COC    COC  790   3.551   9.020   5.933  0.2355  0.2638  0.1064
  791COC    COC  791   3.323   9.084   5.742 -0.2941 -0.2603 -0.3952
  792COC    COC  792   3.309   8.795   5.646  0.5082  0.1017 -0.2730
  793COC    COC  793   3.472   8.643   5.841  0.1052 -0.5375  0.1870
  794COC    COC  794   3.775   8.527   5.868  0.2436 -0.1815 -0.2813
  795COC    COC  795   4.104   8.642   5.838 -0.1578 -0.0383  0.2441
  796COC    COC  796   4.339   8.413   5.917 -0.1229 -0.2151 -0.0681
  797COC    COC  797   4.507   8.365   6.156  0.1476 -0.2194 -0.1716
  798COC    COC  798   4.297   8.291   6.391  0.0471  0.1816 -0.1001
  799COC    COC  799   4.460   8.329   6.630  0.2495 -0.0288  0.2780
  800COC    COC  800   4.292   8.445   6.870 -0.5393 -0.1012  0.3630
  801COC    COC  801   4.373   8.765   6.828 -0.0649 -0.2870  0.2216
  802COC    COC  802   4.678   8.748   6.934  0.1368 -0.0382  0.1541
  803COC    COC  803   4.796   8.743   7.213 -0.0187  0.1906 -0.3403
  804COC    COC  804   5.082   8.617   7.187 -0.2147  0.5811 -0.0690
  805COC    COC  805   5.102   8.338   7.054  0.1687 -0.0757 -0.1535
  806COC    COC  806   5.060   8.088   7.240  0.0630  0.0472  0.0549
  807COC    COC  807   4.817   7.896   7.218  0.1055  0.1099 -0.0616
  808COC    COC  808   4.656   7.836   7.483  0.1370 -0.2542  0.2020
  809COC    COC  809   4.525   8.124   7.526  0.1303  0.3528 -0.0983
  810COC    COC  810   4.228   8.044   7.474  0.0354  0.2508 -0.0785
  811COC    COC  811   4.132   7.782   7.403  0.2379  0.1878  0.1821
  812COC    COC  812   3.925   7.674   7.572  0.1116  0.0916 -0.1319
  813COC    COC  813   4.106   7.543   7.771  0.2097 -0.0031 -0.3206
  814COC    COC  814   4.206   7.266   7.820 -0.0302 -0.3412  0.2893
  815COC    COC  815   4.105   7.133   7.557 -0.0775 -0.2411  0.0546
  816COC    COC  816   4.137   6.838   7.477  0.0808  0.0724  0.0231
  817COC    COC  817   3.952   6.590   7.484  0.1740  0.4809  0.0487
  818COC    COC  818   4.076   6.311   7.470  0.0329  0.1336  0.1572
  819COC    COC  819   3.955   6.061   7.606 -0.1403  0.2986  0.0072
  820COC    COC  820   4.048   5.752   7.581 -0.1348 -0.1903 -0.0795
  821COC    COC  821   4.296   5.562   7.614  0.0826  0.0996  0.0949
  822COC    COC  822   4.228   5.286   7.701  0.1816 -0.2164  0.0802
  823COC    COC  823   4.366   5.181   7.437  0.1497  0.2436 -0.2328
  824COC    COC  824   4.334   4.963   7.195  0.1740 -0.0547  0.0898
  825COC    COC  825   4.549   4.763   7.129  0.1456 -0.4613  0.2635
  826COC    COC  826   4.501   4.513   7.283 -0.2245  0.0406 -0.0638
  827COC    COC  827   4.716   4.342   7.271 -0.3577 -0.3435 -0.0271
  828COH    COH  828   4.713   4.184   7.482  0.2096  0.1461 -0.2155
  829COH    COH  829   9.489   0.486   1.552 -0.0524  0.1439 -0.2111
  830COC    COC  830   9.730   0.392   1.492  0.0589 -0.2546  0.0379
  831COC    COC  831   9.767   0.280   1.741  0.0270 -0.2284 -0.1077
  832COC    COC  832   9.542   0.177   1.914 -0.2561  0.1769 -0.0977
  833COC    COC  833   9.402   0.410   2.071 -0.2544  0.0491 -0.4747
  834COC    COC  834   9.541   0.536   2.307 -0.0361 -0.1496 -0.2698
  835COC    COC  835   9.673   0.297   2.470  0.1369 -0.0953 -0.3879
  836COC    COC  836   9.625  10.322   2.478 -0.6505 -0.2301  0.3303
  837COC    COC  837   9.453  10.196   2.702  0.1668  0.0791 -0.0840
  838COC    COC  838   9.418   0.009   2.955 -0.0198  0.0945 -0.2018
  839COC    COC  839   9.442   0.270   2.811  0.0069 -0.3601 -0.1138
  840COC    COC  840   9.315   0.493   3.007  0.0504 -0.0256  0.0147
  841COC    COC  841   9.059   0.559   3.137  0.1392  0.2082  0.1905
  842COC    COC  842   8.992   0.347   3.346  0.2452 -0.0166 -0.3393
  843COC    COC  843   8.734   0.209   3.418  0.1914 -0.3783 -0.0184
  844COC    COC  844   8.584   0.126   3.170  0.2717  0.0139  0.2092
  845COC    COC  845   8.565  10.169   3.100 -0.3036 -0.0130 -0.4886
  846COC    COC  846   8.806  10.059   3.228  0.0207  0.1191 -0.2047
  847COC    COC  847   8.926  10.170   3.455 -0.6336 -0.0658 -0.0619
  848COC    COC  848   8.700  10.193   3.708  0.1672  0.1440  0.1875
  849COC    COC  849   8.432  10.248   3.640  0.3545 -0.0219  0.0013
  850COC    COC  850   8.126  10.296   3.647 -0.2168 -0.2332 -0.2504
  851COC    COC  851   7.885   0.045   3.515  0.0208 -0.1040  0.7472
  852COC    COC  852   7.801   0.349   3.546  0.3127 -0.2119  0.0180
  853COC    COC  853   7.678   0.627   3.570 -0.3666  0.3272  0.2671
  854COC    COC  854   7.893   0.823   3.548 -0.3210  0.0278  0.1184
  855COC    COC  855   8.068   0.844   3.308  0.2974  0.3585 -0.2168
  856COC    COC  856   7.828   0.757   3.107 -0.0472  0.2236 -0.4270
  857COC    COC  857   7.541   0.858   3.198  0.1811 -0.0111  0.2637
  858COC    COC  858   7.440   1.142   3.109 -0.0360  0.0819 -0.2452
  859COC    COC  859   7.188   1.279   3.124 -0.4200  0.3788  0.0726
  860COC    COC  860   7.229   1.529   3.021 -0.4590  0.1156 -0.2026
  861COC    COC  861   7.067   1.760   3.034 -0.1499 -0.4517  0.3841
  862COC    COC  862   6.826   1.859   2.839 -0.4447  0.0958 -0.2612
  863COC    COC  863   6.751   1.738   2.568  0.1748 -0.3381  0.0055
  864COC    COC  864   6.539   1.574   2.425  0.0150  0.4333  0.2895
  865COC    COC  865   6.580   1.342   2.258  0.1810  0.2119 -0.1786
  866COC    COC  866   6.364   1.271   2.108  0.1589  0.0340  0.0871
  867COC    COC  867   6.317   1.269   1.797  0.2853 -0.0695 -0.1084
  868COC    COC  868   6.476   1.472   1.661 -0.0128  0.4721 -0.0483
  869COC    COC  869   6.525   1.724   1.842  0.0665  0.1299  0.0167
  870COC    COC  870   6.362   1.936   1.740  0.4112  0.3248 -0.0085
  871COC    COC  871   6.462   2.208   1.859  0.4284  0.2531 -0.0319
  872COC    COC  872   6.416   2.500   1.992  0.0263  0.1375 -0.0055
  873COC    COC  873   6.601   2.548   2.227 -0.1928 -0.3735  0.2069
  874COH    COH  874   6.802   2.411   2.243 -0.1184  0.1324 -0.1009
  875COH    COH  875   9.560   2.169   4.102 -0.2166 -0.3351 -0.2891
  876COC    COC  876   9.487   2.416   4.137 -0.1159 -0.3130  0.1345
  877COC    COC  877   9.555   2.700   4.173 -0.4393  0.1228  0.1323
  878COC    COC  878   9.832   2.683   4.343  0.3377 -0.1361  0.1392
  879COC    COC  879  10.061   2.905   4.459 -0.0901  0.0187  0.2336
  880COC    COC  880   0.035   2.811   4.501 -0.0613 -0.3149 -0.2864
  881COC    COC  881   0.195   2.575   4.538  0.3720  0.3099 -0.1124
  882COC    COC  882   0.399   2.509   4.350 -0.2969  0.1197 -0.2573
  883COC    COC  883   0.702   2.617   4.405  0.1242  0.0266 -0.2682
  884COC    COC  884   0.967   2.531   4.475 -0.0781 -0.2285  0.0504
  885COC    COC  885   1.180   2.746   4.550 -0.4633  0.0191  0.2631
  886COC    COC  886   1.362   2.900   4.362 -0.4295  0.5841 -0.1392
  887COC    COC  887   1.600   2.867   4.152 -0.5488  0.0168 -0.4183
  888COC    COC  888   1.879   2.767   4.220  0.1062  0.0271  0.6954
  889COC    COC  889   2.147   2.899   4.308 -0.4560  0.0094 -0.1660
  890COC    COC  890   2.383   2.734   4.241  0.0501  0.1701  0.0817
  891COC    COC  891   2.587   2.684   4.028 -0.0851  0.1794 -0.1029
  892COC    COC  892   2.809   2.513   4.051 -0.0436 -0.0762  0.1891
  893COC    COC  893   3.104   2.464   3.989 -0.2477  0.2353 -0.1316
  894COC    COC  894   3.140   2.404   3.691  0.1940 -0.2313  0.1615
  895COC    COC  895   3.103   2.458   3.390  0.1288 -0.1366 -0.1865
  896COC    COC  896   3.031   2.721   3.291 -0.2602 -0.1786  0.3633
  897COC    COC  897   3.238   2.950   3.288  0.2589 -0.3164  0.1694
  898COC    COC  898   3.244   3.230   3.462  0.3854  0.0573 -0.0629
  899COC    COC  899   2.936   3.292   3.528 -0.1719  0.1079 -0.0532
  900COC    COC  900   2.738   3.299   3.753  0.2279 -0.0428  0.2929
  901COC    COC  901   2.643   3.067   3.881 -0.2562  0.0656  0.0227
  902COC    COC  902   2.431   3.138   4.089  0.5663  0.1965  0.3068
  903COC    COC  903   2.449   3.200   4.391 -0.1370 -0.1188 -0.1429
  904COC    COC  904   2.156   3.296   4.543 -0.2150  0.1563  0.2405
  905COC    COC  905   2.186   3.236   4.839 -0.2745 -0.4215  0.1296
  906COC    COC  906   2.404   3.011   4.862 -0.0302  0.0610 -0.3372
  907COC    COC  907   2.400   2.797   4.694 -0.0349 -0.1035 -0.0779
  908COC    COC  908   2.227   2.583   4.669  0.1823  0.2009  0.1209
  909COC    COC  909   2.213   2.357   4.872  0.4263 -0.2235  0.0108
  910COC    COC  910   2.174   2.065   4.821 -0.2257  0.1751  0.0492
  911COC    COC  911   2.272   1.991   4.522  0.0031 -0.0675  0.1923
  912COC    COC  912   2.230   1.744   4.360 -0.4647  0.4610  0.0981
  913COC    COC  913   2.077   1.814   4.097  0.1654 -0.2924 -0.1765
  914COC    COC  914   2.050   1.591   3.895  0.0164  0.0760 -0.1647
  915COC    COC  915   1.836   1.614   3.720 -0.3400 -0.2314  0.0425
  916COC    COC  916   1.971   1.675   3.465  0.1647  0.0812 -0.3239
  917COC    COC  917   1.878   1.596   3.188 -0.2115  0.4069 -0.3019
  918COC    COC  918   1.648   1.640   2.989  0.0840  0.0260  0.0677
  919COC    COC  919   1.839   1.848   2.834 -0.3410 -0.0173 -0.1603
  920COH    COH  920   2.082   1.736   2.773  0.1397 -0.5092  0.0222
  921COH    COH  921   5.756   7.949   2.358  0.0544  0.2586  0.6073
  922COC    COC  922   5.940   7.817   2.242  0.0287  0.2589  0.0816
  923COC    COC  923   5.816   7.545   2.159  0.2064 -0.2301  0.2230
  924COC    COC  924   6.016   7.501   1.959 -0.0806  0.1101 -0.2126
  925COC    COC  925   6.280   7.323   1.897  0.1829 -0.1091 -0.1738
  926COC    COC  926   6.566   7.365   2.006 -0.0580 -0.0508  0.0742
  927COC    COC  927   6.713   7.605   1.951  0.3353  0.2141 -0.4750
  928COC    COC  928   6.824   7.673   1.666 -0.4658 -0.2907  0.2498
  929COC    COC  929   6.646   7.868   1.472  0.0299  0.1142 -0.3746
  930COC    COC  930   6.846   8.069   1.410 -0.0499 -0.6052  0.4728
  931COC    COC  931   7.044   8.017   1.201  0.0804 -0.1572  0.0679
  932COC    COC  932   6.882   8.088   0.938  0.4080  0.1812  0.4284
  933COC    COC  933   6.879   8.383   0.943  0.0166  0.4223 -0.0987
  934COC    COC  934   7.101   8.569   0.804  0.0387 -0.3131  0.1132
  935COC    COC  935   7.376   8.597   0.642  0.4220 -0.2798  0.1657
  936COC    COC  936   7.437   8.586   0.367  0.0082  0.1112  0.3667
  937COC    COC  937   7.620   8.568   0.136 -0.0625 -0.0804  0.3452
  938COC    COC  938   7.830   8.766   0.116 -0.3470 -0.3167  0.1165
  939COC    COC  939   7.899   8.899  10.161 -0.2102  0.0849  0.0371
  940COC    COC  940   8.190   8.879  10.163 -0.4463 -0.1603 -0.2405
  941COC    COC  941   8.319   9.131  10.297  0.1117 -0.0924 -0.0767
  942COC    COC  942   8.090   9.187   0.136 -0.3964  0.0391  0.4064
  943COC    COC  943   7.807   9.167   0.284  0.1929 -0.3502 -0.0067
  944COC    COC  944   7.603   9.116   0.074  0.1367 -0.3148 -0.0189
  945COC    COC  945   7.534   9.302  10.186 -0.1551  0.2071 -0.0778
  946COC    COC  946   7.313   9.541  10.177  0.1129  0.1397 -0.2651
  947COC    COC  947   7.038   9.494  10.194  0.0320  0.0794 -0.2028
  948COC    COC  948   6.824   9.682  10.318 -0.2125 -0.1911  0.0203
  949COC    COC  949   6.477   9.675  10.296  0.0320 -0.2988  0.2653
  950COC    COC  950   6.280   9.808  10.094 -0.1754  0.4063 -0.1088
  951COC    COC  951   6.009   9.716  10.148 -0.0194  0.0257 -0.0714
  952COC    COC  952   5.807   9.478  10.063 -0.3476  0.0175  0.0633
  953COC    COC  953   5.868   9.189  10.070  0.0650  0.2319  0.0419
  954COC    COC  954   5.779   8.887  10.053 -0.0047 -0.0817 -0.1203
  955COC    COC  955   5.787   8.625  10.020  0.2998  0.2792  0.0576
  956COC    COC  956   5.650   8.370   9.899 -0.2143 -0.2445 -0.4495
  957COC    COC  957   5.828   8.185   9.699  0.0168  0.0303 -0.2007
  958COC    COC  958   5.870   8.202   9.390 -0.2570  0.0871  0.0610
  959COC    COC  959   5.718   8.131   9.113  0.1714 -0.2131  0.0106
  960COC    COC  960   5.511   8.308   8.986 -0.0080 -0.0946  0.2374
  961COC    COC  961   5.243   8.230   8.851 -0.3037  0.3775 -0.0023
  962COC    COC  962   5.137   8.041   9.069 -0.0529  0.0559 -0.1350
  963COC    COC  963   5.329   8.080   9.322 -0.0368 -0.0507 -0.0173
  964COC    COC  964   5.404   8.245   9.556 -0.0646 -0.1568 -0.3269
  965COC    COC  965   5.552   8.476   9.470  0.3698 -0.0777  0.1343
  966COH    COH  966   5.578   8.671   9.651 -0.5008  0.3928 -0.0097
  967COH    COH  967   1.540   7.920   8.916 -0.1068  0.5484 -0.2313
  968COC    COC  968   1.480   8.032   9.150  0.2458 -0.1001 -0.0007
  969COC    COC  969   1.183   7.951   9.128 -0.1653 -0.1108  0.2457
  970COC    COC  970   1.131   8.038   8.801  0.0824 -0.0541 -0.1846
  971COC    COC  971   0.818   8.162   8.785  0.2038  0.0269  0.2621
  972COC    COC  972   0.497   8.106   8.867 -0.0314 -0.1147  0.0489
  973COC    COC  973   0.447   8.215   9.144 -0.0087 -0.0040 -0.0029
  974COC    COC  974   0.666   8.283   9.347  0.0713 -0.2080 -0.3154
  975COC    COC  975   0.874   8.423   9.163  0.0466 -0.0395  0.1637
  976COC    COC  976   0.983   8.706   9.163 -0.1199  0.1739 -0.2494
  977COC    COC  977   1.275   8.844   9.138 -0.2756  0.4030  0.3052
  978COC    COC  978   1.489   8.835   8.926 -0.4943  0.3166 -0.4996
  979COC    COC  979   1.680   8.597   8.802 -0.1633 -0.2527  0.2491
  980COC    COC  980   1.773   8.402   8.957 -0.1345  0.1513  0.2363
  981COC    COC  981   1.706   8.459   9.218 -0.3344 -0.2926  0.2700
  982COC    COC  982   1.784   8.738   9.355 -0.0755  0.3652 -0.1954
  983COC    COC  983   1.877   8.872   9.620 -0.1361  0.0648 -0.0242
  984COC    COC  984   1.648   8.985   9.831  0.2705 -0.0568  0.0213
  985COC    COC  985   1.605   8.926  10.139  0.1074 -0.3556 -0.1138
  986COC    COC  986   1.756   9.076   0.030  0.2951  0.1900 -0.0492
  987COC    COC  987   1.914   8.822   0.142  0.1402 -0.2773  0.4389
  988COC    COC  988   2.089   8.649  10.302 -0.1127 -0.0059  0.4595
  989COC    COC  989   1.972   8.674  10.031  0.0875 -0.2696 -0.3153
  990COC    COC  990   1.704   8.555   9.919 -0.1733 -0.2298 -0.1357
  991COC    COC  991   1.832   8.415   9.669 -0.0055 -0.0142 -0.2158
  992COC    COC  992   1.663   8.222   9.533  0.2198  0.1759 -0.0464
  993COC    COC  993   1.577   7.944   9.691  0.1134 -0.0979  0.2393
  994COC    COC  994   1.666   7.907   9.946  0.0075  0.4033 -0.0261
  995COC    COC  995   1.633   8.023  10.206 -0.2697  0.1025  0.0074
  996COC    COC  996   1.872   8.210  10.309 -0.2304 -0.0683 -0.1247
  997COC    COC  997   1.901   8.253   0.250 -0.1412  0.2105 -0.2816
  998COC    COC  998   2.191   8.275   0.357  0.0127 -0.2672 -0.2863
  999COC    COC  999   2.445   8.175   0.258 -0.0243  0.2718 -0.4620
 1000COC    COC 1000   2.481   7.905   0.093  0.5297 -0.0601 -0.0597
 1001COC    COC 1001   2.471   7.633   0.036  0.0888  0.2403  0.1641
 1002COC    COC 1002   2.489   7.568  10.073 -0.4897  0.1898  0.2235
 1003COC    COC 1003   2.545   7.743   9.823  0.1616 -0.4313 -0.1339
 1004COC    COC 1004   2.750   7.888  10.039  0.2053  0.0190 -0.1495
 1005COC    COC 1005   2.645   8.172  10.086  0.1108 -0.0420 -0.3144
 1006COC    COC 1006   2.342   8.261  10.149 -0.1310  0.2410 -0.1926
 1007COC    COC 1007   2.171   8.280   9.901 -0.2157 -0.3156  0.2331
 1008COC    COC 1008   2.176   8.050   9.708 -0.3002  0.1784 -0.1733
 1009COC    COC 1009   2.061   7.747   9.669  0.1116 -0.3552  0.1742
 1010COC    COC 1010   1.959   7.624   9.445  0.3430  0.0940 -0.1840
 1011COC    COC 1011   2.157   7.622   9.228 -0.2483 -0.0565 -0.2296
 1012COH    COH 1012   2.356   7.736   9.392  0.3863 -0.1157 -0.0649
 1013COH    COH 1013   8.298   6.076   8.674  0.0423 -0.2467  0.2266
 1014COC    COC 1014   8.166   6.208   8.865 -0.1657  0.0473  0.0650
 1015COC    COC 1015   8.134   5.980   9.112  0.1081  0.3284  0.0651
 1016COC    COC 1016   7.925   5.990   9.315 -0.5881  0.1079  0.3764
 1017COC    COC 1017   7.889   5.707   9.464 -0.1792 -0.1004  0.0221
 1018COC    COC 1018   7.856   5.617   9.787  0.0857 -0.6664  0.5272
 1019COC    COC 1019   7.808   5.661  10.079 -0.1066 -0.1389  0.1518
 1020COC    COC 1020   7.513   5.597  10.123  0.0008 -0.0130 -0.4090
 1021COC    COC 1021   7.273   5.661   9.951  0.0720  0.6907 -0.0406
 1022COC    COC 1022   7.023   5.806   9.992  0.0469  0.2461 -0.0376
 1023COC    COC 1023   7.005   6.123  10.026 -0.2588  0.0656  0.1561
 1024COC    COC 1024   7.196   6.283  10.209 -0.2119  0.1797  0.2724
 1025COC    COC 1025   7.328   6.065   0.076 -0.4090  0.2545 -0.3914
 1026COC    COC 1026   7.598   5.916   0.087 -0.1803 -0.1935 -0.0974
 1027COC    COC 1027   7.872   5.905   0.204  0.4535  0.0507 -0.0649
 1028COC    COC 1028   8.034   5.814   0.417  0.0086 -0.1287 -0.1253
 1029COC    COC 1029   8.227   5.919   0.610 -0.0605 -0.0723 -0.1676
 1030COC    COC 1030   8.568   5.785   0.579  0.0986  0.0001 -0.2570
 1031COC    COC 1031   8.738   5.866   0.832  0.1071  0.0463 -0.5893
 1032COC    COC 1032   8.569   6.062   1.011 -0.1302  0.2415  0.0784
 1033COC    COC 1033   8.527   6.152   1.332 -0.4350 -0.0739  0.2744
 1034COC    COC 1034   8.594   6.359   1.554 -0.3910  0.1678  0.2471
 1035COC    COC 1035   8.419   6.531   1.679  0.1652  0.0809 -0.0809
 1036COC    COC 1036   8.138   6.448   1.740  0.0366  0.4216 -0.5084
 1037COC    COC 1037   8.069   6.377   2.030 -0.3178 -0.0351 -0.2028
 1038COC    COC 1038   8.390   6.445   2.130  0.2071 -0.2413  0.2397
 1039COC    COC 1039   8.526   6.702   2.222 -0.1210 -0.0732 -0.2192
 1040COC    COC 1040   8.662   6.743   1.959 -0.2001 -0.0753 -0.4486
 1041COC    COC 1041   8.873   6.551   1.881 -0.3260 -0.0525  0.0209
 1042COC    COC 1042   8.965   6.382   2.109 -0.0596  0.1912  0.2846
 1043COC    COC 1043   8.807   6.404   2.363  0.0515 -0.1864 -0.0271
 1044COC    COC 1044   8.609   6.231   2.486  0.2008 -0.4403  0.3719
 1045COC    COC 1045   8.499   6.199   2.766 -0.2260 -0.4563  0.5938
 1046COC    COC 1046   8.466   6.297   3.082 -0.1091  0.1198 -0.0735
 1047COC    COC 1047   8.463   6.616   3.160  0.0903  0.0191 -0.1849
 1048COC    COC 1048   8.751   6.630   3.264 -0.0524  0.2840 -0.0141
 1049COC    COC 1049   8.887   6.352   3.181 -0.0032 -0.0071  0.1141
 1050COC    COC 1050   8.910   6.119   3.407 -0.0181 -0.0800 -0.0952
 1051COC    COC 1051   9.034   5.809   3.394  0.0608 -0.2035  0.2270
 1052COC    COC 1052   8.940   5.534   3.268  0.0505  0.2527 -0.2465
 1053COC    COC 1053   9.208   5.423   3.200  0.2988  0.0477 -0.1171
 1054COC    COC 1054   9.183   5.184   2.979  0.0474 -0.1197 -0.4294
 1055COC    COC 1055   9.333   4.916   2.919 -0.1935  0.1989  0.0063
 1056COC    COC 1056   9.646   4.894   2.945  0.1110 -0.0382  0.1290
 1057COC    COC 1057   9.829   4.974   2.726 -0.2018 -0.2468  0.4429
 1058COH    COH 1058   9.903   5.234   2.665  0.1711 -0.1100 -0.0238
 1059COH    COH 1059   4.666   6.910   1.810 -0.0266  0.3427  0.0889
 1060COC    COC 1060   4.472   6.738   1.890  0.1509 -0.2993  0.0029
 1061COC    COC 1061   4.407   6.533   2.120 -0.0908 -0.3934 -0.0086
 1062COC    COC 1062   4.212   6.556   2.356 -0.1006  0.6180 -0.1197
 1063COC    COC 1063   4.357   6.618   2.587 -0.2060  0.1170 -0.2292
 1064COC    COC 1064   4.155   6.731   2.814  0.1864  0.1815  0.1490
 1065COC    COC 1065   3.898   6.665   3.011  0.0065 -0.2515  0.5260
 1066COC    COC 1066   3.698   6.418   3.029  0.0587 -0.2446  0.0915
 1067COC    COC 1067   3.777   6.110   3.017 -0.5790  0.2661  0.3107
 1068COC    COC 1068   3.721   6.023   3.283  0.1473  0.1289 -0.2482
 1069COC    COC 1069   3.671   6.281   3.453 -0.4031 -0.2013  0.1863
 1070COC    COC 1070   3.892   6.210   3.651 -0.1784  0.2619  0.1478
 1071COC    COC 1071   4.050   5.932   3.667 -0.1650  0.3677  0.4478
 1072COC    COC 1072   4.079   5.813   3.394 -0.2761  0.0923 -0.2039
 1073COC    COC 1073   4.274   5.636   3.244 -0.2211 -0.2730  0.1873
 1074COC    COC 1074   4.302   5.406   3.011  0.2297  0.0259  0.2139
 1075COC    COC 1075   4.513   5.364   2.774 -0.0333  0.2599  0.0207
 1076COC    COC 1076   4.552   5.175   2.539 -0.2171  0.2271  0.0321
 1077COC    COC 1077   4.550   4.904   2.653 -0.0516  0.1897 -0.2991
 1078COC    COC 1078   4.722   4.682   2.562  0.1223  0.2370  0.0302
 1079COC    COC 1079   4.765   4.429   2.695 -0.0563 -0.0006  0.1261
 1080COC    COC 1080   4.598   4.258   2.913 -0.4059 -0.4717  0.2131
 1081COC    COC 1081   4.402   4.127   2.753 -0.2642 -0.2230 -0.4510
 1082COC    COC 1082   4.095   4.085   2.705  0.5297  0.0385 -0.0842
 1083COC    COC 1083   3.897   4.171   2.515  0.0087 -0.3683 -0.1194
 1084COC    COC 1084   4.022   4.395   2.356 -0.0837 -0.0258  0.2098
 1085COC    COC 1085   3.997   4.445   2.066  0.0965  0.1245 -0.2586
 1086COC    COC 1086   4.011   4.664   1.822  0.2220  0.1279  0.3657
 1087COC    COC 1087   3.803   4.442   1.702 -0.0182  0.0110  0.1500
 1088COC    COC 1088   3.875   4.427   1.403 -0.0268 -0.0108 -0.0761
 1089COC    COC 1089   4.080   4.290   1.215 -0.0523  0.0650 -0.2671
 1090COC    COC 1090   3.994   4.127   0.974  0.0453 -0.3840 -0.4043
 1091COC    COC 1091   3.737   4.163   0.802  0.0313  0.1984 -0.2587
 1092COC    COC 1092   3.520   3.925   0.839  0.1308 -0.0161  0.3008
 1093COC    COC 1093   3.419   3.681   1.062  0.3154  0.1274  0.4219
 1094COC    COC 1094   3.257   3.742   1.305  0.2431 -0.0503 -0.0199
 1095COC    COC 1095   3.339   3.697   1.571 -0.2255  0.0802  0.0526
 1096COC    COC 1096   3.327   3.448   1.782  0.1722  0.0130  0.2132
 1097COC    COC 1097   3.132   3.227   1.728 -0.1711  0.0144 -0.1569
 1098COC    COC 1098   3.185   3.021   1.556 -0.2213  0.0298 -0.0854
 1099COC    COC 1099   3.032   2.772   1.502 -0.0826 -0.0196 -0.1993
 1100COC    COC 1100   3.026   2.574   1.264  0.4221  0.1008  0.1738
 1101COC    COC 1101   3.170   2.459   1.002  0.4288  0.0778  0.4970
 1102COC    COC 1102   3.190   2.221   0.862 -0.2721  0.0273  0.3437
 1103COC    COC 1103   3.103   2.044   0.627 -0.0341  0.3164 -0.0285
 1104COH    COH 1104   3.072   1.797   0.669 -0.1915 -0.3206  0.0591
 1105COH    COH 1105  10.333   4.136   1.481  0.1439  0.1420 -0.4318
 1106COC    COC 1106   0.013   4.196   1.230 -0.1615 -0.1312 -0.0245
 1107COC    COC 1107   0.269   4.377   1.193 -0.0882 -0.2885 -0.5576
 1108COC    COC 1108   0.348   4.580   0.984 -0.3114  0.1399 -0.0954
 1109COC    COC 1109   0.227   4.872   0.968 -0.2039  0.0928  0.0598
 1110COC    COC 1110   0.283   4.997   0.704  0.0569 -0.1480  0.0263
 1111COC    COC 1111   0.440   4.966   0.426  0.4207  0.3464 -0.1584
 1112COC    COC 1112   0.646   5.099   0.453 -0.5714 -0.2624  0.0427
 1113COC    COC 1113   0.711   5.365   0.296 -0.3218  0.1530 -0.1072
 1114COC    COC 1114   0.790   5.619   0.138  0.2447  0.1691 -0.1357
 1115COC    COC 1115   0.968   5.520  10.244 -0.1510 -0.1510 -0.2566
 1116COC    COC 1116   1.096   5.638  10.021  0.3571  0.4327  0.1879
 1117COC    COC 1117   1.246   5.860   9.928  0.2684 -0.3477 -0.1731
 1118COC    COC 1118   1.410   5.981   9.719 -0.0659  0.0037  0.4469
 1119COC    COC 1119   1.271   6.271   9.630  0.3265  0.0813 -0.5101
 1120COC    COC 1120   1.113   6.361   9.851 -0.2592  0.0570 -0.1950
 1121COC    COC 1121   0.843   6.510   9.775  0.2284 -0.3554  0.3067
 1122COC    COC 1122   0.869   6.771   9.912 -0.2167 -0.2411  0.0847
 1123COC    COC 1123   0.658   6.787  10.160  0.0987 -0.0121  0.2396
 1124COC    COC 1124   0.422   6.562  10.194 -0.2007  0.0804 -0.1518
 1125COC    COC 1125   0.495   6.254  10.088 -0.1361  0.0976  0.2329
 1126COC    COC 1126   0.423   6.036  10.200  0.2148 -0.1801 -0.2008
 1127COC    COC 1127   0.697   5.831  10.160  0.1410  0.1961  0.2271
 1128COC    COC 1128   0.871   6.024  10.026 -0.0017  0.0933 -0.3433
 1129COC    COC 1129   0.880   5.946   9.688  0.0334 -0.3117  0.2547
 1130COC    COC 1130   0.697   6.103   9.517  0.2297 -0.2729  0.0582
 1131COC    COC 1131   0.718   5.902   9.262 -0.2852 -0.0898  0.3549
 1132COC    COC 1132   0.560   6.004   9.031 -0.1840 -0.1740  0.1411
 1133COC    COC 1133   0.454   6.290   8.996  0.1366  0.0230 -0.1954
 1134COC    COC 1134   0.206   6.353   9.181  0.0048  0.3780  0.2831
 1135COC    COC 1135   0.218   6.140   9.355  0.2233 -0.1253  0.2810
 1136COC    COC 1136   0.305   5.918   9.488  0.0954 -0.0371  0.0814
 1137COC    COC 1137   0.351   5.919   9.787 -0.2158 -0.6123  0.2049
 1138COC    COC 1138   0.242   5.668   9.895  0.1194  0.1299  0.4357
 1139COC    COC 1139   0.299   5.334   9.918  0.3584 -0.1002 -0.0016
 1140COC    COC 1140   0.532   5.297  10.146 -0.0358  0.2141  0.0329
 1141COC    COC 1141   0.450   5.144   0.054 -0.0856 -0.2293 -0.1807
 1142COC    COC 1142   0.337   4.929  10.312 -0.1572  0.2843  0.1040
 1143COC    COC 1143   0.044   4.948  10.168  0.1188  0.2249 -0.1937
 1144COC    COC 1144  10.263   5.203  10.235  0.0443  0.0867  0.0580
 1145COC    COC 1145  10.169   5.200   0.169 -0.0380  0.0111 -0.1678
 1146COC    COC 1146  10.084   5.451   0.325  0.0494 -0.1138  0.0680
 1147COC    COC 1147   9.857   5.426   0.563 -0.2900 -0.4605  0.0300
 1148COC    COC 1148   9.959   5.532   0.837 -0.2212 -0.0212 -0.0828
 1149COC    COC 1149  10.039   5.773   1.000  0.0440 -0.3916 -0.1946
 1150COH    COH 1150  10.300   5.734   1.039 -0.0999 -0.0505 -0.1465
 1151COH    COH 1151   2.394   5.549   4.149 -0.1968  0.1418  0.4411
 1152COC    COC 1152   2.271   5.630   4.367  0.0898 -0.2069  0.0740
 1153COC    COC 1153   2.424   5.863   4.398 -0.2919  0.2405  0.2813
 1154COC    COC 1154   2.635   5.844   4.626  0.3739 -0.0419  0.0985
 1155COC    COC 1155   2.856   6.040   4.725 -0.0654 -0.5078 -0.2855
 1156COC    COC 1156   2.961   6.295   4.603 -0.2765 -0.1230 -0.2487
 1157COC    COC 1157   2.979   6.595   4.617 -0.3832 -0.0897  0.2916
 1158COC    COC 1158   2.818   6.759   4.802 -0.5254 -0.4402 -0.2692
 1159COC    COC 1159   2.657   7.017   4.768 -0.0333 -0.0081 -0.2184
 1160COC    COC 1160   2.360   7.069   4.791  0.0608  0.1746 -0.2410
 1161COC    COC 1161   2.181   6.791   4.696 -0.1276  0.0109 -0.2914
 1162COC    COC 1162   1.960   6.895   4.517  0.2262 -0.2565 -0.4715
 1163COC    COC 1163   1.820   6.903   4.260  0.3398  0.1269  0.0173
 1164COC    COC 1164   1.944   6.674   4.151  0.2658  0.3253 -0.2053
 1165COC    COC 1165   2.144   6.558   4.345 -0.1136  0.2546 -0.2147
 1166COC    COC 1166   2.244   6.279   4.327  0.0460  0.0724  0.5000
 1167COC    COC 1167   2.283   6.164   4.011  0.1950  0.0681  0.1199
 1168COC    COC 1168   2.171   5.867   3.970 -0.0165  0.1533  0.0338
 1169COC    COC 1169   1.902   5.864   3.840 -0.0377  0.0218  0.0604
 1170COC    COC 1170   1.908   5.913   3.536 -0.1121 -0.4067 -0.0653
 1171COC    COC 1171   2.223   5.925   3.516  0.4128 -0.0179 -0.3478
 1172COC    COC 1172   2.313   6.207   3.595  0.0486 -0.3096  0.1702
 1173COC    COC 1173   2.435   6.432   3.465 -0.1173  0.1342  0.5100
 1174COC    COC 1174   2.660   6.301   3.295 -0.1573  0.0829 -0.0051
 1175COC    COC 1175   2.958   6.208   3.346  0.3433 -0.4439  0.0837
 1176COC    COC 1176   3.158   6.422   3.451  0.2802  0.1075  0.3479
 1177COC    COC 1177   3.350   6.303   3.200  0.2068 -0.5572  0.3202
 1178COC    COC 1178   3.232   6.114   3.012  0.1604  0.0623 -0.1300
 1179COC    COC 1179   2.946   6.097   2.974  0.0956  0.2604  0.1511
 1180COC    COC 1180   2.837   5.933   2.767  0.0507  0.0697  0.1549
 1181COC    COC 1181   2.771   5.873   2.482  0.3056  0.0898 -0.2762
 1182COC    COC 1182   2.525   6.000   2.346  0.1640  0.1633  0.0809
 1183COC    COC 1183   2.346   5.717   2.395 -0.2313 -0.1377 -0.0135
 1184COC    COC 1184   2.157   5.734   2.651  0.0035  0.0950  0.2114
 1185COC    COC 1185   2.045   6.006   2.580  0.1173 -0.0437  0.0490
 1186COC    COC 1186   1.713   6.027   2.713 -0.2242 -0.2211 -0.1096
 1187COC    COC 1187   1.666   6.262   2.928  0.0394  0.2274  0.3249
 1188COC    COC 1188   1.610   6.174   3.219  0.2039  0.0643  0.0901
 1189COC    COC 1189   1.469   5.888   3.228 -0.2383 -0.2969 -0.3048
 1190COC    COC 1190   1.177   5.846   3.298 -0.0368  0.2450 -0.3399
 1191COC    COC 1191   0.930   6.030   3.311 -0.6165 -0.3837  0.2415
 1192COC    COC 1192   0.832   5.900   3.532  0.4494 -0.1753  0.0612
 1193COC    COC 1193   1.028   5.844   3.740 -0.2895  0.1573  0.0444
 1194COC    COC 1194   1.107   6.058   3.946 -0.2809 -0.5227  0.1014
 1195COC    COC 1195   1.358   6.053   4.150  0.0809  0.3756  0.3055
 1196COH    COH 1196   1.346   5.801   4.270 -0.4935 -0.5065  0.1742
 1197COH    COH 1197   7.070   0.950   3.415  0.1256  0.0674 -0.7131
 1198COC    COC 1198   6.866   0.812   3.306  0.0256  0.4071  0.4316
 1199COC    COC 1199   6.667   0.975   3.189 -0.0470  0.0539 -0.1125
 1200COC    COC 1200   6.439   1.151   3.238  0.0703 -0.3475  0.0383
 1201COC    COC 1201   6.195   1.183   3.396 -0.4621 -0.0226 -0.3375
 1202COC    COC 1202   6.277   1.394   3.628 -0.1937  0.1148 -0.1134
 1203COC    COC 1203   6.381   1.270   3.881  0.2490  0.1688 -0.1164
 1204COC    COC 1204   6.637   1.115   3.821 -0.1374  0.1351  0.1745
 1205COC    COC 1205   6.818   1.041   4.069  0.1540 -0.5342  0.1009
 1206COC    COC 1206   6.805   1.314   4.194 -0.1131 -0.0393  0.1408
 1207COC    COC 1207   6.998   1.450   4.393  0.3989  0.4181  0.2390
 1208COC    COC 1208   7.184   1.288   4.552 -0.2200  0.1774  0.2847
 1209COC    COC 1209   7.044   1.014   4.615 -0.3742 -0.1139 -0.1836
 1210COC    COC 1210   6.772   1.010   4.554 -0.2177 -0.1493 -0.1348
 1211COC    COC 1211   6.593   0.776   4.491 -0.0264  0.1691  0.2452
 1212COC    COC 1212   6.541   0.667   4.176 -0.2598 -0.1085  0.4513
 1213COC    COC 1213   6.509   0.435   3.975  0.3315  0.4410 -0.0970
 1214COC    COC 1214   6.353   0.194   4.106 -0.2943  0.0966 -0.3071
 1215COC    COC 1215   6.151   0.318   4.337  0.0794  0.0096  0.1797
 1216COC    COC 1216   6.085   0.073   4.518  0.1749 -0.1223  0.0883
 1217COC    COC 1217   6.027   0.119   4.817  0.1417  0.0378  0.3513
 1218COC    COC 1218   5.986   0.430   4.837  0.1010  0.3655 -0.2943
 1219COC    COC 1219   5.975   0.544   5.142 -0.2526  0.0008 -0.0270
 1220COC    COC 1220   5.738   0.575   5.261 -0.0954  0.0956 -0.2106
 1221COC    COC 1221   5.591   0.743   5.469 -0.0742 -0.3154  0.3384
 1222COC    COC 1222   5.577   1.062   5.520 -0.1305  0.2447 -0.2436
 1223COC    COC 1223   5.744   1.206   5.350  0.0120  0.0057 -0.4471
 1224COC    COC 1224   5.980   1.304   5.496 -0.2597 -0.2046  0.2043
 1225COC    COC 1225   6.265   1.433   5.484  0.3055  0.0062 -0.1832
 1226COC    COC 1226   6.421   1.678   5.335 -0.1341 -0.3634  0.0156
 1227COC    COC 1227   6.757   1.700   5.354  0.3899  0.0944  0.1427
 1228COC    COC 1228   6.905   1.798   5.100  0.1398 -0.1341  0.3280
 1229COC    COC 1229   6.954   2.108   5.057 -0.0892  0.1477 -0.1800
 1230COC    COC 1230   7.033   2.318   4.831  0.1342 -0.2856  0.1060
 1231COC    COC 1231   7.210   2.210   4.650  0.0693  0.0430  0.1613
 1232COC    COC 1232   7.030   1.978   4.538  0.1152  0.2366  0.2863
 1233COC    COC 1233   7.103   1.762   4.702 -0.3483  0.1193 -0.1203
 1234COC    COC 1234   7.391   1.699   4.601 -0.4188 -0.0389  0.3293
 1235COC    COC 1235   7.317   1.675   4.279 -0.1666  0.3136 -0.2224
 1236COC    COC 1236   7.259   1.964   4.196  0.1838  0.6083 -0.0718
 1237COC    COC 1237   7.134   2.017   3.940 -0.1868 -0.1178 -0.1218
 1238COC    COC 1238   7.089   1.831   3.662 -0.2388 -0.0406  0.0196
 1239COC    COC 1239   7.249   1.906   3.401 -0.3348  0.1897  0.0982
 1240COC    COC 1240   7.497   1.997   3.301 -0.2607 -0.0084 -0.2667
 1241COC    COC 1241   7.825   2.010   3.301 -0.4949  0.2764  0.0530
 1242COH    COH 1242   7.910   1.907   3.091  0.4496 -0.3141  0.2235
 1243COH    COH 1243   5.937   5.580   4.056 -0.4958 -0.2349  0.0799
 1244COC    COC 1244   5.846   5.612   4.302  0.1659  0.1371  0.4275
 1245COC    COC 1245   5.860   5.368   4.427 -0.0502  0.0981 -0.1636
 1246COC    COC 1246   5.928   5.131   4.570  0.3584  0.1072  0.1018
 1247COC    COC 1247   6.128   5.135   4.803 -0.2563  0.2722  0.1266
 1248COC    COC 1248   5.985   5.275   5.039  0.0907 -0.2876  0.2208
 1249COC    COC 1249   6.118   5.454   5.247  0.2938  0.3398  0.1710
 1250COC    COC 1250   5.943   5.494   5.494 -0.5655  0.2877  0.0127
 1251COC    COC 1251   5.903   5.784   5.562 -0.0436  0.6960  0.0616
 1252COC    COC 1252   5.764   5.863   5.283  0.2239  0.0602 -0.0825
 1253COC    COC 1253   5.499   5.984   5.191  0.0374  0.1090 -0.0784
 1254COC    COC 1254   5.553   6.213   5.045  0.2250 -0.0041 -0.0238
 1255COC    COC 1255   5.560   6.287   4.739 -0.0214 -0.3205  0.0388
 1256COC    COC 1256   5.317   6.268   4.536 -0.1829 -0.0669  0.1365
 1257COC    COC 1257   5.329   6.477   4.339 -0.0355  0.0698 -0.3415
 1258COC    COC 1258   5.349   6.397   4.025 -0.1544 -0.0131  0.1071
 1259COC    COC 1259   5.235   6.523   3.718  0.1132 -0.2074 -0.1006
 1260COC    COC 1260   5.130   6.458   3.408  0.5043  0.1853  0.0956
 1261COC    COC 1261   5.263   6.386   3.127 -0.1779  0.1680 -0.2493
 1262COC    COC 1262   5.198   6.254   2.825  0.0716  0.1477 -0.0492
 1263COC    COC 1263   5.186   6.378   2.579 -0.2407 -0.0324  0.1375
 1264COC    COC 1264   5.111   6.136   2.391 -0.0135  0.0928  0.0824
 1265COC    COC 1265   5.121   6.155   2.078  0.4955  0.0408 -0.1335
 1266COC    COC 1266   5.095   5.945   1.842  0.0955 -0.2600  0.6180
 1267COC    COC 1267   4.983   6.101   1.578  0.3390  0.1810 -0.0042
 1268COC    COC 1268   4.982   5.981   1.283 -0.0971 -0.2877  0.2838
 1269COC    COC 1269   5.121   6.147   1.064 -0.3962  0.1105 -0.0348
 1270COC    COC 1270   5.333   6.133   0.855  0.2260  0.3333  0.3691
 1271COC    COC 1271   5.337   6.404   0.700  0.0622 -0.4672  0.2508
 1272COC    COC 1272   5.374   6.629   0.929  0.0248  0.0865 -0.1254
 1273COC    COC 1273   5.236   6.879   1.036 -0.1717  0.0581 -0.1226
 1274COC    COC 1274   5.344   7.105   0.845  0.2568  0.1517 -0.3157
 1275COC    COC 1275   5.427   7.400   0.981 -0.2144  0.0065  0.5830
 1276COC    COC 1276   5.468   7.488   1.276  0.0272  0.5602 -0.1944
 1277COC    COC 1277   5.363   7.744   1.396 -0.0007 -0.1542 -0.0925
 1278COC    COC 1278   5.479   7.783   1.695  0.3799  0.3310  0.5208
 1279COC    COC 1279   5.747   7.761   1.797 -0.0938 -0.7058 -0.2520
 1280COC    COC 1280   6.013   7.892   1.806 -0.0979 -0.2914  0.2503
 1281COC    COC 1281   6.290   7.791   1.718 -0.1454 -0.1785  0.2160
 1282COC    COC 1282   6.204   7.586   1.537  0.3057  0.0644  0.2881
 1283COC    COC 1283   5.901   7.590   1.421  0.1853 -0.2402  0.1247
 1284COC    COC 1284   5.885   7.612   1.120  0.2892 -0.0621 -0.3222
 1285COC    COC 1285   5.889   7.324   0.995 -0.0448 -0.2096 -0.3276
 1286COC    COC 1286   6.061   7.218   0.775 -0.5014 -0.2839 -0.0763
 1287COC    COC 1287   6.157   7.309   0.500  0.3007 -0.2492 -0.1058
 1288COH    COH 1288   6.401   7.350   0.608  0.1736  0.0315 -0.1177
 1289COH    COH 1289   2.146   4.861   7.809 -0.4252 -0.0849  0.2072
 1290COC    COC 1290   2.308   5.071   7.860  0.1484  0.3366 -0.0840
 1291COC    COC 1291   2.166   5.278   7.708 -0.0461  0.4251  0.1363
 1292COC    COC 1292   1.853   5.375   7.688 -0.1066 -0.0478  0.1118
 1293COC    COC 1293   1.689   5.487   7.852  0.0814 -0.0553 -0.0649
 1294COC    COC 1294   1.807   5.759   7.963 -0.1173  0.1189 -0.0411
 1295COC    COC 1295   1.747   5.915   8.231  0.1892  0.3706 -0.1661
 1296COC    COC 1296   1.479   5.942   8.384 -0.1808  0.1900 -0.2311
 1297COC    COC 1297   1.349   6.087   8.597 -0.1725  0.3504  0.3793
 1298COC    COC 1298   1.395   6.134   8.925  0.2590 -0.4804 -0.0080
 1299COC    COC 1299   1.293   6.117   9.208 -0.1731 -0.5372 -0.1036
 1300COC    COC 1300   1.026   6.255   9.278  0.1821  0.4032 -0.5888
 1301COC    COC 1301   0.796   6.447   9.227  0.2123 -0.4310  0.0575
 1302COC    COC 1302   0.927   6.568   8.959 -0.0245  0.1155  0.0714
 1303COC    COC 1303   0.798   6.600   8.697 -0.3252 -0.2661 -0.5344
 1304COC    COC 1304   0.786   6.350   8.524 -0.1657 -0.0978  0.2326
 1305COC    COC 1305   0.652   6.334   8.248 -0.4878  0.3398  0.0879
 1306COC    COC 1306   0.597   6.080   8.081  0.1618  0.0818 -0.0696
 1307COC    COC 1307   0.818   6.090   7.863 -0.1398 -0.3332 -0.2241
 1308COC    COC 1308   0.735   6.146   7.595  0.3468  0.0914 -0.3323
 1309COC    COC 1309   0.953   6.019   7.387 -0.1980 -0.1200 -0.1084
 1310COC    COC 1310   1.103   5.806   7.513 -0.2471 -0.1822 -0.5113
 1311COC    COC 1311   1.205   5.805   7.806 -0.1710  0.1922  0.3546
 1312COC    COC 1312   1.397   5.951   7.889 -0.0794  0.0489 -0.0997
 1313COC    COC 1313   1.342   6.247   7.850  0.1358  0.4735 -0.2572
 1314COC    COC 1314   1.376   6.346   8.141 -0.0892  0.1054 -0.3048
 1315COC    COC 1315   1.556   6.523   8.209 -0.0098  0.1345  0.2239
 1316COC    COC 1316   1.721   6.687   8.049 -0.4224 -0.3744 -0.2703
 1317COC    COC 1317   1.940   6.908   8.072 -0.3146  0.4281  0.1467
 1318COC    COC 1318   1.969   7.154   8.207  0.1256 -0.4839 -0.1646
 1319COC    COC 1319   2.126   7.107   8.482 -0.3063  0.1294  0.0624
 1320COC    COC 1320   2.405   6.980   8.455  0.1454 -0.2946 -0.2978
 1321COC    COC 1321   2.633   6.982   8.650  0.0644 -0.1505 -0.1040
 1322COC    COC 1322   2.915   7.045   8.542  0.2087 -0.0703 -0.0774
 1323COC    COC 1323   3.169   6.880   8.573 -0.1681 -0.1601 -0.1382
 1324COC    COC 1324   3.250   6.567   8.513 -0.0166 -0.0953  0.0728
 1325COC    COC 1325   3.260   6.350   8.278 -0.2633 -0.1312  0.0322
 1326COC    COC 1326   3.008   6.221   8.234  0.2781  0.0442 -0.0516
 1327COC    COC 1327   2.700   6.273   8.284  0.2111 -0.1093 -0.3979
 1328COC    COC 1328   2.611   6.405   8.543 -0.1272 -0.1305  0.0122
 1329COC    COC 1329   2.801   6.510   8.756 -0.0036  0.2649  0.1287
 1330COC    COC 1330   2.804   6.383   9.015 -0.1146 -0.1884 -0.0746
 1331COC    COC 1331   2.776   6.095   9.169 -0.1524  0.1206  0.0524
 1332COC    COC 1332   2.682   6.154   9.440 -0.0471  0.5201  0.0567
 1333COC    COC 1333   2.524   6.373   9.531  0.0270 -0.2541  0.2255
 1334COH    COH 1334   2.627   6.580   9.396 -0.4165 -0.1050  0.1312
 1335COH    COH 1335   5.788   1.742   9.813 -0.2637 -0.1743 -0.0345
 1336COC    COC 1336   5.987   1.888   9.936 -0.0976 -0.1803  0.0153
 1337COC    COC 1337   5.860   2.113  10.039  0.3371  0.0166  0.2313
 1338COC    COC 1338   6.074   2.253  10.197 -0.1445  0.1338 -0.0004
 1339COC    COC 1339   6.100   2.522   0.042 -0.2108  0.3581  0.0643
 1340COC    COC 1340   6.381   2.598   0.078  0.1258 -0.0316 -0.4780
 1341COC    COC 1341   6.546   2.727  10.170  0.0772 -0.3672  0.3250
 1342COC    COC 1342   6.831   2.566  10.131  0.0491  0.1272  0.0391
 1343COC    COC 1343   7.080   2.616   9.934 -0.2119 -0.4614  0.4228
 1344COC    COC 1344   7.229   2.857   9.813  0.0548 -0.0190 -0.0055
 1345COC    COC 1345   7.088   2.931   9.539  0.2459 -0.0263  0.3040
 1346COC    COC 1346   7.227   2.703   9.379  0.5638 -0.2392  0.2381
 1347COC    COC 1347   7.222   2.455   9.539  0.1074  0.3180  0.2267
 1348COC    COC 1348   7.278   2.204   9.347 -0.0379 -0.4041  0.0016
 1349COC    COC 1349   7.492   2.324   9.187  0.2881 -0.3145 -0.2494
 1350COC    COC 1350   7.556   2.127   8.955  0.0716 -0.1155 -0.4465
 1351COC    COC 1351   7.364   2.058   8.752  0.5250 -0.0419 -0.2710
 1352COC    COC 1352   7.170   1.854   8.644 -0.4697  0.2989 -0.0866
 1353COC    COC 1353   7.317   1.704   8.406  0.1875 -0.2247 -0.1179
 1354COC    COC 1354   7.249   1.468   8.276  0.0985 -0.0243 -0.1153
 1355COC    COC 1355   7.395   1.323   8.044  0.4462  0.0432 -0.6500
 1356COC    COC 1356   7.258   1.128   7.870  0.2759  0.1713 -0.3508
 1357COC    COC 1357   7.212   1.267   7.594 -0.0293 -0.1402  0.1763
 1358COC    COC 1358   6.942   1.304   7.541 -0.2765 -0.1054  0.1652
 1359COC    COC 1359   6.780   1.329   7.779 -0.1130  0.2715 -0.1141
 1360COC    COC 1360   6.818   1.520   7.990 -0.0901 -0.2895  0.0532
 1361COC    COC 1361   6.534   1.515   8.135 -0.1340 -0.0769 -0.4391
 1362COC    COC 1362   6.444   1.225   8.191  0.0763  0.1528 -0.0038
 1363COC    COC 1363   6.311   1.284   8.469 -0.0075  0.4916 -0.6263
 1364COC    COC 1364   6.118   1.405   8.633  0.0297 -0.0314 -0.0251
 1365COC    COC 1365   5.991   1.645   8.698 -0.4289  0.1580  0.0252
 1366COC    COC 1366   5.805   1.739   8.904 -0.1556  0.2648 -0.2138
 1367COC    COC 1367   5.875   2.013   8.993  0.1654  0.0571 -0.1174
 1368COC    COC 1368   6.154   2.062   8.964 -0.0103 -0.0027 -0.1617
 1369COC    COC 1369   6.288   2.033   8.691 -0.0487  0.1230  0.0696
 1370COC    COC 1370   6.294   1.801   8.450  0.0490  0.0953 -0.3793
 1371COC    COC 1371   6.266   1.938   8.217  0.0025  0.0997  0.0253
 1372COC    COC 1372   6.139   2.219   8.295 -0.1191  0.3255  0.0569
 1373COC    COC 1373   5.885   2.250   8.184  0.3080  0.1862 -0.3878
 1374COC    COC 1374   5.829   2.062   7.955 -0.0306 -0.2110 -0.1413
 1375COC    COC 1375   5.658   1.800   7.977 -0.2004  0.0121  0.0667
 1376COC    COC 1376   5.625   1.613   7.743 -0.1428  0.1707  0.3472
 1377COC    COC 1377   5.870   1.441   7.669 -0.0816 -0.0265  0.2716
 1378COC    COC 1378   5.781   1.150   7.676  0.1443 -0.1165  0.2600
 1379COC    COC 1379   6.043   0.957   7.681  0.2495 -0.7230  0.1327
 1380COH    COH 1380   6.022   0.834   7.907 -0.1452 -0.3876  0.2584
 1381COH    COH 1381   0.428   4.844   7.454 -0.2004  0.3121 -0.8346
 1382COC    COC 1382   0.495   4.587   7.382  0.1364  0.0699  0.0001
 1383COC    COC 1383   0.737   4.495   7.490 -0.2562 -0.2831 -0.2319
 1384COC    COC 1384   0.898   4.221   7.365 -0.2826  0.2281  0.3001
 1385COC    COC 1385   0.828   4.016   7.165  0.3155  0.0680  0.1043
 1386COC    COC 1386   0.956   3.732   7.139 -0.4141  0.0818 -0.3056
 1387COC    COC 1387   0.919   3.449   7.263  0.1459  0.2944 -0.0035
 1388COC    COC 1388   0.723   3.345   7.496 -0.3807  0.1974 -0.0130
 1389COC    COC 1389   0.807   3.168   7.673 -0.1203  0.1900 -0.0065
 1390COC    COC 1390   0.637   2.949   7.717  0.3343  0.3201  0.0068
 1391COC    COC 1391   0.789   2.688   7.618  0.4675  0.1522  0.0948
 1392COC    COC 1392   1.069   2.611   7.657 -0.0034 -0.2857 -0.2976
 1393COC    COC 1393   1.296   2.406   7.556  0.2547  0.1934  0.1941
 1394COC    COC 1394   1.254   2.398   7.272 -0.4046  0.2998 -0.3032
 1395COC    COC 1395   1.210   2.121   7.156 -0.3084 -0.2336 -0.0408
 1396COC    COC 1396   1.366   2.020   6.894 -0.2907 -0.1058  0.3425
 1397COC    COC 1397   1.305   1.754   6.785 -0.2216 -0.5800 -0.0758
 1398COC    COC 1398   1.356   1.652   6.500 -0.2048  0.2131 -0.4234
 1399COC    COC 1399   1.279   1.382   6.361  0.0971  0.0559 -0.0893
 1400COC    COC 1400   1.280   1.127   6.487  0.1161 -0.2286  0.1296
 1401COC    COC 1401   1.527   0.952   6.451 -0.1315 -0.0928  0.1468
 1402COC    COC 1402   1.674   0.872   6.182 -0.1053 -0.0961 -0.1683
 1403COC    COC 1403   1.856   0.648   6.089  0.0922  0.3489  0.1275
 1404COC    COC 1404   1.695   0.402   6.047 -0.0547  0.0131  0.1938
 1405COC    COC 1405   1.423   0.382   5.897  0.0456 -0.2445  0.1279
 1406COC    COC 1406   1.340   0.676   5.814  0.3818 -0.1644 -0.2435
 1407COC    COC 1407   1.034   0.675   5.795  0.0432  0.2452  0.0825
 1408COC    COC 1408   0.989   0.483   5.976 -0.0325  0.1538  0.1680
 1409COC    COC 1409   0.859   0.207   5.881  0.1635  0.0605 -0.0993
 1410COC    COC 1410   0.694   0.089   6.099  0.3122  0.2485 -0.0300
 1411COC    COC 1411   0.560  10.176   6.189  0.2564 -0.2012  0.1102
 1412COC    COC 1412   0.412  10.189   6.432 -0.3099  0.1594 -0.0860
 1413COC    COC 1413   0.453  10.125   6.746 -0.1378 -0.1812  0.1016
 1414COC    COC 1414   0.285   9.940   6.861 -0.1699  0.4799 -0.4023
 1415COC    COC 1415   0.059   9.926   6.677  0.3552  0.3973  0.2479
 1416COC    COC 1416  10.111   9.834   6.789 -0.9537  0.2121 -0.3594
 1417COC    COC 1417   9.995   9.578   6.743  0.0730 -0.2384 -0.0348
 1418COC    COC 1418  10.091   9.387   6.528 -0.1561 -0.3389 -0.1212
 1419COC    COC 1419   9.839   9.226   6.409  0.0941  0.2507 -0.0461
 1420COC    COC 1420   9.804   8.926   6.417 -0.2208  0.3737 -0.0775
 1421COC    COC 1421   9.929   8.665   6.546  0.3992  0.0183 -0.1469
 1422COC    COC 1422   9.762   8.534   6.735  0.1098  0.1762 -0.1093
 1423COC    COC 1423   9.837   8.302   6.936 -0.0788  0.1104  0.0507
 1424COC    COC 1424  10.069   8.122   6.845 -0.1925 -0.4434 -0.5112
 1425COC    COC 1425  10.202   8.193   6.632  0.2802 -0.0712  0.2457
 1426COH    COH 1426  10.028   8.302   6.454  0.2920  0.1023  0.0686
 1427COH    COH 1427   4.740   3.930   6.789  0.1246 -0.1271 -0.2810
 1428COC    COC 1428   4.858   3.769   6.943  0.2958  0.3727 -0.2718
 1429COC    COC 1429   5.129   3.691   6.854 -0.1175  0.2186  0.3633
 1430COC    COC 1430   5.363   3.849   6.723  0.3325  0.0857 -0.0533
 1431COC    COC 1431   5.609   3.633   6.693  0.2761 -0.1380  0.0134
 1432COC    COC 1432   5.512   3.360   6.806 -0.1751  0.1019  0.4268
 1433COC    COC 1433   5.392   3.362   7.072 -0.0399 -0.2639  0.1679
 1434COC    COC 1434   5.265   3.126   7.231  0.3494  0.1648  0.0275
 1435COC    COC 1435   5.100   2.914   7.070  0.0332  0.1334  0.3627
 1436COC    COC 1436   4.802   2.937   7.080  0.0334  0.4315  0.3290
 1437COC    COC 1437   4.578   2.758   7.146 -0.1427  0.2988  0.1671
 1438COC    COC 1438   4.454   2.567   6.925  0.1368 -0.1520  0.2716
 1439COC    COC 1439   4.397   2.710   6.681 -0.4613  0.0336  0.0619
 1440COC    COC 1440   4.139   2.644   6.540 -0.4081 -0.0487  0.1519
 1441COC    COC 1441   3.951   2.686   6.786 -0.4773 -0.2293 -0.1985
 1442COC    COC 1442   3.791   2.929   6.900 -0.1398  0.1600 -0.1569
 1443COC    COC 1443   3.853   3.198   6.765  0.0535  0.1490  0.3496
 1444COC    COC 1444   4.102   3.235   6.584 -0.2215 -0.0589  0.0684
 1445COC    COC 1445   4.404   3.156   6.632 -0.2559  0.4657 -0.1995
 1446COC    COC 1446   4.640   3.337   6.483 -0.2731  0.0068  0.0041
 1447COC    COC 1447   4.739   3.600   6.557 -0.1672  0.0741  0.2547
 1448COC    COC 1448   4.622   3.833   6.375 -0.0740  0.1931  0.2054
 1449COC    COC 1449   4.550   4.110   6.460  0.0030  0.5340  0.0034
 1450COC    COC 1450   4.293   4.016   6.567 -0.0684  0.2187 -0.4053
 1451COC    COC 1451   4.131   3.997   6.830  0.4596  0.1156  0.2133
 1452COC    COC 1452   3.923   3.767   6.802  0.1958  0.2935  0.3611
 1453COC    COC 1453   3.811   3.555   6.950  0.0333  0.1788 -0.0745
 1454COC    COC 1454   3.870   3.376   7.183 -0.1156  0.1112 -0.0835
 1455COC    COC 1455   3.770   3.121   7.316  0.1364 -0.1899 -0.4044
 1456COC    COC 1456   3.968   2.931   7.449 -0.1939 -0.3509 -0.1915
 1457COC    COC 1457   4.214   3.073   7.462 -0.3443  0.2074  0.1469
 1458COC    COC 1458   4.286   3.358   7.315  0.0568  0.0041 -0.1840
 1459COC    COC 1459   4.602   3.324   7.272  0.0614 -0.2063 -0.4099
 1460COC    COC 1460   4.661   3.121   7.475 -0.0597 -0.0464 -0.4109
 1461COC    COC 1461   4.963   3.045   7.502  0.2471 -0.0876 -0.3394
 1462COC    COC 1462   5.095   2.885   7.726  0.0326  0.0576 -0.3412
 1463COC    COC 1463   5.113   2.581   7.689 -0.3121  0.2523 -0.3386
 1464COC    COC 1464   5.051   2.440   7.946 -0.1662 -0.0376  0.6631
 1465COC    COC 1465   5.007   2.609   8.194 -0.0314  0.0355  0.2814
 1466COC    COC 1466   4.773   2.803   8.122  0.2776  0.0648 -0.3267
 1467COC    COC 1467   4.668   2.995   8.350 -0.1863  0.0140  0.4364
 1468COC    COC 1468   4.436   2.979   8.477  0.1916 -0.1410 -0.0970
 1469COC    COC 1469   4.212   3.008   8.298  0.6207 -0.0115  0.0312
 1470COC    COC 1470   4.076   2.924   8.006  0.2821  0.4938  0.5688
 1471COC    COC 1471   3.774   2.879   7.888  0.1530  0.3787 -0.2816
 1472COH    COH 1472   3.723   3.040   7.728 -0.1175 -0.2556  0.0186
 1473COH    COH 1473   8.618   0.920   7.834  0.6356  0.5708  0.2487
 1474COC    COC 1474   8.360   0.988   7.857  0.1794  0.1691 -0.1326
 1475COC    COC 1475   8.352   1.319   7.859  0.4050 -0.2956  0.1542
 1476COC    COC 1476   8.191   1.520   8.037 -0.1872  0.2468  0.2439
 1477COC    COC 1477   7.889   1.680   7.981 -0.0466  0.3864 -0.0694
 1478COC    COC 1478   7.728   1.634   8.250 -0.1749 -0.0256  0.3142
 1479COC    COC 1479   7.651   1.383   8.379 -0.0330  0.0646 -0.1445
 1480COC    COC 1480   7.549   1.081   8.416  0.5197 -0.1167 -0.1104
 1481COC    COC 1481   7.286   1.065   8.549  0.6011  0.1770  0.0447
 1482COC    COC 1482   7.067   0.946   8.710  0.1168  0.0855 -0.0570
 1483COC    COC 1483   6.980   0.674   8.639  0.1936  0.0092 -0.7009
 1484COC    COC 1484   6.804   0.447   8.630 -0.1041 -0.0349  0.2912
 1485COC    COC 1485   6.804   0.281   8.375 -0.2059  0.3276 -0.1132
 1486COC    COC 1486   6.808   0.520   8.162  0.0406  0.1267  0.1196
 1487COC    COC 1487   6.778   0.437   7.869  0.6287  0.1592  0.2429
 1488COC    COC 1488   6.612   0.521   7.637  0.1786  0.0068  0.3033
 1489COC    COC 1489   6.502   0.431   7.364  0.3319  0.0605 -0.4177
 1490COC    COC 1490   6.278   0.276   7.244  0.1049  0.5899 -0.1175
 1491COC    COC 1491   5.954   0.226   7.263 -0.3275 -0.1463 -0.0914
 1492COC    COC 1492   5.784   0.252   7.036 -0.2136  0.0010 -0.3019
 1493COC    COC 1493   5.583   0.431   6.905  0.1148 -0.1804 -0.1725
 1494COC    COC 1494   5.367   0.619   6.783  0.0364 -0.4413 -0.3616
 1495COC    COC 1495   5.279   0.578   6.523  0.2615  0.1533 -0.2836
 1496COC    COC 1496   5.224   0.305   6.429 -0.2369 -0.5700  0.2101
 1497COC    COC 1497   5.234   0.192   6.151  0.0457 -0.2255  0.0392
 1498COC    COC 1498   5.276   0.144   5.857  0.0339 -0.3092 -0.1093
 1499COC    COC 1499   5.406   0.391   5.695 -0.1747  0.0769 -0.2375
 1500COC    COC 1500   5.583   0.528   5.876  0.0946 -0.1817  0.2523
 1501COC    COC 1501   5.464   0.597   6.135 -0.1109 -0.1769 -0.1169
 1502COC    COC 1502   5.361   0.863   6.239 -0.3019  0.4621  0.0616
 1503COC    COC 1503   5.570   0.914   6.416 -0.1946  0.3174  0.1811
 1504COC    COC 1504   5.707   0.618   6.516  0.0295 -0.3688 -0.1460
 1505COC    COC 1505   5.965   0.524   6.576  0.1985 -0.2436 -0.0197
 1506COC    COC 1506   6.085   0.541   6.848  0.0631  0.3830 -0.0389
 1507COC    COC 1507   6.169   0.804   7.009  0.0819 -0.1600  0.1228
 1508COC    COC 1508   6.341   1.008   6.904 -0.4368 -0.3702  0.0997
 1509COC    COC 1509   6.287   1.305   6.873  0.0441 -0.1419 -0.2393
 1510COC    COC 1510   6.433   1.568   6.849 -0.2490 -0.2716 -0.2589
 1511COC    COC 1511   6.713   1.641   6.817 -0.3733 -0.2976 -0.0960
 1512COC    COC 1512   6.913   1.441   6.974  0.1227 -0.0647 -0.1831
 1513COC    COC 1513   6.950   1.160   7.084  0.3727  0.1224 -0.1831
 1514COC    COC 1514   6.719   0.935   7.091 -0.1424  0.0030 -0.2783
 1515COC    COC 1515   6.695   0.631   7.027 -0.5008  0.1102  0.1760
 1516COC    COC 1516   6.496   0.399   6.919 -0.1940  0.1542 -0.3702
 1517COC    COC 1517   6.373   0.164   6.803 -0.1062 -0.3786 -0.0868
 1518COH    COH 1518   6.140   0.119   6.936 -0.0702 -0.2276 -0.1560
 1519COH    COH 1519   7.590   2.479   7.350  0.2098 -0.3077  0.1087
 1520COC    COC 1520   7.518   2.273   7.489  0.0491 -0.2925  0.1226
 1521COC    COC 1521   7.535   2.233   7.807 -0.1455 -0.0597  0.3105
 1522COC    COC 1522   7.746   2.487   7.788  0.2155  0.1955 -0.1043
 1523COC    COC 1523   7.554   2.701   7.659 -0.0736 -0.1938  0.0267
 1524COC    COC 1524   7.280   2.606   7.555  0.3241 -0.0448 -0.0562
 1525COC    COC 1525   7.089   2.405   7.612  0.2900  0.2196  0.2886
 1526COC    COC 1526   7.018   2.129   7.444 -0.0427 -0.3496 -0.0111
 1527COC    COC 1527   7.134   1.919   7.604 -0.1777 -0.1121 -0.1668
 1528COC    COC 1528   7.131   1.677   7.434  0.0427  0.0336  0.1049
 1529COC    COC 1529   6.850   1.674   7.355 -0.4384  0.4898  0.2810
 1530COC    COC 1530   6.641   1.732   7.576  0.2191  0.2187  0.0579
 1531COC    COC 1531   6.665   1.956   7.773  0.1768  0.0226  0.0224
 1532COC    COC 1532   6.757   2.201   7.906 -0.1794  0.1160 -0.0255
 1533COC    COC 1533   7.000   2.180   8.101 -0.0888  0.0411 -0.0341
 1534COC    COC 1534   7.122   1.906   8.091 -0.2909 -0.0927  0.1764
 1535COC    COC 1535   7.444   1.856   8.004  0.2078  0.2103  0.0621
 1536COC    COC 1536   7.481   1.745   7.732 -0.2232 -0.0582  0.0342
 1537COC    COC 1537   7.572   1.492   7.713 -0.2309  0.2497 -0.1697
 1538COC    COC 1538   7.647   1.262   7.497  0.0294 -0.2002 -0.1094
 1539COC    COC 1539   7.628   1.013   7.659 -0.1144  0.1022 -0.1760
 1540COC    COC 1540   7.610   0.736   7.523  0.0281 -0.3225 -0.1992
 1541COC    COC 1541   7.553   0.706   7.209  0.1730 -0.3078  0.1320
 1542COC    COC 1542   7.790   0.912   7.162  0.2243 -0.0009  0.3610
 1543COC    COC 1543   7.750   1.038   6.857 -0.2089 -0.2853 -0.4707
 1544COC    COC 1544   7.662   1.317   6.764  0.0210 -0.0763 -0.1436
 1545COC    COC 1545   7.735   1.557   6.519 -0.0295  0.3306 -0.0315
 1546COC    COC 1546   7.802   1.454   6.217  0.1523 -0.1145  0.0827
 1547COC    COC 1547   7.926   1.544   5.945  0.0805 -0.4594  0.0322
 1548COC    COC 1548   7.724   1.793   5.964  0.0349 -0.0359  0.0283
 1549COC    COC 1549   7.573   1.754   5.684 -0.2497  0.1026 -0.2138
 1550COC    COC 1550   7.516   2.046   5.619  0.0790 -0.0443 -0.0428
 1551COC    COC 1551   7.382   2.145   5.900  0.3795 -0.2473  0.3184
 1552COC    COC 1552   7.446   2.427   5.885  0.0137  0.1927 -0.1992
 1553COC    COC 1553   7.742   2.510   6.003 -0.3993  0.1139  0.0139
 1554COC    COC 1554   7.794   2.805   6.105 -0.1206 -0.1912  0.5376
 1555COC    COC 1555   7.919   3.052   5.909 -0.0551  0.0262 -0.4116
 1556COC    COC 1556   7.774   2.926   5.657 -0.2830 -0.4777 -0.1242
 1557COC    COC 1557   7.747   3.043   5.393 -0.1847 -0.3625  0.3728
 1558COC    COC 1558   7.650   2.799   5.262  0.3578  0.0682 -0.1302
 1559COC    COC 1559   7.527   2.637   5.508  0.0008 -0.1822 -0.1929
 1560COC    COC 1560   7.187   2.617   5.500 -0.0464 -0.0050 -0.1396
 1561COC    COC 1561   7.014   2.616   5.787  0.0632 -0.3320  0.0516
 1562COC    COC 1562   7.155   2.784   6.014 -0.1863  0.0544  0.2060
 1563COC    COC 1563   7.411   2.991   6.065 -0.1497 -0.0925 -0.0309
 1564COH    COH 1564   7.294   3.103   6.271 -0.0867  0.1794  0.1917
 1565COH    COH 1565   8.164   9.336   3.356  0.0099 -0.0360  0.0383
 1566COC    COC 1566   8.121   9.394   3.640 -0.2389 -0.2225  0.0237
 1567COC    COC 1567   8.082   9.109   3.806  0.1471 -0.1437  0.1398
 1568COC    COC 1568   7.909   8.851   3.723 -0.0478 -0.3294 -0.2110
 1569COC    COC 1569   8.000   8.569   3.730 -0.3611 -0.2799 -0.2212
 1570COC    COC 1570   7.930   8.327   3.551 -0.2592  0.2095 -0.3319
 1571COC    COC 1571   7.822   8.052   3.596  0.1730 -0.0717  0.1749
 1572COC    COC 1572   7.710   7.862   3.383 -0.2714 -0.1265  0.4923
 1573COC    COC 1573   7.812   7.732   3.120 -0.4470  0.0586 -0.0087
 1574COC    COC 1574   8.036   7.547   3.221 -0.4735  0.1204 -0.6339
 1575COC    COC 1575   8.255   7.480   3.008  0.0008  0.1355  0.1069
 1576COC    COC 1576   8.330   7.187   3.076  0.0637 -0.0201  0.0615
 1577COC    COC 1577   8.177   6.924   3.111 -0.2154 -0.0682  0.3054
 1578COC    COC 1578   7.996   6.793   2.892  0.3341 -0.1447  0.0427
 1579COC    COC 1579   7.736   6.655   2.804  0.2511  0.0282  0.0024
 1580COC    COC 1580   7.495   6.617   2.644  0.3227 -0.0261 -0.1523
 1581COC    COC 1581   7.530   6.683   2.329 -0.1692 -0.0765 -0.0683
 1582COC    COC 1582   7.798   6.631   2.241 -0.1601  0.5506 -0.3384
 1583COC    COC 1583   7.986   6.566   2.502 -0.3468 -0.0921  0.0581
 1584COC    COC 1584   8.045   6.267   2.549  0.2205  0.0075  0.3891
 1585COC    COC 1585   8.207   5.996   2.402  0.0714  0.1000  0.3468
 1586COC    COC 1586   7.994   5.808   2.478  0.3425  0.5457 -0.2007
 1587COC    COC 1587   7.717   5.937   2.617  0.1629  0.4356 -0.0152
 1588COC    COC 1588   7.446   5.846   2.533 -0.1305 -0.1926 -0.0072
 1589COC    COC 1589   7.312   5.921   2.275 -0.3602 -0.2168 -0.2300
 1590COC    COC 1590   7.516   5.867   2.060  0.0924 -0.4996  0.0770
 1591COC    COC 1591   7.534   5.685   1.810 -0.1191  0.2033  0.1662
 1592COC    COC 1592   7.485   5.394   1.882  0.2183  0.0752 -0.0750
 1593COC    COC 1593   7.300   5.333   2.116  0.1040  0.1366 -0.2760
 1594COC    COC 1594   7.165   5.077   2.165  0.0997  0.0531  0.0005
 1595COC    COC 1595   6.937   4.919   2.030 -0.1079  0.0857 -0.1867
 1596COC    COC 1596   6.927   4.661   2.203  0.1515  0.2162 -0.0961
 1597COC    COC 1597   7.114   4.497   2.358  0.2262  0.1505  0.2526
 1598COC    COC 1598   7.376   4.649   2.510 -0.0909 -0.1889  0.0641
 1599COC    COC 1599   7.233   4.771   2.798 -0.3657 -0.0553  0.0219
 1600COC    COC 1600   7.142   5.027   2.744 -0.3135 -0.4018  0.1296
 1601COC    COC 1601   6.976   4.936   2.527 -0.2323 -0.0304  0.2323
 1602COC    COC 1602   6.712   5.113   2.526 -0.1062 -0.3364 -0.4880
 1603COC    COC 1603   6.634   5.160   2.816 -0.0426  0.0201 -0.1750
 1604COC    COC 1604   6.808   5.046   3.028  0.4573 -0.0660 -0.2544
 1605COC    COC 1605   6.761   5.160   3.314  0.3672  0.1835  0.0626
 1606COC    COC 1606   6.612   5.085   3.591 -0.0276 -0.1523 -0.4948
 1607COC    COC 1607   6.587   5.360   3.797 -0.1680  0.4115 -0.0519
 1608COC    COC 1608   6.781   5.207   3.958  0.0518 -0.0825 -0.4057
 1609COC    COC 1609   6.736   5.100   4.219 -0.1845  0.3566 -0.1582
 1610COH    COH 1610   6.555   4.957   4.340 -0.1581  0.4009 -0.0494
 1611COH    COH 1611   9.285   1.562   8.554  0.0037  0.1484  0.0421
 1612COC    COC 1612   9.528   1.425   8.573 -0.0396 -0.0426 -0.1787
 1613COC    COC 1613   9.542   1.459   8.846  0.0392  0.0633 -0.3248
 1614COC    COC 1614   9.391   1.498   9.124 -0.0319 -0.0213 -0.1092
 1615COC    COC 1615   9.150   1.681   9.190  0.1150  0.3532  0.0105
 1616COC    COC 1616   9.113   1.967   9.127  0.0600  0.2469  0.5061
 1617COC    COC 1617   8.939   2.044   8.867  0.3739 -0.5253 -0.1497
 1618COC    COC 1618   8.885   1.756   8.804  0.0185 -0.2214 -0.0006
 1619COC    COC 1619   8.558   1.796   8.773 -0.2386  0.7242  0.2084
 1620COC    COC 1620   8.485   2.090   8.602 -0.2018 -0.0891 -0.0691
 1621COC    COC 1621   8.223   2.109   8.504  0.2517 -0.2686 -0.1872
 1622COC    COC 1622   8.170   1.851   8.392 -0.2823  0.0909  0.4727
 1623COC    COC 1623   8.409   1.660   8.386 -0.2688 -0.1648 -0.2797
 1624COC    COC 1624   8.601   1.856   8.205 -0.4454 -0.2371 -0.1263
 1625COC    COC 1625   8.501   2.143   8.130  0.4113  0.4349  0.3432
 1626COC    COC 1626   8.591   2.397   8.036  0.2355 -0.0054 -0.2316
 1627COC    COC 1627   8.847   2.571   8.083 -0.0920  0.1590  0.1426
 1628COC    COC 1628   8.920   2.665   7.815 -0.2286  0.1374 -0.2180
 1629COC    COC 1629   9.145   2.641   7.591 -0.2392 -0.0224  0.1366
 1630COC    COC 1630   9.204   2.810   7.376 -0.1153  0.2414  0.3661
 1631COC    COC 1631   8.976   2.967   7.318  0.2564  0.1533 -0.0035
 1632COC    COC 1632   8.837   3.052   7.586 -0.1347 -0.2317 -0.0577
 1633COC    COC 1633   9.013   3.257   7.706 -0.0674 -0.1858 -0.1012
 1634COC    COC 1634   8.918   3.431   7.944  0.1187 -0.0372 -0.0161
 1635COC    COC 1635   8.985   3.629   8.125  0.4369 -0.0556 -0.2484
 1636COC    COC 1636   9.200   3.820   8.265 -0.3462  0.1063 -0.1528
 1637COC    COC 1637   9.258   3.763   8.587 -0.1915  0.1997 -0.1190
 1638COC    COC 1638   9.473   3.565   8.602  0.1544 -0.1724  0.0849
 1639COC    COC 1639   9.511   3.369   8.846  0.2616  0.4090  0.0165
 1640COC    COC 1640   9.571   3.067   8.825  0.2251 -0.2479  0.0808
 1641COC    COC 1641   9.656   2.811   8.955  0.1536  0.2636 -0.1539
 1642COC    COC 1642   9.466   2.584   8.920 -0.4223  0.3356  0.4180
 1643COC    COC 1643   9.233   2.396   8.893 -0.1426  0.1158  0.1250
 1644COC    COC 1644   9.013   2.583   8.964 -0.0512  0.1449  0.0273
 1645COC    COC 1645   8.929   2.679   9.212  0.1844 -0.2765  0.0935
 1646COC    COC 1646   8.948   2.898   9.439 -0.1340  0.1176 -0.2503
 1647COC    COC 1647   8.916   3.205   9.470  0.2077 -0.0614 -0.0609
 1648COC    COC 1648   8.797   3.276   9.191  0.1372 -0.4114 -0.2019
 1649COC    COC 1649   8.472   3.356   9.140 -0.2214  0.0732  0.2494
 1650COC    COC 1650   8.254   3.527   9.210 -0.3260  0.0106 -0.0546
 1651COC    COC 1651   8.242   3.762   9.350 -0.4137 -0.0283 -0.1181
 1652COC    COC 1652   8.149   3.940   9.096 -0.0913  0.1992 -0.0049
 1653COC    COC 1653   8.297   4.151   8.933  0.2420  0.1446 -0.0692
 1654COC    COC 1654   8.486   4.333   8.817  0.1294  0.0801  0.1016
 1655COC    COC 1655   8.419   4.430   8.541  0.3890  0.2940  0.2549
 1656COH    COH 1656   8.575   4.328   8.317 -0.2395  0.1926  0.2792
 1657COH    COH 1657   6.288   9.625   1.810  0.6353  0.2561  0.0947
 1658COC    COC 1658   6.354   9.863   1.850 -0.0324 -0.2079  0.4710
 1659COC    COC 1659   6.625   9.876   2.018  0.3343 -0.5446 -0.0234
 1660COC    COC 1660   6.752   9.822   2.298 -0.3146  0.2786  0.3030
 1661COC    COC 1661   6.859   9.571   2.338  0.2057 -0.1362  0.1778
 1662COC    COC 1662   6.934   9.524   2.629 -0.0264  0.2227  0.1975
 1663COC    COC 1663   7.017   9.296   2.850 -0.2068 -0.3073 -0.0162
 1664COC    COC 1664   7.288   9.192   2.906  0.1057  0.0773 -0.1889
 1665COC    COC 1665   7.368   9.077   3.181  0.1286 -0.2144  0.4592
 1666COC    COC 1666   7.049   9.123   3.298  0.0236  0.1828 -0.1493
 1667COC    COC 1667   6.832   8.931   3.412  0.0279  0.0993 -0.0374
 1668COC    COC 1668   6.845   8.858   3.692 -0.0784 -0.2573  0.1425
 1669COC    COC 1669   7.117   8.773   3.855  0.0613  0.3091 -0.5486
 1670COC    COC 1670   7.226   8.501   3.848  0.1219  0.0387 -0.0325
 1671COC    COC 1671   7.127   8.231   3.984  0.1461 -0.1498 -0.1368
 1672COC    COC 1672   7.025   8.071   3.751 -0.2462 -0.1622  0.1011
 1673COC    COC 1673   6.947   7.789   3.756 -0.1098 -0.0378  0.0260
 1674COC    COC 1674   6.625   7.801   3.861 -0.4791 -0.1527  0.0282
 1675COC    COC 1675   6.474   7.588   3.953  0.0361  0.3440 -0.4184
 1676COC    COC 1676   6.475   7.340   3.785  0.0879  0.1619 -0.2246
 1677COC    COC 1677   6.696   7.426   3.644 -0.4674  0.2185  0.3456
 1678COC    COC 1678   6.842   7.547   3.391 -0.2055 -0.2839 -0.0956
 1679COC    COC 1679   6.636   7.518   3.187  0.0160 -0.2243 -0.1330
 1680COC    COC 1680   6.363   7.591   3.164 -0.4788 -0.1314  0.1778
 1681COC    COC 1681   6.243   7.870   3.063 -0.0494 -0.0672  0.2551
 1682COC    COC 1682   6.387   8.120   2.972 -0.3886 -0.2456  0.2102
 1683COC    COC 1683   6.264   8.415   2.996 -0.0906  0.1747  0.0744
 1684COC    COC 1684   6.318   8.697   3.042 -0.6194 -0.0858  0.0452
 1685COC    COC 1685   6.235   8.888   2.799 -0.1694  0.0061 -0.0591
 1686COC    COC 1686   6.205   8.978   2.501 -0.3045 -0.1018  0.0437
 1687COC    COC 1687   6.238   8.906   2.190 -0.0829 -0.2211 -0.1482
 1688COC    COC 1688   6.119   8.711   2.029  0.0158  0.1678  0.0347
 1689COC    COC 1689   6.209   8.557   1.776 -0.2069 -0.1953  0.1796
 1690COC    COC 1690   6.219   8.780   1.534  0.4639 -0.5037  0.1451
 1691COC    COC 1691   6.397   8.980   1.388  0.1848  0.0480  0.0789
 1692COC    COC 1692   6.240   9.170   1.223  0.0466  0.0107 -0.2128
 1693COC    COC 1693   6.324   9.429   1.351  0.0154  0.1572  0.3486
 1694COC    COC 1694   6.472   9.359   1.628 -0.0879 -0.3881  0.0300
 1695COC    COC 1695   6.574   9.399   1.923  0.0235 -0.2464 -0.4353
 1696COC    COC 1696   6.890   9.303   1.966 -0.1648 -0.0664  0.0631
 1697COC    COC 1697   7.068   9.072   2.084 -0.1857 -0.3031  0.1745
 1698COC    COC 1698   7.026   8.800   2.156 -0.0123  0.3844  0.1445
 1699COC    COC 1699   7.269   8.656   2.240 -0.0123  0.0066 -0.1338
 1700COC    COC 1700   7.419   8.712   2.463 -0.1453 -0.2937  0.3190
 1701COC    COC 1701   7.343   8.640   2.710 -0.1554 -0.3518  0.3841
 1702COH    COH 1702   7.447   8.836   2.860  0.0965 -0.1431  0.2487
 1703COH    COH 1703   2.146   4.145   3.163  0.1212  0.2369  0.0420
 1704COC    COC 1704   1.958   4.155   2.997 -0.0674 -0.2575 -0.1665
 1705COC    COC 1705   1.957   3.994   2.734 -0.3339  0.2897 -0.2373
 1706COC    COC 1706   2.124   3.888   2.479 -0.0537  0.2906 -0.0779
 1707COC    COC 1707   1.964   3.749   2.279  0.3554 -0.0906 -0.0651
 1708COC    COC 1708   1.725   3.637   2.377 -0.2406  0.0873  0.3747
 1709COC    COC 1709   1.613   3.827   2.548  0.0693  0.1108 -0.4211
 1710COC    COC 1710   1.694   3.660   2.822  0.2880 -0.0563 -0.2770
 1711COC    COC 1711   1.569   3.397   2.870 -0.0713 -0.1949 -0.0025
 1712COC    COC 1712   1.701   3.203   2.665  0.2326  0.0521  0.1803
 1713COC    COC 1713   1.850   3.079   2.428  0.4415 -0.0988 -0.0280
 1714COC    COC 1714   1.978   3.243   2.222 -0.5060 -0.0192 -0.3472
 1715COC    COC 1715   1.988   3.162   1.935  0.0755 -0.0024  0.0829
 1716COC    COC 1716   1.915   3.398   1.724 -0.1560  0.0934 -0.0208
 1717COC    COC 1717   1.693   3.285   1.591  0.0003  0.0174  0.5651
 1718COC    COC 1718   1.644   3.010   1.635  0.0853  0.0473 -0.4315
 1719COC    COC 1719   1.405   2.974   1.827  0.3285  0.1122 -0.0709
 1720COC    COC 1720   1.344   2.798   2.050 -0.2139 -0.0599  0.0022
 1721COC    COC 1721   1.203   2.983   2.279  0.0009  0.1636  0.0122
 1722COC    COC 1722   1.124   2.910   2.542  0.0048  0.0907 -0.1225
 1723COC    COC 1723   1.301   3.054   2.757 -0.0818 -0.1027 -0.3111
 1724COC    COC 1724   1.348   3.089   3.062  0.1886  0.0545  0.3070
 1725COC    COC 1725   1.204   2.990   3.306  0.1231 -0.1147 -0.1764
 1726COC    COC 1726   1.277   2.714   3.410 -0.1283  0.2689 -0.1174
 1727COC    COC 1727   1.402   2.571   3.702 -0.1707 -0.0803 -0.1794
 1728COC    COC 1728   1.678   2.558   3.823  0.0092  0.1519 -0.0043
 1729COC    COC 1729   1.695   2.345   4.022 -0.1167 -0.1579  0.0035
 1730COC    COC 1730   1.572   2.289   4.282  0.1844  0.0583 -0.1144
 1731COC    COC 1731   1.606   2.528   4.457  0.1157 -0.1377  0.3398
 1732COC    COC 1732   1.770   2.483   4.717  0.0270 -0.0715 -0.4731
 1733COC    COC 1733   1.777   2.244   4.929  0.0992 -0.0697 -0.1691
 1734COC    COC 1734   1.556   2.009   5.004  0.0450 -0.1583 -0.1840
 1735COC    COC 1735   1.388   1.855   4.772 -0.1725  0.0447 -0.3045
 1736COC    COC 1736   1.479   1.598   4.742 -0.2958 -0.4438  0.1839
 1737COC    COC 1737   1.781   1.560   4.836 -0.3115 -0.0602 -0.1143
 1738COC    COC 1738   1.907   1.770   5.009 -0.0595  0.0453  0.1961
 1739COC    COC 1739   2.150   1.801   5.161  0.3057  0.3598 -0.0201
 1740COC    COC 1740   2.136   1.752   5.486  0.1879  0.1342  0.1679
 1741COC    COC 1741   2.138   1.503   5.675  0.1683  0.3782 -0.0403
 1742COC    COC 1742   1.921   1.292   5.772 -0.1813  0.1603  0.1843
 1743COC    COC 1743   1.734   1.046   5.789  0.0107  0.1422  0.2088
 1744COC    COC 1744   1.578   1.087   5.519 -0.1135 -0.0676  0.0086
 1745COC    COC 1745   1.739   0.929   5.302  0.0237  0.3738  0.2613
 1746COC    COC 1746   1.826   0.678   5.122  0.0098  0.2067  0.0258
 1747COC    COC 1747   1.899   0.738   4.815 -0.1722 -0.3674  0.0736
 1748COH    COH 1748   2.132   0.670   4.793 -0.0501 -0.2175  0.1916
 1749COH    COH 1749   1.687   6.408   2.058  0.3604 -0.0596  0.2052
 1750COC    COC 1750   1.669   6.638   2.220 -0.1575 -0.0761 -0.0290
 1751COC    COC 1751   1.428   6.789   2.270  0.1753 -0.0960  0.0825
 1752COC    COC 1752   1.445   7.053   2.405 -0.0886  0.4985 -0.0068
 1753COC    COC 1753   1.629   7.280   2.392  0.3504 -0.2774 -0.3534
 1754COC    COC 1754   1.690   7.459   2.173  0.3815  0.1571  0.3569
 1755COC    COC 1755   1.460   7.573   2.016 -0.0048  0.3434 -0.0052
 1756COC    COC 1756   1.348   7.817   2.203 -0.0306  0.2122 -0.3058
 1757COC    COC 1757   1.364   7.669   2.491 -0.1402  0.0858  0.2766
 1758COC    COC 1758   1.539   7.781   2.737 -0.2660 -0.3544 -0.0972
 1759COC    COC 1759   1.451   7.775   3.066 -0.2496  0.0501  0.3768
 1760COC    COC 1760   1.256   7.594   3.197  0.2573 -0.1152  0.0625
 1761COC    COC 1761   1.031   7.690   3.295  0.0371 -0.2525 -0.2070
 1762COC    COC 1762   0.782   7.584   3.169 -0.2155 -0.0143  0.1385
 1763COC    COC 1763   0.610   7.600   2.912  0.0249 -0.0398  0.0248
 1764COC    COC 1764   0.826   7.511   2.715 -0.2381 -0.1731 -0.1177
 1765COC    COC 1765   1.073   7.373   2.785  0.1808 -0.4473 -0.1922
 1766COC    COC 1766   1.165   7.070   2.727 -0.1538  0.0621  0.0105
 1767COC    COC 1767   1.137   6.780   2.613 -0.6471  0.4159 -0.4173
 1768COC    COC 1768   1.362   6.601   2.748  0.1466  0.1129  0.1260
 1769COC    COC 1769   1.374   6.348   2.590 -0.0616 -0.0807  0.0935
 1770COC    COC 1770   1.391   6.362   2.300  0.1193 -0.0947  0.0326
 1771COC    COC 1771   1.128   6.321   2.195  0.2772 -0.0324  0.5895
 1772COC    COC 1772   0.960   6.314   2.422 -0.0338  0.1376  0.3809
 1773COC    COC 1773   0.816   6.158   2.604 -0.1317  0.1522 -0.1922
 1774COC    COC 1774   0.671   5.941   2.671  0.2407 -0.4776  0.2152
 1775COC    COC 1775   0.716   5.801   2.983 -0.1070  0.8083  0.0668
 1776COC    COC 1776   0.934   5.613   3.036  0.3310 -0.0243 -0.4871
 1777COC    COC 1777   0.926   5.303   3.004  0.2335  0.2750 -0.0356
 1778COC    COC 1778   0.667   5.171   3.051 -0.0626  0.1951 -0.0393
 1779COC    COC 1779   0.495   5.330   2.903  0.5843 -0.4974  0.3095
 1780COC    COC 1780   0.492   5.521   2.699 -0.0427 -0.1241  0.1231
 1781COC    COC 1781   0.376   5.345   2.499 -0.0496 -0.4055  0.1873
 1782COC    COC 1782   0.381   5.066   2.513 -0.2564 -0.0640 -0.2219
 1783COC    COC 1783   0.452   4.798   2.434 -0.1502 -0.3408 -0.2197
 1784COC    COC 1784   0.658   4.795   2.250 -0.0577  0.0349  0.0379
 1785COC    COC 1785   0.741   4.478   2.184 -0.1982  0.1139 -0.1863
 1786COC    COC 1786   0.723   4.338   2.467  0.0525  0.3025  0.1294
 1787COC    COC 1787   0.637   4.177   2.735  0.1381  0.1367  0.1086
 1788COC    COC 1788   0.426   4.016   2.791 -0.0555  0.0587 -0.2397
 1789COC    COC 1789   0.366   3.768   2.650  0.0804 -0.2276 -0.1308
 1790COC    COC 1790   0.422   3.722   2.341  0.0195  0.2560  0.1098
 1791COC    COC 1791   0.211   3.629   2.169  0.1341 -0.0006  0.2182
 1792COC    COC 1792   0.055   3.872   2.263 -0.1147 -0.2178  0.2393
 1793COC    COC 1793   0.119   4.138   2.392  0.0644  0.1766  0.1958
 1794COH    COH 1794  10.232   4.248   2.404 -0.1308 -0.2543 -0.4200
 1795COH    COH 1795   9.046   3.776   7.105 -0.1550  0.3112  0.0399
 1796COC    COC 1796   8.999   3.888   6.891 -0.1601 -0.0720  0.0112
 1797COC    COC 1797   8.880   4.165   6.905  0.4481 -0.1781 -0.1203
 1798COC    COC 1798   8.933   4.454   6.813  0.5027 -0.1368  0.1392
 1799COC    COC 1799   9.213   4.557   6.734 -0.1730 -0.1160  0.0282
 1800COC    COC 1800   9.457   4.675   6.915 -0.3441  0.2317  0.0897
 1801COC    COC 1801   9.613   4.441   7.015 -0.3401  0.0653 -0.3569
 1802COC    COC 1802   9.825   4.253   6.966 -0.3257 -0.3532 -0.0766
 1803COC    COC 1803   9.862   4.341   6.670 -0.5394  0.7038  0.1917
 1804COC    COC 1804   9.788   4.425   6.393 -0.0704 -0.1038 -0.0753
 1805COC    COC 1805   9.988   4.682   6.369 -0.2248  0.0201  0.3343
 1806COC    COC 1806   9.994   4.985   6.340 -0.0729  0.2902  0.0319
 1807COC    COC 1807  10.154   5.069   6.118 -0.0773  0.0529  0.1245
 1808COC    COC 1808  10.137   5.347   5.996 -0.2957  0.0464 -0.1707
 1809COC    COC 1809   9.901   5.483   6.050  0.2020  0.3288  0.0182
 1810COC    COC 1810   9.708   5.249   5.977  0.0559  0.0883 -0.1902
 1811COC    COC 1811   9.516   5.181   6.175  0.3521 -0.4581  0.1860
 1812COC    COC 1812   9.702   5.247   6.409  0.6045  0.0446  0.0679
 1813COC    COC 1813   9.657   5.161   6.676 -0.2620 -0.0290 -0.4351
 1814COC    COC 1814   9.336   5.189   6.717  0.0173  0.2294  0.1787
 1815COC    COC 1815   9.051   5.073   6.770  0.0425  0.5595  0.0157
 1816COC    COC 1816   8.793   5.252   6.729  0.2924 -0.2344 -0.0651
 1817COC    COC 1817   8.584   5.467   6.859 -0.0011 -0.2682  0.1204
 1818COC    COC 1818   8.696   5.770   6.792 -0.5187  0.1325 -0.0046
 1819COC    COC 1819   8.663   5.902   6.524  0.1826 -0.2789  0.0164
 1820COC    COC 1820   8.548   6.217   6.507  0.0659 -0.2568 -0.1378
 1821COC    COC 1821   8.415   6.204   6.786  0.0575  0.4425 -0.1972
 1822COC    COC 1822   8.276   6.492   6.827  0.0622 -0.0486 -0.1555
 1823COC    COC 1823   8.387   6.772   6.638  0.0139  0.1030  0.1453
 1824COC    COC 1824   8.578   6.740   6.384 -0.2900 -0.2900 -0.3637
 1825COC    COC 1825   8.729   6.926   6.181  0.0326 -0.5368 -0.1678
 1826COC    COC 1826   8.962   6.734   6.143  0.0396 -0.0627 -0.0039
 1827COC    COC 1827   9.060   6.961   5.911  0.1588  0.2807 -0.0768
 1828COC    COC 1828   8.869   7.147   5.801 -0.4427 -0.0234  0.0118
 1829COC    COC 1829   8.829   7.435   5.703  0.0618  0.3273 -0.2910
 1830COC    COC 1830   8.597   7.542   5.508 -0.3155 -0.2290  0.3337
 1831COC    COC 1831   8.617   7.848   5.445  0.5566 -0.0220 -0.0433
 1832COC    COC 1832   8.604   7.939   5.189 -0.3468  0.2187 -0.3729
 1833COC    COC 1833   8.469   8.001   4.954 -0.2817  0.1361  0.0543
 1834COC    COC 1834   8.722   8.125   4.794  0.5861 -0.1608  0.2989
 1835COC    COC 1835   8.913   8.105   4.959 -0.0431  0.0910  0.0472
 1836COC    COC 1836   8.986   7.820   5.102  0.2131 -0.2521  0.1056
 1837COC    COC 1837   9.266   7.714   5.167 -0.1297 -0.1539  0.4571
 1838COC    COC 1838   9.469   7.924   4.998 -0.1413 -0.0251  0.1102
 1839COC    COC 1839   9.685   8.071   5.162  0.0287  0.2154 -0.3079
 1840COH    COH 1840   9.909   7.984   5.284 -0.0013 -0.1338 -0.0417
 1841COH    COH 1841   5.894   8.738   4.662  0.0957 -0.0487  0.3748
 1842COC    COC 1842   6.171   8.715   4.581 -0.0146 -0.1918  0.4978
 1843COC    COC 1843   6.481   8.673   4.721  0.3325  0.0927  0.3344
 1844COC    COC 1844   6.597   8.681   4.996 -0.3121  0.1284 -0.0270
 1845COC    COC 1845   6.480   8.540   5.228 -0.0929  0.1840  0.0172
 1846COC    COC 1846   6.481   8.463   5.528 -0.0081 -0.2901  0.3092
 1847COC    COC 1847   6.763   8.428   5.568  0.3140  0.2932  0.0980
 1848COC    COC 1848   6.918   8.408   5.312 -0.2212  0.2448  0.3527
 1849COC    COC 1849   7.249   8.354   5.391 -0.2437 -0.0609  0.0689
 1850COC    COC 1850   7.450   8.106   5.396  0.2231  0.1842  0.2030
 1851COC    COC 1851   7.698   8.177   5.521  0.0100 -0.1683 -0.4835
 1852COC    COC 1852   7.801   7.972   5.686 -0.3764  0.1317 -0.0549
 1853COC    COC 1853   8.071   8.011   5.625 -0.2886 -0.0153 -0.1029
 1854COC    COC 1854   8.292   8.155   5.445  0.4008 -0.1275  0.3792
 1855COC    COC 1855   8.548   8.278   5.544 -0.0014 -0.2453  0.2648
 1856COC    COC 1856   8.644   8.436   5.785  0.0216  0.0542  0.1074
 1857COC    COC 1857   8.817   8.707   5.734  0.1791 -0.0572 -0.4036
 1858COC    COC 1858   8.876   8.590   5.436 -0.0919  0.4257  0.0442
 1859COC    COC 1859   8.928   8.273   5.366  0.3904  0.0492 -0.0424
 1860COC    COC 1860   9.198   8.172   5.373 -0.1885  0.2530 -0.4356
 1861COC    COC 1861   9.448   8.073   5.553  0.0083 -0.1254  0.0848
 1862COC    COC 1862   9.439   7.783   5.719 -0.1883 -0.2916 -0.4027
 1863COC    COC 1863   9.499   7.817   6.046  0.4743 -0.1845  0.0775
 1864COC    COC 1864   9.615   7.648   6.265  0.1270  0.1663 -0.4302
 1865COC    COC 1865   9.858   7.816   6.278  0.4154  0.3147 -0.3201
 1866COC    COC 1866  10.143   7.764   6.414 -0.0041  0.0098 -0.3248
 1867COC    COC 1867  10.268   7.677   6.708  0.0233  0.0178  0.3408
 1868COC    COC 1868  10.321   7.831   6.963  0.0030 -0.3036  0.0218
 1869COC    COC 1869   0.172   7.998   7.082 -0.0580 -0.4252 -0.0141
 1870COC    COC 1870   0.037   8.271   7.143  0.0317 -0.0625 -0.4219
 1871COC    COC 1871   0.282   8.356   7.327  0.1329  0.1912 -0.0187
 1872COC    COC 1872   0.493   8.583   7.459 -0.1960  0.1270 -0.0959
 1873COC    COC 1873   0.704   8.411   7.628 -0.1699 -0.2067  0.0981
 1874COC    COC 1874   0.943   8.597   7.668 -0.0682  0.4439 -0.2834
 1875COC    COC 1875   0.847   8.795   7.841  0.4264 -0.4918 -0.1883
 1876COC    COC 1876   0.511   8.852   7.835  0.3989  0.1715  0.0288
 1877COC    COC 1877   0.312   8.637   7.886 -0.2283  0.0467 -0.5988
 1878COC    COC 1878   0.128   8.523   8.132  0.0831 -0.2942  0.2341
 1879COC    COC 1879   0.350   8.470   8.305 -0.1786 -0.2120 -0.2939
 1880COC    COC 1880   0.548   8.711   8.333  0.1281 -0.0067 -0.0566
 1881COC    COC 1881   0.804   8.675   8.551  0.1000 -0.1425 -0.1292
 1882COC    COC 1882   1.049   8.665   8.725 -0.0189  0.0741 -0.1774
 1883COC    COC 1883   1.218   8.899   8.652  0.4740 -0.1619 -0.1906
 1884COC    COC 1884   1.483   8.828   8.535  0.2081  0.1357 -0.2370
 1885COC    COC 1885   1.503   8.654   8.299 -0.1093  0.0170 -0.0371
 1886COH    COH 1886   1.744   8.651   8.166  0.5381 -0.1639 -0.0425
 1887COH    COH 1887   3.697   6.402   8.961 -0.4493 -0.3082 -0.2909
 1888COC    COC 1888   3.904   6.299   8.791 -0.2419 -0.0925  0.1324
 1889COC    COC 1889   3.984   6.089   8.550 -0.2529  0.1883 -0.0561
 1890COC    COC 1890   4.061   6.189   8.280 -0.5271 -0.1314 -0.5349
 1891COC    COC 1891   3.928   6.148   8.011 -0.0875 -0.1507  0.2319
 1892COC    COC 1892   3.723   5.926   8.018  0.4815 -0.3841 -0.2375
 1893COC    COC 1893   3.536   5.999   8.243 -0.3751  0.3118 -0.4439
 1894COC    COC 1894   3.257   5.850   8.267  0.1302 -0.3712 -0.2761
 1895COC    COC 1895   3.267   5.669   8.510  0.1031 -0.4000  0.3251
 1896COC    COC 1896   3.444   5.545   8.729  0.2324  0.3759  0.4022
 1897COC    COC 1897   3.754   5.634   8.725  0.4034  0.0083  0.0485
 1898COC    COC 1898   3.910   5.653   8.459 -0.0493 -0.0425 -0.1085
 1899COC    COC 1899   3.785   5.575   8.206  0.3301 -0.3678 -0.0042
 1900COC    COC 1900   3.988   5.525   7.983 -0.1738  0.2028  0.0101
 1901COC    COC 1901   4.218   5.407   8.108  0.0086  0.4298  0.3499
 1902COC    COC 1902   4.508   5.491   7.953 -0.0141 -0.1832 -0.4564
 1903COC    COC 1903   4.721   5.328   7.828  0.0743 -0.0975  0.2160
 1904COC    COC 1904   4.739   5.063   8.008 -0.4927 -0.1687  0.0531
 1905COC    COC 1905   4.902   5.074   8.252  0.5207  0.0552 -0.1142
 1906COC    COC 1906   5.124   5.333   8.140 -0.1380  0.0802 -0.2523
 1907COC    COC 1907   5.162   5.473   8.360  0.3245  0.0522  0.5201
 1908COC    COC 1908   5.063   5.563   8.601  0.0791 -0.2373 -0.0983
 1909COC    COC 1909   5.086   5.609   8.897 -0.3492 -0.1991 -0.0779
 1910COC    COC 1910   4.890   5.456   9.086  0.4297 -0.3317  0.2608
 1911COC    COC 1911   4.639   5.455   9.000  0.5317  0.0180 -0.2765
 1912COC    COC 1912   4.505   5.295   8.787 -0.0168  0.3595  0.4150
 1913COC    COC 1913   4.180   5.359   8.724  0.3415 -0.3827 -0.0777
 1914COC    COC 1914   4.042   5.147   8.837  0.2179 -0.3133  0.4462
 1915COC    COC 1915   4.197   4.940   9.000  0.1033  0.3132  0.3944
 1916COC    COC 1916   4.197   4.633   9.085  0.1386  0.4652  0.0141
 1917COC    COC 1917   3.960   4.473   9.245 -0.0306 -0.2326 -0.0637
 1918COC    COC 1918   3.963   4.165   9.238  0.2007 -0.2952 -0.2540
 1919COC    COC 1919   4.254   4.129   9.270  0.0844 -0.0737  0.0204
 1920COC    COC 1920   4.499   4.330   9.228  0.2265  0.0066  0.0181
 1921COC    COC 1921   4.790   4.245   9.384  0.2919  0.0435 -0.0270
 1922COC    COC 1922   4.877   3.948   9.338  0.0468  0.0230 -0.1818
 1923COC    COC 1923   4.708   3.795   9.196 -0.0209 -0.0530 -0.0044
 1924COC    COC 1924   4.467   3.732   9.353  0.2826 -0.2265 -0.3342
 1925COC    COC 1925   4.307   3.726   9.602 -0.2224  0.3588  0.1207
 1926COC    COC 1926   4.170   3.891   9.790  0.2804  0.1740  0.0157
 1927COC    COC 1927   3.997   4.138   9.672  0.4072  0.3164  0.0175
 1928COC    COC 1928   4.006   4.403   9.745  0.1046  0.1872 -0.0144
 1929COC    COC 1929   3.979   4.662   9.620 -0.3207  0.0765  0.2713
 1930COC    COC 1930   3.962   4.814   9.924 -0.2075  0.6122  0.0021
 1931COC    COC 1931   4.204   4.680  10.032  0.2861 -0.2953 -0.3435
 1932COH    COH 1932   4.194   4.782  10.285  0.3826  0.1604  0.1399
 1933COH    COH 1933   9.833   3.358   8.045  0.5822  0.4882  0.2917
 1934COC    COC 1934   9.778   3.171   7.869  0.0920 -0.2847 -0.2041
 1935COC    COC 1935   9.622   2.955   7.962  0.2360 -0.3236 -0.0601
 1936COC    COC 1936   9.478   3.036   8.220 -0.0720 -0.2247 -0.3002
 1937COC    COC 1937   9.650   3.204   8.425  0.0253  0.1525 -0.2830
 1938COC    COC 1938   9.849   3.422   8.419 -0.2956 -0.6702  0.4422
 1939COC    COC 1939  10.103   3.369   8.571 -0.3926  0.4042 -0.4244
 1940COC    COC 1940  10.016   3.164   8.769 -0.0913  0.2077  0.0283
 1941COC    COC 1941  10.144   3.181   8.990  0.0057 -0.3456 -0.0993
 1942COC    COC 1942  10.213   3.085   9.277 -0.1591 -0.1670  0.1594
 1943COC    COC 1943  10.169   3.336   9.445  0.0037  0.0929  0.0029
 1944COC    COC 1944  10.198   3.619   9.307  0.1954  0.0104 -0.2310
 1945COC    COC 1945  10.321   3.760   9.092  0.4812  0.4719 -0.2041
 1946COC    COC 1946   0.029   3.602   8.863  0.2668 -0.1908 -0.3435
 1947COC    COC 1947   0.007   3.777   8.597  0.0798 -0.3134  0.0529
 1948COC    COC 1948   0.085   4.058   8.532  0.0057 -0.0853  0.2016
 1949COC    COC 1949   0.000   4.160   8.237 -0.0874 -0.0923 -0.1974
 1950COC    COC 1950   0.235   4.217   8.079 -0.0257  0.2365 -0.0445
 1951COC    COC 1951   0.353   4.501   8.157  0.0791  0.2089 -0.5494
 1952COC    COC 1952   0.550   4.484   8.369 -0.1591  0.0621 -0.2030
 1953COC    COC 1953   0.834   4.541   8.248  0.0902 -0.2881  0.1080
 1954COC    COC 1954   1.012   4.357   8.308 -0.0074  0.2246  0.2885
 1955COC    COC 1955   1.117   4.230   8.589  0.1414  0.6647  0.0255
 1956COC    COC 1956   1.224   4.371   8.850  0.0081 -0.1141  0.1982
 1957COC    COC 1957   1.120   4.404   9.152 -0.2056 -0.3538  0.2709
 1958COC    COC 1958   1.155   4.203   9.396  0.1827  0.1293 -0.1619
 1959COC    COC 1959   1.311   4.133   9.624  0.3146  0.1131  0.0717
 1960COC    COC 1960   1.486   4.295   9.809 -0.2327  0.2614 -0.1975
 1961COC    COC 1961   1.760   4.363   9.761 -0.5058 -0.4472 -0.4280
 1962COC    COC 1962   1.846   4.652   9.815  0.0393 -0.4424  0.0832
 1963COC    COC 1963   2.030   4.685  10.076 -0.0265 -0.2390  0.2495
 1964COC    COC 1964   2.280   4.543  10.143  0.1287  0.1793 -0.1854
 1965COC    COC 1965   2.463   4.351  10.293  0.0772  0.1156  0.2075
 1966COC    COC 1966   2.435   4.132   0.187 -0.0118 -0.1597  0.1147
 1967COC    COC 1967   2.303   4.159   0.484  0.1279  0.1211 -0.1965
 1968COC    COC 1968   2.431   4.335   0.761  0.4460 -0.2793  0.1270
 1969COC    COC 1969   2.310   4.529   0.978 -0.1688  0.4204 -0.0395
 1970COC    COC 1970   2.109   4.731   1.016 -0.0669 -0.1074 -0.0636
 1971COC    COC 1971   1.808   4.698   0.952  0.3421 -0.1392 -0.0975
 1972COC    COC 1972   1.571   4.502   0.973  0.2171  0.1684  0.0707
 1973COC    COC 1973   1.591   4.201   1.013  0.0133 -0.0154 -0.0840
 1974COC    COC 1974   1.530   4.023   1.293 -0.4253 -0.1103  0.0592
 1975COC    COC 1975   1.591   3.757   1.446 -0.0639  0.3089 -0.3667
 1976COC    COC 1976   1.907   3.816   1.460  0.0631 -0.0528  0.1738
 1977COC    COC 1977   1.939   3.849   1.137 -0.3732  0.0232  0.6638
 1978COH    COH 1978   1.717   3.713   1.070  0.2496 -0.0068 -0.2810
 1979COH    COH 1979   7.130   0.845   2.989  0.6624  0.0929 -0.0604
 1980COC    COC 1980   7.241   0.621   2.998  0.4829 -0.0273 -0.0250
 1981COC    COC 1981   7.215   0.408   2.785 -0.2639  0.2099 -0.1527
 1982COC    COC 1982   7.452   0.506   2.594 -0.1870  0.4055 -0.1782
 1983COC    COC 1983   7.700   0.578   2.728  0.0711  0.2583 -0.1361
 1984COC    COC 1984   7.991   0.595   2.656  0.4707 -0.2651  0.1777
 1985COC    COC 1985   8.147   0.407   2.502  0.0621 -0.2423 -0.1561
 1986COC    COC 1986   8.103   0.423   2.192  0.3935 -0.0130  0.2891
 1987COC    COC 1987   7.801   0.390   2.196 -0.2121  0.4625 -0.0233
 1988COC    COC 1988   7.538   0.323   2.086 -0.0784 -0.1601 -0.4070
 1989COC    COC 1989   7.475   0.469   1.858 -0.2756  0.4053  0.2270
 1990COC    COC 1990   7.266   0.390   1.643 -0.5578  0.0933  0.3921
 1991COC    COC 1991   7.075   0.157   1.692  0.1956 -0.0425  0.4022
 1992COC    COC 1992   6.775   0.224   1.684  0.2215 -0.5632  0.0803
 1993COC    COC 1993   6.792   0.537   1.587  0.0102  0.1145 -0.1674
 1994COC    COC 1994   6.725   0.787   1.444  0.1043  0.1297  0.2429
 1995COC    COC 1995   6.928   0.988   1.273 -0.1776  0.3678 -0.0915
 1996COC    COC 1996   7.112   1.197   1.433 -0.1045 -0.2861  0.0462
 1997COC    COC 1997   7.350   1.013   1.439  0.0455  0.1715  0.2328
 1998COC    COC 1998   7.482   1.104   1.173 -0.2212 -0.0072 -0.1807
 1999COC    COC 1999   7.518   1.180   0.873 -0.0621 -0.1382 -0.0369
 2000COC    COC 2000   7.783   1.151   0.744  0.1429  0.2440 -0.0318
 2001COC    COC 2001   7.727   0.934   0.521  0.0405  0.0046 -0.0037
 2002COC    COC 2002   7.518   0.738   0.648  0.2100 -0.0047  0.2201
 2003COC    COC 2003   7.639   0.751   0.904  0.1112 -0.0722  0.1176
 2004COC    COC 2004   7.952   0.774   0.929  0.1531  0.0967  0.3491
 2005COC    COC 2005   8.146   0.573   0.775  0.2447  0.4037  0.6259
 2006COC    COC 2006   8.075   0.272   0.720 -0.0625  0.0738 -0.0988
 2007COC    COC 2007   8.259   0.056   0.617 -0.0291  0.2767  0.2334
 2008COC    COC 2008   8.317  10.107   0.719 -0.1361 -0.0500  0.1106
 2009COC    COC 2009   8.343   9.821   0.731  0.2401 -0.1989  0.1978
 2010COC    COC 2010   8.266   9.652   0.491 -0.3206 -0.1540 -0.2342
 2011COC    COC 2011   8.058   9.436   0.503 -0.0031  0.0162  0.3263
 2012COC    COC 2012   8.108   9.138   0.579 -0.2218 -0.0245  0.3527
 2013COC    COC 2013   8.242   9.017   0.856 -0.0937 -0.0991 -0.0352
 2014COC    COC 2014   8.017   9.083   1.073 -0.4656 -0.0715 -0.0717
 2015COC    COC 2015   8.060   9.372   1.103  0.0243 -0.0690 -0.2921
 2016COC    COC 2016   8.298   9.465   0.955 -0.1598  0.3766  0.1886
 2017COC    COC 2017   8.526   9.355   0.792 -0.1712 -0.0688  0.3742
 2018COC    COC 2018   8.622   9.343   0.494 -0.1362 -0.1386 -0.0100
 2019COC    COC 2019   8.815   9.477   0.283  0.0302  0.1542  0.0854
 2020COC    COC 2020   9.126   9.416   0.306 -0.3816  0.0592  0.2210
 2021COC    COC 2021   9.206   9.506   0.011  0.1720 -0.1254 -0.1892
 2022COC    COC 2022   9.136   9.777  10.276  0.0144  0.0203  0.3377
 2023COC    COC 2023   8.872   9.948  10.315 -0.3121  0.0778 -0.4252
 2024COH    COH 2024   8.909  10.210  10.295 -0.2260  0.2300 -0.0284
 2025COH    COH 2025   5.092   1.872   9.944  0.0071  0.2610 -0.0106
 2026COC    COC 2026   5.235   1.717  10.128 -0.2567  0.2144  0.1139
 2027COC    COC 2027   5.453   1.574   9.917 -0.1512 -0.0005 -0.4273
 2028COC    COC 2028   5.611   1.322  10.040 -0.2933 -0.1614 -0.0990
 2029COC    COC 2029   5.903   1.368  10.139  0.1630 -0.1123  0.2647
 2030COC    COC 2030   6.036   1.052  10.105 -0.0190 -0.5708 -0.2087
 2031COC    COC 2031   6.347   1.052  10.124 -0.2002  0.4356  0.0811
 2032COC    COC 2032   6.575   0.857  10.190  0.2961  0.0876 -0.1353
 2033COC    COC 2033   6.477   0.571  10.182  0.0739  0.2172  0.2083
 2034COC    COC 2034   6.372   0.371  10.024 -0.2335  0.6246 -0.3746
 2035COC    COC 2035   6.158   0.367   9.819 -0.2331 -0.0465  0.3800
 2036COC    COC 2036   5.889   0.251   9.935  0.0401  0.0603  0.2032
 2037COC    COC 2037   5.808  10.307   9.902 -0.1411 -0.0961 -0.2130
 2038COC    COC 2038   5.572  10.145   9.750  0.1398 -0.1898 -0.5177
 2039COC    COC 2039   5.394   9.925   9.812  0.2359  0.1473  0.2552
 2040COC    COC 2040   5.129  10.061   9.871  0.1777  0.3009 -0.0031
 2041COC    COC 2041   4.872   9.964   9.728  0.2614  0.0754  0.3456
 2042COC    COC 2042   4.696   9.913   9.986  0.1752  0.1713 -0.0911
 2043COC    COC 2043   4.839   9.829  10.180  0.0424 -0.2089 -0.1912
 2044COC    COC 2044   4.808   9.983   0.071  0.1376 -0.0523 -0.3301
 2045COC    COC 2045   4.685  10.213   0.010 -0.1237  0.2699  0.0005
 2046COC    COC 2046   4.543  10.314  10.148  0.4384 -0.1517  0.0478
 2047COC    COC 2047   4.748   0.024   9.946  0.0237  0.2967 -0.0536
 2048COC    COC 2048   4.847   0.251   9.726 -0.0801 -0.4368 -0.0123
 2049COC    COC 2049   4.749   0.556   9.710 -0.2858 -0.1733  0.1316
 2050COC    COC 2050   4.809   0.795   9.478  0.3094  0.1844  0.0730
 2051COC    COC 2051   4.822   1.057   9.596  0.0095 -0.1667 -0.2242
 2052COC    COC 2052   4.667   1.309   9.461 -0.1363  0.3617 -0.4029
 2053COC    COC 2053   4.432   1.200   9.615  0.0566  0.2188  0.2036
 2054COC    COC 2054   4.424   0.888   9.692 -0.0105 -0.2816 -0.2828
 2055COC    COC 2055   4.405   0.718   9.913  0.1028  0.1419 -0.2006
 2056COC    COC 2056   4.151   0.638  10.047 -0.0686  0.0863  0.0051
 2057COC    COC 2057   3.855   0.690  10.094  0.0881  0.0378 -0.2016
 2058COC    COC 2058   3.654   0.473  10.118 -0.2303  0.0530  0.0583
 2059COC    COC 2059   3.675   0.228  10.268  0.6044  0.0464 -0.0377
 2060COC    COC 2060   3.858  10.338  10.236 -0.4476 -0.0943 -0.0954
 2061COC    COC 2061   4.166   0.003  10.323  0.4633  0.2000 -0.0899
 2062COC    COC 2062   4.291  10.285   0.239 -0.4022 -0.4271 -0.2011
 2063COC    COC 2063   4.219   0.100   0.499 -0.0621  0.0886  0.3458
 2064COC    COC 2064   4.302   0.397   0.543  0.0489  0.3532 -0.3755
 2065COC    COC 2065   4.451   0.663   0.456  0.5585 -0.1015  0.0955
 2066COC    COC 2066   4.611   0.914   0.521 -0.3285 -0.1014 -0.1240
 2067COC    COC 2067   4.918   0.949   0.525 -0.2908 -0.3020  0.2340
 2068COC    COC 2068   4.944   1.182   0.309 -0.0312  0.0663  0.1264
 2069COC    COC 2069   4.741   1.017   0.121  0.3124 -0.2716  0.0227
 2070COH    COH 2070   4.730   0.756   0.144 -0.1072 -0.0326 -0.1783
 2071COH    COH 2071   6.014   4.718   6.526  0.1264  0.1132 -0.2262
 2072COC    COC 2072   5.818   4.638   6.361  0.3865 -0.0180  0.2875
 2073COC    COC 2073   5.678   4.387   6.241  0.1060  0.0026 -0.1689
 2074COC    COC 2074   5.905   4.190   6.171  0.1545  0.1732 -0.1372
 2075COC    COC 2075   5.805   3.969   6.028  0.1442 -0.2540 -0.5367
 2076COC    COC 2076   5.577   4.087   5.876  0.0611 -0.1635  0.0991
 2077COC    COC 2077   5.340   3.869   5.841  0.1462  0.1357  0.1340
 2078COC    COC 2078   5.123   3.663   5.955 -0.1392 -0.2215 -0.3340
 2079COC    COC 2079   5.184   3.362   5.987  0.0494 -0.0232  0.2916
 2080COC    COC 2080   5.285   3.054   5.899  0.1586  0.0119  0.3285
 2081COC    COC 2081   5.564   3.082   5.766  0.0417  0.2600 -0.4080
 2082COC    COC 2082   5.643   2.992   5.462 -0.1638 -0.3528 -0.3785
 2083COC    COC 2083   5.710   3.267   5.335  0.0601  0.1488  0.0142
 2084COC    COC 2084   5.881   3.488   5.227 -0.2675 -0.1197 -0.1396
 2085COC    COC 2085   6.070   3.442   4.994  0.4091 -0.0587 -0.1895
 2086COC    COC 2086   6.276   3.236   5.114 -0.5853  0.3489 -0.0121
 2087COC    COC 2087   6.471   3.461   5.240 -0.0421  0.2441  0.2181
 2088COC    COC 2088   6.457   3.730   5.076 -0.3211  0.1155 -0.1904
 2089COC    COC 2089   6.295   3.962   5.180  0.0666 -0.3106  0.2615
 2090COC    COC 2090   6.015   3.948   5.244  0.1094  0.3412  0.0786
 2091COC    COC 2091   5.868   3.932   5.019  0.2143  0.2443 -0.1395
 2092COC    COC 2092   5.951   3.898   4.745 -0.1109 -0.0236  0.2484
 2093COC    COC 2093   5.760   3.844   4.525  0.0726  0.0164 -0.0132
 2094COC    COC 2094   5.621   3.548   4.510  0.1226  0.2705 -0.0247
 2095COC    COC 2095   5.752   3.393   4.678 -0.3279 -0.0769 -0.1512
 2096COC    COC 2096   5.657   3.232   4.900  0.4308  0.2992 -0.2651
 2097COC    COC 2097   5.380   3.202   5.014  0.0983  0.0670  0.2881
 2098COC    COC 2098   5.263   3.035   5.190  0.0168 -0.0438  0.1306
 2099COC    COC 2099   5.229   3.123   5.460 -0.0005 -0.5698  0.1785
 2100COC    COC 2100   4.975   3.222   5.590  0.4495  0.3347  0.2144
 2101COC    COC 2101   4.848   3.019   5.817 -0.0559  0.2314  0.0976
 2102COC    COC 2102   4.938   2.737   5.821  0.6363  0.1690 -0.0474
 2103COC    COC 2103   5.158   2.647   6.028  0.2465 -0.0132 -0.2259
 2104COC    COC 2104   5.118   2.535   6.276  0.1163 -0.2868  0.0567
 2105COC    COC 2105   5.244   2.597   6.532 -0.2281 -0.1286 -0.0911
 2106COC    COC 2106   5.114   2.501   6.826 -0.4150  0.1827 -0.1342
 2107COC    COC 2107   5.132   2.202   6.800  0.0180 -0.6205  0.0416
 2108COC    COC 2108   5.401   2.142   6.574  0.3970  0.3107  0.3116
 2109COC    COC 2109   5.675   1.980   6.537  0.0558 -0.0728 -0.0534
 2110COC    COC 2110   5.755   1.696   6.551  0.1069 -0.1588 -0.0936
 2111COC    COC 2111   5.898   1.617   6.810  0.1578  0.1019  0.1773
 2112COC    COC 2112   5.849   1.317   6.839  0.1065 -0.0424 -0.4004
 2113COC    COC 2113   5.597   1.224   6.674 -0.0718 -0.0183 -0.0242
 2114COC    COC 2114   5.434   1.470   6.728  0.1404  0.2234 -0.1493
 2115COC    COC 2115   5.306   1.647   6.992  0.0236 -0.2168  0.4444
 2116COH    COH 2116   5.336   1.899   6.895 -0.1123  0.2481 -0.4067
 2117COH    COH 2117  10.310   1.676   5.063  0.2058  0.0093 -0.3318
 2118COC    COC 2118  10.064   1.598   5.032  0.6552 -0.4259  0.1781
 2119COC    COC 2119   9.869   1.829   4.938 -0.1351  0.4600 -0.1637
 2120COC    COC 2120   9.651   1.992   5.011  0.4668 -0.1250 -0.2256
 2121COC    COC 2121   9.705   2.296   5.054  0.1519 -0.1568 -0.4089
 2122COC    COC 2122   9.546   2.548   5.143  0.3360  0.2386  0.1940
 2123COC    COC 2123   9.366   2.636   5.387  0.0167  0.1487 -0.0821
 2124COC    COC 2124   9.477   2.824   5.591  0.0242  0.1864  0.1181
 2125COC    COC 2125   9.433   3.034   5.814 -0.0506  0.0586 -0.2927
 2126COC    COC 2126   9.346   3.051   6.091 -0.0550 -0.0918  0.0475
 2127COC    COC 2127   9.336   2.772   6.194 -0.0493 -0.3537  0.1209
 2128COC    COC 2128   9.245   2.507   6.322  0.1129 -0.0012 -0.0333
 2129COC    COC 2129   9.491   2.337   6.449  0.0842 -0.3538 -0.1390
 2130COC    COC 2130   9.708   2.588   6.391 -0.4236  0.1770 -0.0035
 2131COC    COC 2131   9.703   2.816   6.635 -0.1538  0.0648 -0.1883
 2132COC    COC 2132   9.805   3.076   6.545  0.0513 -0.3397  0.0190
 2133COC    COC 2133   9.755   3.299   6.700  0.3713 -0.1033 -0.2750
 2134COC    COC 2134   9.917   3.553   6.610  0.1193  0.1237  0.0194
 2135COC    COC 2135  10.183   3.648   6.741 -0.4634  0.0491  0.1254
 2136COC    COC 2136  10.183   3.949   6.768 -0.4137 -0.4036  0.3225
 2137COC    COC 2137   0.060   3.979   7.015  0.0549 -0.5621 -0.2133
 2138COC    COC 2138   0.095   4.190   7.225 -0.2029  0.0529 -0.2514
 2139COC    COC 2139   0.391   4.159   7.224 -0.1935 -0.2067  0.4499
 2140COC    COC 2140   0.428   4.011   7.473 -0.3418 -0.3743 -0.1327
 2141COC    COC 2141   0.178   3.991   7.701  0.0331  0.0407 -0.1900
 2142COC    COC 2142   0.148   3.682   7.664  0.0991 -0.1525  0.3108
 2143COC    COC 2143   0.191   3.579   7.949  0.0407  0.2599 -0.1329
 2144COC    COC 2144   0.387   3.763   8.129  0.0468  0.4085 -0.4853
 2145COC    COC 2145   0.524   3.601   8.352  0.1032  0.0399 -0.2701
 2146COC    COC 2146   0.494   3.596   8.675 -0.1967 -0.3307  0.2727
 2147COC    COC 2147   0.606   3.397   8.845  0.2729  0.0719 -0.0151
 2148COC    COC 2148   0.644   3.542   9.125  0.1204 -0.2844  0.2231
 2149COC    COC 2149   0.477   3.792   9.106  0.2106  0.0507 -0.0622
 2150COC    COC 2150   0.352   3.941   8.868  0.3764 -0.2275 -0.1770
 2151COC    COC 2151   0.111   4.148   8.936  0.0706 -0.2530  0.0116
 2152COC    COC 2152   0.090   4.427   8.845 -0.3855  0.4270 -0.2499
 2153COC    COC 2153   0.161   4.473   8.560  0.3733  0.2952  0.3020
 2154COC    COC 2154   0.212   4.760   8.556 -0.0616 -0.3516 -0.0670
 2155COC    COC 2155   0.415   4.768   8.785 -0.0407  0.2161  0.2298
 2156COC    COC 2156   0.419   4.977   8.984 -0.3313  0.0097  0.1613
 2157COC    COC 2157   0.231   5.103   9.184  0.0872 -0.2628 -0.0939
 2158COC    COC 2158   0.057   4.949   9.364  0.0161  0.0792  0.0224
 2159COC    COC 2159   0.021   5.104   9.667 -0.0359  0.4279 -0.4282
 2160COC    COC 2160  10.112   4.989   9.805  0.1191  0.5345  0.1476
 2161COC    COC 2161   9.854   5.080   9.669 -0.1797 -0.2051  0.1753
 2162COH    COH 2162   9.709   4.860   9.615 -0.2479  0.1368  0.4845
 2163COH    COH 2163   2.579   5.440   7.475  0.6168 -0.0290  0.0801
 2164COC    COC 2164   2.818   5.377   7.569  0.4407  0.0800  0.0682
 2165COC    COC 2165   2.877   5.144   7.697  0.1852  0.0799 -0.3367
 2166COC    COC 2166   2.839   5.038   7.997  0.1313  0.0742  0.1902
 2167COC    COC 2167   3.120   4.990   8.116  0.0828 -0.1067  0.0031
 2168COC    COC 2168   3.352   5.085   7.902 -0.2112 -0.0629  0.2802
 2169COC    COC 2169   3.309   5.158   7.630 -0.2072  0.1437  0.6061
 2170COC    COC 2170   3.571   5.260   7.456 -0.1172  0.3452  0.1738
 2171COC    COC 2171   3.821   5.370   7.469 -0.2992  0.0417  0.1902
 2172COC    COC 2172   3.917   5.143   7.233  0.0660  0.0229  0.3245
 2173COC    COC 2173   4.104   5.298   6.997  0.1128  0.2052 -0.1373
 2174COC    COC 2174   4.168   5.593   7.018  0.1019 -0.4642 -0.4573
 2175COC    COC 2175   4.459   5.612   7.123  0.0576  0.4283  0.3081
 2176COC    COC 2176   4.748   5.706   7.061  0.1630  0.1777 -0.0638
 2177COC    COC 2177   4.786   5.398   6.903 -0.0698 -0.2201  0.4470
 2178COC    COC 2178   4.906   5.140   6.956 -0.1860  0.2923 -0.0886
 2179COC    COC 2179   5.129   4.938   6.810 -0.4060 -0.1737  0.0945
 2180COC    COC 2180   5.044   4.827   6.509 -0.2613  0.0890 -0.2073
 2181COC    COC 2181   5.286   4.782   6.318  0.4473 -0.2115 -0.5399
 2182COC    COC 2182   5.376   5.063   6.214  0.2078  0.3222  0.1622
 2183COC    COC 2183   5.286   5.280   6.433 -0.0371 -0.1693  0.0961
 2184COC    COC 2184   5.180   5.469   6.688 -0.3141  0.0189 -0.1436
 2185COC    COC 2185   5.382   5.661   6.819  0.4464 -0.3953 -0.0889
 2186COC    COC 2186   5.319   5.923   6.942 -0.2508 -0.2774  0.2785
 2187COC    COC 2187   5.035   6.072   6.885 -0.2062 -0.0581 -0.2378
 2188COC    COC 2188   4.907   5.877   6.703  0.3490  0.0410 -0.1376
 2189COC    COC 2189   5.045   5.823   6.466 -0.1173  0.0246 -0.2883
 2190COC    COC 2190   5.345   5.849   6.318 -0.1766 -0.2120  0.0254
 2191COC    COC 2191   5.566   6.021   6.251  0.0434  0.0931 -0.0791
 2192COC    COC 2192   5.794   6.104   6.047 -0.1164  0.2233 -0.3586
 2193COC    COC 2193   6.011   5.919   6.054  0.1768  0.2216  0.1919
 2194COC    COC 2194   6.228   5.921   5.876  0.2496  0.4235 -0.0691
 2195COC    COC 2195   6.272   6.185   5.762 -0.1374 -0.2615 -0.0437
 2196COC    COC 2196   6.319   6.364   5.969  0.0602 -0.0159 -0.0124
 2197COC    COC 2197   6.515   6.603   5.941  0.2764  0.4197  0.1989
 2198COC    COC 2198   6.810   6.498   5.967  0.4170  0.1105 -0.1256
 2199COC    COC 2199   6.932   6.333   6.179  0.2062 -0.0609 -0.0259
 2200COC    COC 2200   7.210   6.449   6.221 -0.2185  0.2497  0.2577
 2201COC    COC 2201   7.437   6.250   6.146  0.1070 -0.1968  0.2160
 2202COC    COC 2202   7.554   6.167   6.394 -0.2440  0.1351 -0.3672
 2203COC    COC 2203   7.689   6.005   6.548 -0.0632 -0.3981  0.1357
 2204COC    COC 2204   8.007   5.913   6.559  0.4566  0.3071  0.1530
 2205COC    COC 2205   8.214   5.734   6.697 -0.7272  0.0096  0.0199
 2206COC    COC 2206   8.207   5.810   7.001 -0.1090 -0.0836 -0.0395
 2207COC    COC 2207   8.477   5.864   7.175 -0.3670 -0.0162  0.5573
 2208COH    COH 2208   8.474   5.855   7.418  0.1624 -0.0500  0.1395
 2209COH    COH 2209   7.882   4.356   2.039  0.3683  0.0308 -0.1665
 2210COC    COC 2210   8.002   4.228   2.244 -0.2634 -0.1766  0.2913
 2211COC    COC 2211   8.294   4.338   2.265 -0.1268 -0.0843 -0.2508
 2212COC    COC 2212   8.510   4.313   2.493 -0.3054 -0.4086  0.1543
 2213COC    COC 2213   8.631   4.051   2.525 -0.0350  0.1058 -0.0908
 2214COC    COC 2214   8.891   4.022   2.670  0.2351  0.1033 -0.0824
 2215COC    COC 2215   8.814   3.811   2.886  0.2778 -0.0530  0.0834
 2216COC    COC 2216   8.742   3.848   3.209  0.3683  0.0939 -0.4184
 2217COC    COC 2217   8.946   3.740   3.388  0.2375  0.2881 -0.1280
 2218COC    COC 2218   9.212   3.912   3.433 -0.1672  0.0236  0.2053
 2219COC    COC 2219   9.461   3.744   3.392 -0.3085  0.0704 -0.1697
 2220COC    COC 2220   9.430   3.517   3.182 -0.0733  0.5826 -0.1672
 2221COC    COC 2221   9.477   3.308   2.971 -0.1135  0.2736  0.0931
 2222COC    COC 2222   9.651   3.301   2.676 -0.0797 -0.0861 -0.0808
 2223COC    COC 2223   9.539   3.058   2.519 -0.4856  0.0062  0.1492
 2224COC    COC 2224   9.751   2.872   2.483 -0.2825 -0.0937 -0.0731
 2225COC    COC 2225   9.992   3.063   2.540 -0.0452 -0.1321  0.6626
 2226COC    COC 2226  10.079   3.329   2.383  0.1029 -0.1987 -0.3826
 2227COC    COC 2227   9.995   3.640   2.415  0.0323 -0.2130  0.1384
 2228COC    COC 2228  10.015   3.957   2.424 -0.2324 -0.3415 -0.6004
 2229COC    COC 2229   9.833   4.192   2.301 -0.2140  0.0048 -0.4410
 2230COC    COC 2230   9.796   4.226   2.014  0.2030  0.3973 -0.2453
 2231COC    COC 2231   9.539   3.970   1.983 -0.1038 -0.1025  0.5460
 2232COC    COC 2232   9.579   3.723   1.800  0.2934 -0.0318  0.7299
 2233COC    COC 2233   9.738   3.679   1.520  0.0960  0.2254  0.3278
 2234COC    COC 2234   9.488   3.720   1.334 -0.1779  0.1442  0.4934
 2235COC    COC 2235   9.530   3.620   1.059 -0.2804  0.1803 -0.5575
 2236COC    COC 2236   9.279   3.662   0.876  0.1728 -0.0267 -0.2260
 2237COC    COC 2237   9.023   3.687   1.028 -0.3146 -0.0411  0.1407
 2238COC    COC 2238   8.745   3.743   0.876 -0.1046 -0.0953 -0.1718
 2239COC    COC 2239   8.535   3.603   0.992  0.1987  0.1312 -0.2444
 2240COC    COC 2240   8.232   3.502   0.940 -0.3166 -0.1785  0.0985
 2241COC    COC 2241   8.086   3.760   0.916 -0.0256 -0.0535 -0.1383
 2242COC    COC 2242   8.229   3.957   1.060  0.0968 -0.1466 -0.2565
 2243COC    COC 2243   8.182   4.034   1.350  0.1025  0.0275  0.2982
 2244COC    COC 2244   8.023   3.782   1.417  0.1243 -0.2073  0.0292
 2245COC    COC 2245   8.137   3.736   1.700  0.2494  0.4450 -0.2933
 2246COC    COC 2246   8.361   3.600   1.848 -0.1845  0.2044 -0.0598
 2247COC    COC 2247   8.454   3.351   1.731 -0.3268 -0.1763 -0.1153
 2248COC    COC 2248   8.761   3.411   1.672 -0.0111  0.3291 -0.2832
 2249COC    COC 2249   8.912   3.576   1.449  0.4372 -0.0218  0.0965
 2250COC    COC 2250   9.056   3.837   1.450  0.1999  0.2077  0.2371
 2251COC    COC 2251   9.173   4.004   1.243 -0.2632 -0.4198  0.5062
 2252COC    COC 2252   9.460   4.136   1.366  0.1175 -0.1716 -0.0887
 2253COC    COC 2253   9.498   4.414   1.410 -0.2655 -0.1545  0.2965
 2254COH    COH 2254   9.632   4.538   1.218 -0.2938  0.1317  0.0741
 2255COH    COH 2255   8.162   6.581   0.702  0.2171  0.2453 -0.3943
 2256COC    COC 2256   8.317   6.354   0.609  0.2165 -0.5970  0.4235
 2257COC    COC 2257   8.190   6.250   0.390  0.2145  0.0722 -0.5831
 2258COC    COC 2258   8.343   6.058   0.197  0.3377  0.0706 -0.0502
 2259COC    COC 2259   8.216   6.161  10.270  0.4065 -0.0980  0.1694
 2260COC    COC 2260   8.026   6.046  10.018 -0.3231  0.1716 -0.0554
 2261COC    COC 2261   7.931   6.234   9.778  0.2397  0.4649  0.1351
 2262COC    COC 2262   7.955   6.522   9.726 -0.0214  0.0639  0.0333
 2263COC    COC 2263   7.740   6.654   9.888  0.4333 -0.2022 -0.0595
 2264COC    COC 2264   7.504   6.515   9.982 -0.3934 -0.3499 -0.1646
 2265COC    COC 2265   7.283   6.700   9.907  0.1042 -0.0342  0.1243
 2266COC    COC 2266   7.179   6.701   9.602 -0.6508  0.2261 -0.0895
 2267COC    COC 2267   7.229   6.987   9.512  0.2340  0.4257  0.1631
 2268COC    COC 2268   7.165   7.101   9.242 -0.3684  0.1283 -0.0102
 2269COC    COC 2269   6.862   7.062   9.188 -0.1181  0.1252 -0.1382
 2270COC    COC 2270   6.650   6.885   9.068  0.2733  0.0689  0.0391
 2271COC    COC 2271   6.365   6.946   8.960 -0.2694 -0.1641  0.2008
 2272COC    COC 2272   6.299   7.237   8.969 -0.1325  0.1718 -0.0556
 2273COC    COC 2273   6.435   7.454   8.804 -0.4457  0.2222 -0.1407
 2274COC    COC 2274   6.669   7.408   8.614 -0.0640 -0.2667 -0.0187
 2275COC    COC 2275   6.750   7.133   8.612  0.0846  0.2122  0.4285
 2276COC    COC 2276   7.014   7.044   8.488  0.2549  0.0512  0.2454
 2277COC    COC 2277   6.939   6.908   8.230 -0.2257  0.4295 -0.1264
 2278COC    COC 2278   7.067   7.016   7.976  0.0797 -0.3734  0.1080
 2279COC    COC 2279   7.277   7.200   7.985 -0.2338  0.2501 -0.0196
 2280COC    COC 2280   7.552   7.106   8.050  0.2806 -0.2509 -0.1357
 2281COC    COC 2281   7.684   6.907   8.169  0.1096 -0.2300 -0.0144
 2282COC    COC 2282   7.457   6.731   8.266  0.0529  0.2140 -0.4118
 2283COC    COC 2283   7.307   6.677   8.508 -0.0296  0.1501 -0.6058
 2284COC    COC 2284   7.516   6.693   8.740 -0.4416  0.2029  0.0691
 2285COC    COC 2285   7.772   6.696   8.562  0.0647  0.0023 -0.2111
 2286COC    COC 2286   8.073   6.747   8.642  0.4089 -0.0680  0.4890
 2287COC    COC 2287   8.154   7.004   8.778  0.0041  0.3524  0.0451
 2288COC    COC 2288   7.945   7.239   8.834 -0.4816 -0.0012  0.1868
 2289COC    COC 2289   7.970   7.500   8.707 -0.1462 -0.0397 -0.0958
 2290COC    COC 2290   8.026   7.686   8.453 -0.1919  0.0918 -0.1455
 2291COC    COC 2291   7.811   7.680   8.322  0.4969 -0.4629 -0.1944
 2292COC    COC 2292   7.669   7.499   8.128  0.0973 -0.4287  0.2423
 2293COC    COC 2293   7.421   7.641   8.098 -0.2714 -0.1641  0.0928
 2294COC    COC 2294   7.254   7.834   7.882  0.4321 -0.1089 -0.6059
 2295COC    COC 2295   6.977   7.878   8.018  0.2785  0.1665 -0.0385
 2296COC    COC 2296   6.711   7.984   7.871 -0.2123 -0.0140  0.0674
 2297COC    COC 2297   6.657   8.212   8.084  0.1831 -0.0978  0.0873
 2298COC    COC 2298   6.657   8.465   7.944 -0.1034  0.1054  0.2325
 2299COC    COC 2299   6.420   8.451   7.816 -0.1463 -0.0936 -0.2634
 2300COH    COH 2300   6.179   8.468   7.739 -0.6889  0.6717  0.1940
 2301COH    COH 2301   1.504   0.476   8.110  0.5372 -0.0470 -0.3863
 2302COC    COC 2302   1.331   0.478   8.349 -0.0800  0.3178 -0.0074
 2303COC    COC 2303   1.268   0.221   8.466 -0.1273 -0.1400  0.0776
 2304COC    COC 2304   1.402   0.077   8.689  0.1204 -0.2804 -0.0216
 2305COC    COC 2305   1.432  10.139   8.581 -0.3531  0.1340  0.5662
 2306COC    COC 2306   1.251  10.099   8.357  0.1194 -0.3701 -0.1632
 2307COC    COC 2307   1.002  10.280   8.384 -0.0064  0.0383 -0.2062
 2308COC    COC 2308   0.735  10.209   8.487  0.0123 -0.0175  0.0142
 2309COC    COC 2309   0.552  10.100   8.241 -0.1160  0.0364 -0.3585
 2310COC    COC 2310   0.646   9.827   8.314 -0.1480  0.1611 -0.0047
 2311COC    COC 2311   0.452   9.608   8.403  0.5134 -0.0127  0.3080
 2312COC    COC 2312   0.523   9.395   8.579  0.0537 -0.2309  0.0066
 2313COC    COC 2313   0.456   9.094   8.575 -0.2129 -0.2039  0.3819
 2314COC    COC 2314   0.340   8.845   8.707  0.0862  0.1922  0.2363
 2315COC    COC 2315   0.403   8.525   8.734  0.2521 -0.1977  0.3160
 2316COC    COC 2316   0.203   8.400   8.886  0.1856  0.1177 -0.2927
 2317COC    COC 2317  10.224   8.387   8.848 -0.0319  0.0634  0.0329
 2318COC    COC 2318   9.959   8.568   8.867  0.1739 -0.0116 -0.1272
 2319COC    COC 2319   9.739   8.411   8.731 -0.2154 -0.0732 -0.6220
 2320COC    COC 2320   9.474   8.456   8.834 -0.1586 -0.2509  0.2051
 2321COC    COC 2321   9.301   8.472   8.595  0.2420 -0.1062 -0.0587
 2322COC    COC 2322   9.188   8.236   8.370 -0.0033 -0.0791 -0.3073
 2323COC    COC 2323   8.910   8.285   8.430 -0.3343  0.0287  0.2837
 2324COC    COC 2324   8.913   8.238   8.745 -0.3817  0.0010  0.0307
 2325COC    COC 2325   9.037   7.995   8.912  0.1231 -0.1130  0.0628
 2326COC    COC 2326   9.124   7.867   9.146 -0.1532  0.4196  0.0566
 2327COC    COC 2327   9.091   7.604   9.312 -0.1880  0.1011  0.1201
 2328COC    COC 2328   8.850   7.532   9.481  0.1713  0.1691  0.2225
 2329COC    COC 2329   8.651   7.628   9.270 -0.0965  0.1383 -0.2260
 2330COC    COC 2330   8.668   7.825   9.025  0.2337  0.0518  0.2025
 2331COC    COC 2331   8.679   8.101   9.160 -0.0824 -0.1139 -0.3234
 2332COC    COC 2332   8.598   8.324   9.001  0.3455 -0.2585 -0.0319
 2333COC    COC 2333   8.556   8.606   9.112 -0.2425  0.2885  0.1312
 2334COC    COC 2334   8.771   8.797   8.981 -0.4819  0.1580  0.1846
 2335COC    COC 2335   9.116   8.798   9.034 -0.1617 -0.0375 -0.0273
 2336COC    COC 2336   9.327   8.994   8.970 -0.0652  0.0163  0.0260
 2337COC    COC 2337   9.584   8.904   8.893  0.0143  0.1066  0.0821
 2338COC    COC 2338   9.875   9.071   8.926  0.3254 -0.2453  0.4418
 2339COC    COC 2339  10.063   8.900   9.119  0.2038  0.3425 -0.2677
 2340COC    COC 2340   0.007   8.838   9.089  0.0907  0.1247 -0.0378
 2341COC    COC 2341   0.168   9.070   9.200 -0.2186 -0.0781  0.1547
 2342COC    COC 2342   0.387   9.181   9.046  0.2165  0.1298 -0.1351
 2343COC    COC 2343   0.619   9.301   9.217 -0.2877  0.0802 -0.1676
 2344COC    COC 2344   0.836   9.477   9.076 -0.1212  0.0374 -0.3842
 2345COC    COC 2345   0.837   9.585   8.778 -0.0696  0.1713  0.0588
 2346COH    COH 2346   0.774   9.824   8.646  0.0233  0.2416 -0.2630
 2347COH    COH 2347   1.335   1.297   2.469  0.0161  0.2302  0.1276
 2348COC    COC 2348   1.468   1.161   2.289  0.0850  0.3925 -0.0734
 2349COC    COC 2349   1.576   0.862   2.221  0.0307 -0.1593 -0.0071
 2350COC    COC 2350   1.629   0.575   2.261  0.0337 -0.0623 -0.0490
 2351COC    COC 2351   1.618   0.442   2.516 -0.0600 -0.0766  0.0836
 2352COC    COC 2352   1.904   0.391   2.670  0.0292 -0.2236 -0.0481
 2353COC    COC 2353   2.130   0.580   2.643  0.2974 -0.0387 -0.0304
 2354COC    COC 2354   2.342   0.543   2.870  0.2121 -0.2444  0.0010
 2355COC    COC 2355   2.598   0.455   2.721  0.1701  0.1027 -0.2200
 2356COC    COC 2356   2.567   0.484   2.401  0.0902  0.2057 -0.1556
 2357COC    COC 2357   2.890   0.499   2.292  0.1755  0.1231 -0.2440
 2358COC    COC 2358   3.009   0.226   2.249  0.1460  0.2131  0.2628
 2359COC    COC 2359   2.863   0.126   2.492  0.3790  0.0475  0.6919
 2360COC    COC 2360   2.789  10.192   2.597  0.0025 -0.0156  0.1132
 2361COC    COC 2361   2.917   9.917   2.542  0.3876 -0.3263 -0.0078
 2362COC    COC 2362   3.061   9.749   2.410 -0.4218  0.2693 -0.2423
 2363COC    COC 2363   3.278   9.984   2.333  0.4690 -0.3973 -0.1953
 2364COC    COC 2364   3.255  10.245   2.362 -0.2898 -0.4199 -0.0297
 2365COC    COC 2365   3.248  10.296   2.700  0.1716 -0.2475  0.3531
 2366COC    COC 2366   3.445   0.137   2.874 -0.7307  0.1931  0.0715
 2367COC    COC 2367   3.757   0.203   2.837 -0.0456  0.0394 -0.3616
 2368COC    COC 2368   4.027   0.165   2.699 -0.0626 -0.0599 -0.5058
 2369COC    COC 2369   4.168   0.352   2.936 -0.1716  0.1801 -0.1925
 2370COC    COC 2370   3.988   0.540   3.041  0.1004 -0.2264 -0.1171
 2371COC    COC 2371   3.756   0.420   3.215 -0.5417 -0.1146 -0.3464
 2372COC    COC 2372   3.798   0.441   3.512 -0.2131 -0.4517 -0.0246
 2373COC    COC 2373   3.929   0.617   3.728 -0.0485 -0.0218  0.3098
 2374COC    COC 2374   3.827   0.741   3.971  0.2075  0.1458  0.1550
 2375COC    COC 2375   3.625   0.969   4.048  0.4881  0.1447 -0.1271
 2376COC    COC 2376   3.339   0.977   4.194 -0.0917 -0.2583  0.1360
 2377COC    COC 2377   3.216   0.727   4.058  0.3982 -0.1658 -0.1746
 2378COC    COC 2378   3.339   0.499   4.226 -0.2224  0.1083  0.0415
 2379COC    COC 2379   3.573   0.612   4.380  0.2338 -0.1422 -0.1011
 2380COC    COC 2380   3.373   0.746   4.587 -0.1276  0.1200 -0.0360
 2381COC    COC 2381   3.495   0.895   4.836 -0.1793 -0.0049  0.3249
 2382COC    COC 2382   3.688   0.681   4.952  0.2447 -0.1313 -0.1927
 2383COC    COC 2383   3.867   0.510   4.734 -0.1445 -0.0436  0.2996
 2384COC    COC 2384   3.912   0.243   4.784  0.4178  0.5443  0.1626
 2385COC    COC 2385   3.877  10.331   4.603  0.1483 -0.0718 -0.3068
 2386COC    COC 2386   4.018   0.095   4.341 -0.3964  0.1838 -0.2189
 2387COC    COC 2387   4.069   0.088   4.092 -0.2705  0.3291 -0.1016
 2388COC    COC 2388   4.381   0.057   4.148  0.1501 -0.0309 -0.1037
 2389COC    COC 2389   4.641  10.338   4.054  0.0500  0.0583 -0.0888
 2390COC    COC 2390   4.669   0.265   3.918 -0.1106  0.5005  0.0186
 2391COC    COC 2391   4.692   0.349   3.638 -0.0024  0.1493  0.1174
 2392COH    COH 2392   4.519   0.388   3.413 -0.4995 -0.3023 -0.4504
 2393COH    COH 2393   6.585   4.065   0.508  0.4744 -0.3298  0.3838
 2394COC    COC 2394   6.548   4.330   0.461  0.3767 -0.2624  0.4062
 2395COC    COC 2395   6.361   4.426   0.266  0.1599 -0.2010  0.2866
 2396COC    COC 2396   6.403   4.684   0.116  0.3920 -0.0924 -0.2540
 2397COC    COC 2397   6.126   4.877   0.139 -0.0588  0.2578  0.0228
 2398COC    COC 2398   6.064   5.039   0.397 -0.2175  0.0435 -0.2475
 2399COC    COC 2399   5.885   5.313   0.524 -0.1573  0.2508 -0.0613
 2400COC    COC 2400   5.735   5.202   0.785 -0.2657  0.1221  0.0385
 2401COC    COC 2401   5.843   5.338   1.051  0.0692  0.1009 -0.3116
 2402COC    COC 2402   6.013   5.552   0.864  0.4115 -0.0993  0.2081
 2403COC    COC 2403   6.308   5.601   0.890 -0.3765 -0.1590 -0.0352
 2404COC    COC 2404   6.373   5.761   0.643 -0.3403  0.0413 -0.0847
 2405COC    COC 2405   6.316   5.538   0.429 -0.0915  0.0618 -0.0693
 2406COC    COC 2406   6.523   5.510   0.197 -0.1994  0.2487  0.1795
 2407COC    COC 2407   6.484   5.413  10.220  0.0309  0.0121  0.3239
 2408COC    COC 2408   6.199   5.368  10.158 -0.1930 -0.0030  0.0930
 2409COC    COC 2409   6.052   5.603  10.039 -0.1824  0.1453 -0.2745
 2410COC    COC 2410   6.141   5.914  10.134  0.1104  0.1088 -0.2789
 2411COC    COC 2411   6.267   6.107   9.943  0.3758 -0.3453 -0.0463
 2412COC    COC 2412   6.512   6.294   9.911 -0.0252  0.2491  0.1595
 2413COC    COC 2413   6.532   6.355   9.629 -0.4078 -0.0666 -0.1327
 2414COC    COC 2414   6.369   6.615   9.651 -0.2106  0.3910  0.0092
 2415COC    COC 2415   6.262   6.604   9.387 -0.3356 -0.0285 -0.0523
 2416COC    COC 2416   6.404   6.382   9.179  0.2323  0.1959 -0.3069
 2417COC    COC 2417   6.180   6.194   9.037 -0.4647 -0.1864 -0.1679
 2418COC    COC 2418   5.977   5.965   9.143  0.1157 -0.1651 -0.0301
 2419COC    COC 2419   5.694   5.950   9.193  0.0230  0.4598  0.1739
 2420COC    COC 2420   5.522   5.851   9.443  0.0101  0.2880  0.1313
 2421COC    COC 2421   5.484   6.063   9.698 -0.0777  0.1197  0.0890
 2422COC    COC 2422   5.786   6.154   9.790  0.2337 -0.1627  0.0573
 2423COC    COC 2423   5.746   6.110  10.081 -0.3879 -0.6008  0.0516
 2424COC    COC 2424   5.626   6.193   0.003 -0.2843 -0.5227 -0.4343
 2425COC    COC 2425   5.630   5.988   0.222  0.0565 -0.4484 -0.0781
 2426COC    COC 2426   5.679   6.087   0.474 -0.2001 -0.1927  0.0136
 2427COC    COC 2427   5.871   5.974   0.662  0.0723 -0.3156  0.5700
 2428COC    COC 2428   6.149   6.083   0.632  0.0591  0.0461 -0.5629
 2429COC    COC 2429   6.130   6.343   0.488 -0.1440 -0.0380 -0.4937
 2430COC    COC 2430   6.001   6.504   0.696 -0.0575  0.1393 -0.0188
 2431COC    COC 2431   6.161   6.500   0.969 -0.1735  0.0007  0.2395
 2432COC    COC 2432   6.283   6.244   1.030 -0.1044  0.2002  0.0803
 2433COC    COC 2433   6.512   6.114   0.861 -0.3807 -0.3732 -0.1721
 2434COC    COC 2434   6.712   6.033   1.070  0.4089  0.1773 -0.1999
 2435COC    COC 2435   6.814   6.281   1.275  0.0775  0.2561  0.0137
 2436COC    COC 2436   7.045   6.433   1.156 -0.2579  0.2667  0.2852
 2437COC    COC 2437   7.299   6.534   1.275  0.1335  0.0766  0.3020
 2438COH    COH 2438   7.416   6.424   1.521  0.1682 -0.1634  0.4565
 2439COH    COH 2439   0.883   7.447   9.870 -0.1077 -0.1424  0.4434
 2440COC    COC 2440   1.134   7.545   9.853  0.5612 -0.2229 -0.0367
 2441COC    COC 2441   1.205   7.845   9.915  0.0203 -0.1622  0.2928
 2442COC    COC 2442   1.301   7.751  10.190 -0.3402  0.2054 -0.5687
 2443COC    COC 2443   1.154   7.815   0.149 -0.1187 -0.1530 -0.5061
 2444COC    COC 2444   1.030   7.553   0.188 -0.0534  0.0156  0.1517
 2445COC    COC 2445   0.944   7.266   0.305 -0.1132  0.2389  0.2264
 2446COC    COC 2446   0.869   7.141   0.585 -0.2788  0.0252 -0.1380
 2447COC    COC 2447   0.586   7.028   0.664  0.0925  0.1414  0.0725
 2448COC    COC 2448   0.523   7.308   0.796 -0.0495 -0.1293  0.2304
 2449COC    COC 2449   0.471   7.270   1.078  0.2394 -0.1489  0.2363
 2450COC    COC 2450   0.317   6.998   1.141  0.1182  0.1495  0.2956
 2451COC    COC 2451   0.189   6.731   1.194 -0.2722  0.3423  0.4693
 2452COC    COC 2452   0.109   6.450   1.385 -0.1166 -0.1706  0.2767
 2453COC    COC 2453   0.245   6.447   1.651  0.0769 -0.4483 -0.1941
 2454COC    COC 2454   0.360   6.189   1.673 -0.3557  0.0503  0.1577
 2455COC    COC 2455   0.375   5.929   1.694  0.3444  0.6076  0.0908
 2456COC    COC 2456   0.412   5.658   1.810 -0.1304  0.1794 -0.2252
 2457COC    COC 2457   0.333   5.608   2.103  0.4282  0.0930 -0.0120
 2458COC    COC 2458   0.496   5.752   2.318  0.1122 -0.2467  0.1827
 2459COC    COC 2459   0.467   6.038   2.224 -0.0397  0.0413 -0.4719
 2460COC    COC 2460   0.505   6.330   2.291  0.3533 -0.3004  0.0602
 2461COC    COC 2461   0.499   6.589   2.435  0.1683 -0.3490  0.2410
 2462COC    COC 2462   0.692   6.696   2.641 -0.0544  0.1296 -0.1736
 2463COC    COC 2463   0.793   6.540   2.889 -0.1011  0.0667  0.3233
 2464COC    COC 2464   0.763   6.373   3.144  0.5120  0.3055  0.1713
 2465COC    COC 2465   0.601   6.150   3.115  0.1147 -0.1748  0.0452
 2466COC    COC 2466   0.459   6.170   3.381 -0.3720  0.1884  0.1202
 2467COC    COC 2467   0.395   5.937   3.551 -0.3048 -0.0518  0.0125
 2468COC    COC 2468   0.214   5.779   3.686  0.0049 -0.2193  0.0701
 2469COC    COC 2469   0.206   5.523   3.552  0.1413 -0.2441  0.1436
 2470COC    COC 2470  10.220   5.439   3.529 -0.0472  0.0416 -0.0169
 2471COC    COC 2471  10.032   5.527   3.267  0.0558  0.2279  0.2656
 2472COC    COC 2472  10.127   5.750   3.080  0.1362 -0.2330  0.5708
 2473COC    COC 2473   9.995   5.695   2.798 -0.0232  0.2639 -0.0750
 2474COC    COC 2474  10.059   5.663   2.496 -0.1489  0.2015 -0.2080
 2475COC    COC 2475   9.857   5.628   2.298  0.1014 -0.2445  0.1430
 2476COC    COC 2476   9.905   5.349   2.219 -0.1752 -0.0886  0.1359
 2477COC    COC 2477   9.931   5.057   2.303 -0.0733  0.1009  0.3755
 2478COC    COC 2478   9.815   4.889   2.051  0.2178  0.0445 -0.1627
 2479COC    COC 2479   9.654   5.091   1.871  0.4012 -0.0989  0.0754
 2480COC    COC 2480   9.490   5.303   2.060 -0.0121 -0.1720 -0.1595
 2481COC    COC 2481   9.235   5.428   2.018 -0.0231 -0.1918 -0.0798
 2482COC    COC 2482   9.187   5.665   2.189  0.1386  0.2061  0.0440
 2483COC    COC 2483   9.160   5.938   2.072 -0.0446 -0.0410 -0.0530
 2484COH    COH 2484   9.379   5.930   1.997 -0.4996  0.0192 -0.1657
 2485COH    COH 2485   0.146   2.101   1.715 -0.2812  0.1120  0.2769
 2486COC    COC 2486   0.361   1.916   1.742  0.0060 -0.3479  0.0948
 2487COC    COC 2487   0.614   2.035   1.893 -0.1495  0.1477  0.0049
 2488COC    COC 2488   0.516   2.204   2.133  0.3638 -0.0049 -0.3299
 2489COC    COC 2489   0.665   2.506   2.204  0.2262 -0.4109 -0.0554
 2490COC    COC 2490   0.989   2.541   2.232  0.2421 -0.4315  0.2343
 2491COC    COC 2491   1.051   2.486   2.518  0.0001 -0.1363 -0.3091
 2492COC    COC 2492   1.277   2.272   2.488  0.0170 -0.1655 -0.3418
 2493COC    COC 2493   1.510   2.298   2.663  0.0682  0.0817  0.3885
 2494COC    COC 2494   1.531   2.148   2.948  0.1931  0.0493 -0.0412
 2495COC    COC 2495   1.778   2.187   3.144 -0.0503 -0.5192 -0.3180
 2496COC    COC 2496   2.089   2.197   3.105  0.3859 -0.2898  0.1019
 2497COC    COC 2497   2.171   2.265   3.354  0.1764  0.1308 -0.0972
 2498COC    COC 2498   2.129   2.436   3.599 -0.3129 -0.0732 -0.1121
 2499COC    COC 2499   2.126   2.360   3.893 -0.0050  0.3843 -0.0149
 2500COC    COC 2500   2.383   2.240   4.058  0.2151  0.4033  0.4174
 2501COC    COC 2501   2.546   1.961   4.161  0.0731  0.1257  0.2533
 2502COC    COC 2502   2.681   1.703   4.116 -0.0629 -0.0194  0.0585
 2503COC    COC 2503   2.501   1.552   3.958  0.3216  0.2402  0.2182
 2504COC    COC 2504   2.352   1.322   4.120  0.1986  0.1362  0.4499
 2505COC    COC 2505   2.308   1.312   4.398  0.5471  0.1399 -0.2982
 2506COC    COC 2506   2.157   1.041   4.501 -0.6380 -0.1962 -0.3899
 2507COC    COC 2507   2.080   0.903   4.257 -0.3496  0.1954  0.2381
 2508COC    COC 2508   2.300   0.726   4.123  0.1532 -0.3030 -0.0764
 2509COC    COC 2509   2.615   0.901   4.167  0.2286  0.1448  0.2184
 2510COC    COC 2510   2.846   0.938   3.994  0.3040  0.1443 -0.2474
 2511COC    COC 2511   2.893   1.245   4.049  0.1286  0.0985  0.1045
 2512COC    COC 2512   3.035   1.365   3.817  0.0215 -0.0486 -0.0033
 2513COC    COC 2513   2.853   1.589   3.737  0.1972  0.2700  0.3508
 2514COC    COC 2514   2.699   1.637   3.472 -0.0474 -0.0303 -0.3031
 2515COC    COC 2515   2.693   1.516   3.183  0.1790 -0.0827  0.0188
 2516COC    COC 2516   2.440   1.381   3.082 -0.0173 -0.1344 -0.6418
 2517COC    COC 2517   2.461   1.092   3.201 -0.0783  0.0117 -0.1966
 2518COC    COC 2518   2.399   0.789   3.233  0.1589  0.0244  0.2580
 2519COC    COC 2519   2.364   0.487   3.319  0.0262  0.0209 -0.1604
 2520COC    COC 2520   2.503   0.349   3.552 -0.1378 -0.6352 -0.0909
 2521COC    COC 2521   2.461   0.102   3.665  0.2190  0.1405  0.1094
 2522COC    COC 2522   2.265  10.283   3.821  0.1341 -0.1047  0.0621
 2523COC    COC 2523   2.336  10.060   4.016 -0.2925  0.4171  0.3246
 2524COC    COC 2524   2.154   9.813   4.055  0.0826 -0.0810  0.1339
 2525COC    COC 2525   2.301   9.658   4.262  0.0881  0.0992 -0.0978
 2526COC    COC 2526   2.324   9.582   4.544 -0.4357 -0.0701 -0.2452
 2527COC    COC 2527   2.063   9.456   4.663  0.1155  0.3185 -0.0401
 2528COC    COC 2528   1.826   9.595   4.846 -0.2252  0.0556 -0.3818
 2529COC    COC 2529   1.660   9.411   5.064 -0.2568  0.0956 -0.1024
 2530COH    COH 2530   1.547   9.245   4.892  0.2957 -0.1670  0.0319
 2531COH    COH 2531   4.027   7.188   4.218 -0.5357  0.3917  0.8177
 2532COC    COC 2532   4.211   6.995   4.337  0.1972  0.1084  0.6895
 2533COC    COC 2533   4.188   6.734   4.148  0.1732 -0.0495  0.2511
 2534COC    COC 2534   4.524   6.607   4.108  0.1306 -0.0664  0.0037
 2535COC    COC 2535   4.689   6.563   3.851 -0.0738  0.0311  0.4026
 2536COC    COC 2536   4.787   6.713   3.644 -0.2647  0.0733  0.1277
 2537COC    COC 2537   5.035   6.868   3.611  0.4340  0.1886 -0.2412
 2538COC    COC 2538   5.018   7.122   3.649  0.1110 -0.0638  0.2904
 2539COC    COC 2539   4.915   7.311   3.439  0.0733  0.0330 -0.2828
 2540COC    COC 2540   4.871   7.642   3.399 -0.1698 -0.4424 -0.0039
 2541COC    COC 2541   5.064   7.877   3.298 -0.1912 -0.0880 -0.1189
 2542COC    COC 2542   5.061   8.145   3.436 -0.5236  0.1372 -0.1609
 2543COC    COC 2543   4.838   8.339   3.301 -0.0695  0.1666 -0.0203
 2544COC    COC 2544   4.783   8.300   2.958 -0.3696 -0.3187 -0.1998
 2545COC    COC 2545   4.707   8.511   2.755 -0.1647 -0.0005  0.2651
 2546COC    COC 2546   4.713   8.716   2.965 -0.2775  0.0190  0.0344
 2547COC    COC 2547   5.031   8.661   3.066 -0.1057  0.2788  0.1233
 2548COC    COC 2548   5.290   8.695   2.904 -0.1540  0.0471 -0.0725
 2549COC    COC 2549   5.594   8.553   2.938 -0.1428 -0.2691  0.0986
 2550COC    COC 2550   5.850   8.657   2.813 -0.2479 -0.2862  0.0661
 2551COC    COC 2551   6.004   8.585   2.538  0.4870 -0.0896  0.1753
 2552COC    COC 2552   5.839   8.490   2.309  0.1733 -0.1115  0.1790
 2553COC    COC 2553   5.570   8.516   2.192  0.1156  0.0285  0.0760
 2554COC    COC 2554   5.389   8.523   1.902 -0.2542  0.2899  0.1596
 2555COC    COC 2555   5.131   8.396   1.833 -0.1647 -0.0738 -0.3539
 2556COC    COC 2556   4.989   8.572   1.637  0.0495 -0.4311  0.0218
 2557COC    COC 2557   4.760   8.570   1.444 -0.0055  0.2909 -0.0945
 2558COC    COC 2558   4.695   8.356   1.254  0.0146 -0.1555  0.0856
 2559COC    COC 2559   4.421   8.317   1.132  0.1215  0.0351  0.5173
 2560COC    COC 2560   4.448   8.079   0.954 -0.0900 -0.2825  0.0021
 2561COC    COC 2561   4.726   8.009   0.958 -0.0064  0.1066 -0.0024
 2562COC    COC 2562   4.998   8.146   1.020  0.0955  0.0242 -0.0498
 2563COC    COC 2563   5.037   8.065   1.295  0.3666  0.2795  0.0674
 2564COC    COC 2564   5.243   8.165   1.504  0.2314 -0.0540  0.4880
 2565COC    COC 2565   5.377   8.405   1.370  0.1392 -0.0155  0.0862
 2566COC    COC 2566   5.182   8.563   1.226  0.1174 -0.6902 -0.5999
 2567COC    COC 2567   5.342   8.734   1.022  0.2017 -0.3752 -0.1389
 2568COC    COC 2568   5.293   8.776   0.737 -0.1742  0.0543  0.1493
 2569COC    COC 2569   5.489   8.669   0.543 -0.1985  0.1125 -0.0642
 2570COC    COC 2570   5.575   8.527   0.305 -0.3044  0.1154  0.0126
 2571COC    COC 2571   5.815   8.333   0.223 -0.0484 -0.3292  0.2109
 2572COC    COC 2572   5.755   8.167  10.334  0.1003  0.2373 -0.1536
 2573COC    COC 2573   5.569   7.932   0.009  0.1626  0.1461  0.0431
 2574COC    COC 2574   5.275   7.978   0.119 -0.4431 -0.0150 -0.2424
 2575COC    COC 2575   5.274   8.236   0.248 -0.3251  0.0654  0.0158
 2576COH    COH 2576   5.065   8.389   0.213 -0.2017 -0.1726 -0.6026
 2577COH    COH 2577   1.252   2.609   0.019 -0.2519 -0.1024  0.2890
 2578COC    COC 2578   1.303   2.833   0.124  0.0239  0.0271  0.2969
 2579COC    COC 2579   1.492   3.003   0.300  0.0891 -0.0352 -0.0082
 2580COC    COC 2580   1.370   3.075   0.582  0.2849  0.3650 -0.3098
 2581COC    COC 2581   1.334   2.985   0.883  0.0374  0.2849 -0.0595
 2582COC    COC 2582   1.034   2.943   1.030 -0.3343 -0.0457  0.1332
 2583COC    COC 2583   0.838   2.908   0.838  0.1017 -0.0022 -0.3370
 2584COC    COC 2584   0.627   3.127   0.791 -0.2333  0.1629  0.2770
 2585COC    COC 2585   0.436   3.074   0.530 -0.0335  0.3123  0.0573
 2586COC    COC 2586   0.497   2.921   0.243 -0.0222 -0.0184 -0.1374
 2587COC    COC 2587   0.616   2.641   0.128  0.1589 -0.0527 -0.2486
 2588COC    COC 2588   0.918   2.542   0.200 -0.2411  0.0270  0.1979
 2589COC    COC 2589   0.953   2.270   0.335  0.1192  0.2725  0.0377
 2590COC    COC 2590   0.933   2.220   0.664 -0.1618  0.5692  0.3111
 2591COC    COC 2591   1.192   2.249   0.891  0.4191  0.2720 -0.0133
 2592COC    COC 2592   1.497   2.169   0.861 -0.1822 -0.0343  0.3940
 2593COC    COC 2593   1.677   2.009   0.725 -0.2016 -0.1593  0.0214
 2594COC    COC 2594   1.624   1.706   0.744 -0.1479 -0.0405 -0.1627
 2595COC    COC 2595   1.811   1.513   0.588  0.2120  0.2400  0.0106
 2596COC    COC 2596   2.033   1.542   0.404  0.1653 -0.4560 -0.7691
 2597COC    COC 2597   2.255   1.733   0.416 -0.1496  0.2245  0.5832
 2598COC    COC 2598   2.101   2.000   0.352  0.0067  0.4003  0.0457
 2599COC    COC 2599   2.016   2.202   0.583 -0.1117 -0.1874 -0.2583
 2600COC    COC 2600   2.298   2.281   0.704  0.2104 -0.2989  0.0332
 2601COC    COC 2601   2.356   2.276   0.980  0.0168  0.0942 -0.1912
 2602COC    COC 2602   2.462   2.010   0.996 -0.2953 -0.0562 -0.1185
 2603COC    COC 2603   2.488   2.049   1.313 -0.0567 -0.0410  0.1798
 2604COC    COC 2604   2.435   2.105   1.586  0.0804 -0.0523 -0.0558
 2605COC    COC 2605   2.296   2.377   1.610  0.3142 -0.2938 -0.3105
 2606COC    COC 2606   2.410   2.649   1.639 -0.1864 -0.0654 -0.2346
 2607COC    COC 2607   2.581   2.883   1.496 -0.0025 -0.0397 -0.2511
 2608COC    COC 2608   2.633   3.118   1.674  0.0670 -0.0304  0.5588
 2609COC    COC 2609   2.365   3.296   1.720 -0.4601  0.2679  0.3335
 2610COC    COC 2610   2.280   3.380   1.464  0.0136 -0.1441  0.2232
 2611COC    COC 2611   2.374   3.611   1.289 -0.1039 -0.1890  0.2470
 2612COC    COC 2612   2.629   3.727   1.191  0.2477  0.1238  0.6156
 2613COC    COC 2613   2.622   3.498   0.984 -0.0244 -0.1087 -0.2666
 2614COC    COC 2614   2.418   3.493   0.784 -0.2096 -0.2076 -0.0009
 2615COC    COC 2615   2.153   3.309   0.811 -0.2898  0.3860  0.4795
 2616COC    COC 2616   2.115   3.198   0.509  0.1165 -0.1687 -0.2636
 2617COC    COC 2617   1.839   3.004   0.548 -0.3967  0.1920  0.0647
 2618COC    COC 2618   1.849   2.844   0.803 -0.0359  0.1109  0.1549
 2619COC    COC 2619   1.654   2.627   0.766  0.0700  0.2444 -0.2345
 2620COC    COC 2620   1.493   2.585   1.047  0.3237 -0.5136  0.1255
 2621COC    COC 2621   1.404   2.361   1.240  0.2151 -0.1980  0.1170
 2622COH    COH 2622   1.627   2.207   1.259  0.8907 -0.0326 -0.5082
 2623COH    COH 2623   4.568   0.417   6.201  0.3681 -0.1261 -0.3302
 2624COC    COC 2624   4.522   0.674   6.076 -0.0535  0.4612 -0.0110
 2625COC    COC 2625   4.627   0.689   5.790  0.1250  0.1673 -0.1421
 2626COC    COC 2626   4.562   0.877   5.554  0.1491 -0.2251 -0.1293
 2627COC    COC 2627   4.753   0.771   5.346 -0.1902  0.0440 -0.2797
 2628COC    COC 2628   4.595   0.774   5.101  0.2145  0.2823 -0.2279
 2629COC    COC 2629   4.328   0.646   5.157 -0.0099  0.1213 -0.0536
 2630COC    COC 2630   4.033   0.460   5.118  0.0411  0.1468  0.2889
 2631COC    COC 2631   4.239   0.171   5.130  0.0436  0.1179 -0.1811
 2632COC    COC 2632   4.320  10.249   5.280 -0.2059  0.1090  0.1150
 2633COC    COC 2633   4.548  10.270   5.525  0.0644  0.4130 -0.3066
 2634COC    COC 2634   4.710  10.139   5.748  0.0742  0.0382 -0.2165
 2635COC    COC 2635   4.958   9.955   5.678  0.2007 -0.0200  0.1036
 2636COC    COC 2636   5.063   9.657   5.679 -0.2775  0.1283 -0.2819
 2637COC    COC 2637   5.352   9.688   5.776 -0.1762  0.0237  0.0889
 2638COC    COC 2638   5.559   9.499   5.798 -0.1334  0.0182  0.1847
 2639COC    COC 2639   5.821   9.571   5.969 -0.2081  0.1359 -0.2172
 2640COC    COC 2640   6.119   9.638   5.987  0.0931  0.3140 -0.5404
 2641COC    COC 2641   6.213   9.554   6.201  0.2823  0.0231  0.2510
 2642COC    COC 2642   6.007   9.333   6.293 -0.1542 -0.3080 -0.0950
 2643COC    COC 2643   5.841   9.417   6.530  0.0899  0.0230 -0.2430
 2644COC    COC 2644   5.614   9.260   6.563  0.2722  0.1879  0.3335
 2645COC    COC 2645   5.440   9.216   6.835  0.0949 -0.4082  0.7370
 2646COC    COC 2646   5.244   9.303   7.071  0.1857 -0.0899  0.3742
 2647COC    COC 2647   5.262   9.555   7.221 -0.0533  0.6286  0.3529
 2648COC    COC 2648   5.337   9.827   7.088  0.1829  0.0469  0.1010
 2649COC    COC 2649   5.155   9.898   6.862 -0.0009 -0.5858 -0.0626
 2650COC    COC 2650   5.090  10.146   6.685  0.0566  0.3665  0.3013
 2651COC    COC 2651   5.156   0.103   6.773 -0.4078  0.0542  0.4563
 2652COC    COC 2652   5.325   0.043   7.003 -0.3862 -0.0488 -0.0380
 2653COC    COC 2653   5.477  10.205   7.202 -0.2575  0.1936 -0.2967
 2654COC    COC 2654   5.494  10.120   7.508 -0.1061  0.1911  0.3713
 2655COC    COC 2655   5.654  10.246   7.716 -0.0719  0.1028  0.0423
 2656COC    COC 2656   5.445   0.125   7.811 -0.1361  0.2579  0.0990
 2657COC    COC 2657   5.194   0.161   7.722  0.2250 -0.0065 -0.0511
 2658COC    COC 2658   4.953  10.336   7.726  0.1265 -0.0026 -0.2296
 2659COC    COC 2659   4.713   0.008   7.503 -0.1499 -0.1965 -0.3397
 2660COC    COC 2660   4.702   0.202   7.276 -0.2412  0.1451 -0.1574
 2661COC    COC 2661   5.011   0.231   7.288 -0.4323  0.1112 -0.2092
 2662COC    COC 2662   5.103   0.469   7.410 -0.0864 -0.1604 -0.2018
 2663COC    COC 2663   5.236   0.673   7.198  0.0139 -0.0794 -0.2224
 2664COC    COC 2664   5.403   0.806   7.426  0.0361  0.0799 -0.1081
 2665COC    COC 2665   5.358   1.034   7.586 -0.2108 -0.3591  0.4542
 2666COC    COC 2666   5.089   1.207   7.624 -0.1987 -0.0538 -0.3148
 2667COC    COC 2667   5.100   1.483   7.463  0.1182 -0.1170 -0.0146
 2668COH    COH 2668   5.359   1.622   7.445  0.3172 -0.1263  0.4781
 2669COH    COH 2669   6.870   3.387   3.821 -0.1228 -0.2882  0.3939
 2670COC    COC 2670   6.731   3.328   4.036 -0.0781  0.4495  0.1335
 2671COC    COC 2671   6.580   3.517   4.234 -0.3526  0.2200  0.2178
 2672COC    COC 2672   6.305   3.627   4.178 -0.2078 -0.1267 -0.0956
 2673COC    COC 2673   6.102   3.794   4.054 -0.0448 -0.2917  0.0295
 2674COC    COC 2674   6.012   4.035   4.147  0.0552 -0.2908 -0.0593
 2675COC    COC 2675   6.090   4.193   4.392 -0.0199  0.1481 -0.4642
 2676COC    COC 2676   6.323   4.293   4.545 -0.2155  0.0269  0.1746
 2677COC    COC 2677   6.453   4.072   4.725 -0.3725  0.4922  0.1428
 2678COC    COC 2678   6.623   3.831   4.594 -0.4439  0.2560  0.1070
 2679COC    COC 2679   6.852   4.003   4.484  0.2106  0.1836 -0.0521
 2680COC    COC 2680   6.903   4.238   4.653 -0.0415 -0.0032  0.0726
 2681COC    COC 2681   7.037   4.465   4.491 -0.1694 -0.1937 -0.2106
 2682COC    COC 2682   7.210   4.665   4.572 -0.0787  0.3517  0.0726
 2683COC    COC 2683   7.456   4.757   4.482 -0.2267  0.3349  0.4915
 2684COC    COC 2684   7.455   5.067   4.451 -0.1547 -0.2477  0.4425
 2685COC    COC 2685   7.367   5.128   4.190 -0.0249 -0.3390 -0.0090
 2686COC    COC 2686   7.345   5.201   3.896  0.2977  0.2039  0.2897
 2687COC    COC 2687   7.358   5.477   3.880  0.2708  0.1084 -0.0362
 2688COC    COC 2688   7.640   5.602   3.944  0.0269 -0.0534  0.0805
 2689COC    COC 2689   7.890   5.659   3.827  0.1524  0.0693 -0.0801
 2690COC    COC 2690   8.083   5.405   3.880 -0.0201  0.1143 -0.2487
 2691COC    COC 2691   7.969   5.133   3.690 -0.0505 -0.0704 -0.1560
 2692COC    COC 2692   8.151   4.878   3.644 -0.2104  0.4010  0.1712
 2693COC    COC 2693   8.061   4.659   3.467 -0.2583 -0.1891  0.2190
 2694COC    COC 2694   8.027   4.429   3.670 -0.0159  0.3240  0.0287
 2695COC    COC 2695   7.981   4.181   3.597  0.1443 -0.2332  0.1052
 2696COC    COC 2696   8.280   4.062   3.509 -0.2230  0.3468 -0.3933
 2697COC    COC 2697   8.410   3.779   3.522 -0.3253 -0.3827  0.1649
 2698COC    COC 2698   8.209   3.498   3.505 -0.1681 -0.1958  0.1743
 2699COC    COC 2699   8.065   3.346   3.718 -0.0181 -0.0634 -0.3469
 2700COC    COC 2700   8.084   3.255   3.968 -0.1756  0.3169  0.2845
 2701COC    COC 2701   8.092   2.974   4.065  0.0394 -0.0420 -0.2046
 2702COC    COC 2702   8.009   2.658   4.052  0.2225  0.0408  0.3515
 2703COC    COC 2703   8.187   2.471   4.279  0.4024  0.3098  0.0109
 2704COC    COC 2704   8.475   2.611   4.377 -0.2500 -0.0590 -0.0108
 2705COC    COC 2705   8.564   2.289   4.382 -0.4551 -0.0454 -0.3344
 2706COC    COC 2706   8.776   2.157   4.230 -0.0154 -0.4720 -0.2125
 2707COC    COC 2707   8.934   2.293   3.959  0.0363 -0.2146 -0.5049
 2708COC    COC 2708   9.149   2.462   3.911  0.0774  0.1492 -0.4256
 2709COC    COC 2709   9.240   2.587   3.649  0.1113 -0.4037 -0.2818
 2710COC    COC 2710   9.161   2.455   3.400 -0.2029  0.1234  0.2291
 2711COC    COC 2711   8.976   2.430   3.219 -0.0320  0.2649  0.0527
 2712COC    COC 2712   9.014   2.279   2.955 -0.2311  0.2131  0.1274
 2713COC    COC 2713   9.248   2.326   2.727  0.0116  0.6631  0.6594
 2714COH    COH 2714   9.231   2.132   2.556  0.1115 -0.1030 -0.1726
 2715COH    COH 2715   5.260   1.975   3.087  0.0420  0.5451  0.4410
 2716COC    COC 2716   5.332   2.200   3.196  0.0992 -0.2307 -0.2099
 2717COC    COC 2717   5.183   2.402   2.994 -0.3386 -0.1258  0.1996
 2718COC    COC 2718   5.408   2.589   2.814 -0.1534  0.1057 -0.0464
 2719COC    COC 2719   5.681   2.454   2.821  0.0489  0.1564  0.0417
 2720COC    COC 2720   5.726   2.397   2.513 -0.2918 -0.1895 -0.1092
 2721COC    COC 2721   5.876   2.576   2.324  0.1894 -0.4060  0.4632
 2722COC    COC 2722   5.857   2.826   2.488 -0.2274  0.7685 -0.3720
 2723COC    COC 2723   5.622   2.996   2.390 -0.0638  0.0466  0.1115
 2724COC    COC 2724   5.632   3.304   2.365  0.2090  0.0567 -0.0058
 2725COC    COC 2725   5.402   3.321   2.596 -0.1403  0.2193 -0.0662
 2726COC    COC 2726   5.304   3.484   2.822 -0.1517 -0.1228  0.2258
 2727COC    COC 2727   5.381   3.416   3.084 -0.1865 -0.3900 -0.0646
 2728COC    COC 2728   5.539   3.523   3.338 -0.3060  0.0490 -0.0053
 2729COC    COC 2729   5.825   3.559   3.297 -0.0098 -0.3251  0.4527
 2730COC    COC 2730   5.822   3.798   3.543 -0.2405 -0.1780  0.0863
 2731COC    COC 2731   5.511   3.888   3.662 -0.3573  0.2046  0.2858
 2732COC    COC 2732   5.579   4.091   3.816 -0.0304  0.0017  0.0612
 2733COC    COC 2733   5.798   4.313   3.793 -0.3374 -0.2973  0.0573
 2734COC    COC 2734   5.823   4.251   3.485  0.3838 -0.1622 -0.0086
 2735COC    COC 2735   5.609   4.122   3.298  0.4323 -0.3234  0.1624
 2736COC    COC 2736   5.352   4.240   3.378  0.0970 -0.4865  0.1140
 2737COC    COC 2737   5.224   4.269   3.652 -0.0030  0.1423  0.3017
 2738COC    COC 2738   5.290   4.377   3.931  0.2273  0.1989 -0.2380
 2739COC    COC 2739   5.525   4.594   4.005 -0.0282  0.1824  0.0313
 2740COC    COC 2740   5.502   4.840   3.812  0.3636 -0.1640 -0.5393
 2741COC    COC 2741   5.288   4.749   3.606  0.2489  0.0207  0.2535
 2742COC    COC 2742   5.034   4.661   3.776 -0.0477 -0.2256 -0.0094
 2743COC    COC 2743   4.907   4.627   4.053  0.4420 -0.2335  0.0678
 2744COC    COC 2744   4.719   4.888   4.108 -0.4828  0.2435  0.1293
 2745COC    COC 2745   4.823   5.037   3.870  0.4547  0.2253 -0.0744
 2746COC    COC 2746   4.622   5.254   3.791  0.4418  0.1770  0.2405
 2747COC    COC 2747   4.404   5.144   3.978 -0.0272  0.0173  0.1257
 2748COC    COC 2748   4.106   5.086   3.904 -0.1806 -0.0426  0.0107
 2749COC    COC 2749   3.979   5.341   3.763 -0.0577 -0.1291 -0.5055
 2750COC    COC 2750   3.809   5.579   3.867  0.2304 -0.0267 -0.0752
 2751COC    COC 2751   3.628   5.765   3.704  0.7033  0.1677 -0.1989
 2752COC    COC 2752   3.516   6.032   3.811  0.0422  0.0174 -0.4903
 2753COC    COC 2753   3.389   6.086   4.108 -0.2187  0.0950  0.3709
 2754COC    COC 2754   3.177   6.283   4.201 -0.1553 -0.2808 -0.0381
 2755COC    COC 2755   3.345   6.523   4.332 -0.1850  0.1154  0.0051
 2756COC    COC 2756   3.459   6.641   4.594  0.1108 -0.1432  0.0355
 2757COC    COC 2757   3.761   6.643   4.638  0.4168  0.1443 -0.0614
 2758COC    COC 2758   4.027   6.734   4.610 -0.1317  0.1963 -0.2729
 2759COC    COC 2759   4.233   6.688   4.866 -0.2348 -0.1721  0.0082
 2760COH    COH 2760   4.113   6.630   5.089 -0.1846 -0.2332  0.0848
 2761NCO    NCO 2761   5.996  10.231   6.795  0.1850  0.2947 -0.1844
 2762CC1    CC1 2762   5.691  10.205   6.904  0.4023 -0.4203  0.3715
 2763CC1    CC1 2763   5.556  10.084   6.708  0.3152  0.1130  0.2165
 2764NCC    NCC 2764   5.413   9.983   6.449  0.0472 -0.0137 -0.2147
 2765CONH  CONH 2765   5.119   9.876   6.385  0.1113  0.0675  0.0173
 2766CC1    CC1 2766   5.040   9.856   6.056  0.2473  0.4354 -0.7184
 2767CC1    CC1 2767   4.817   9.853   5.997 -0.0303  0.2559 -0.5015
 2768CC1    CC1 2768   4.577   9.800   5.920 -0.3156  0.2663 -0.2106
 2769NCO    NCO 2769   4.612   9.528   5.779 -0.3020 -0.2164  0.0998
 2770CONH  CONH 2770   5.431  10.018   6.145  0.1907 -0.2172  0.2363
 2771CC1    CC1 2771   5.234  10.081   5.995 -0.1633  0.0884 -0.1258
 2772CC1    CC1 2772   5.031  10.210   5.984  0.0418 -0.2094 -0.6365
 2773CC1    CC1 2773   4.932   0.057   5.918  0.1388  0.0651 -0.1092
 2774NCO    NCO 2774   4.678   0.251   5.997 -0.1382 -0.0474  0.2995
 2775NCO    NCO 2775   5.861   8.722   9.642  0.5245 -0.0328  0.2556
 2776CC1    CC1 2776   5.995   8.977   9.733  0.0894  0.0302  0.0187
 2777CC1    CC1 2777   6.186   9.003   9.655 -0.0878 -0.0876 -0.1023
 2778NCC    NCC 2778   6.394   9.174   9.546  0.3092  0.3979 -0.0913
 2779CONH  CONH 2779   6.417   9.263   9.241 -0.3218 -0.5443 -0.0344
 2780CC1    CC1 2780   6.487   9.108   9.066  0.1934 -0.2977 -0.0425
 2781CC1    CC1 2781   6.675   8.949   9.127 -0.0912 -0.6368 -0.5408
 2782CC1    CC1 2782   6.917   8.899   9.203 -0.4758  0.1499 -0.1335
 2783NCO    NCO 2783   6.915   8.705   9.395  0.2034 -0.1906  0.4098
 2784CONH  CONH 2784   6.700   9.120   9.569 -0.0415  0.2828  0.5528
 2785CC1    CC1 2785   6.862   9.267   9.409  0.0434 -0.4507 -0.0078
 2786CC1    CC1 2786   6.932   9.240   9.160 -0.1628  0.0130 -0.2695
 2787CC1    CC1 2787   6.917   9.193   8.959 -0.4492  0.2822  0.2914
 2788NCO    NCO 2788   6.917   8.968   8.807  0.2203  0.0785  0.0400
 2789NCO    NCO 2789  10.160   4.525   2.501 -0.1345  0.1742  0.0422
 2790CC1    CC1 2790   9.925   4.623   2.627 -0.2304 -0.2719  0.2291
 2791CC1    CC1 2791   9.745   4.662   2.448  0.0862  0.4461  0.3870
 2792NCC    NCC 2792   9.506   4.522   2.297 -0.1559  0.1942 -0.1075
 2793CONH  CONH 2793   9.189   4.572   2.309  0.0187 -0.3186  0.4932
 2794CC1    CC1 2794   9.070   4.770   2.395 -0.2583  0.0772 -0.3727
 2795CC1    CC1 2795   9.066   4.986   2.286  0.1786  0.1944 -0.1402
 2796CC1    CC1 2796   9.001   5.158   2.136  0.0724  0.1515 -0.1296
 2797NCO    NCO 2797   8.850   5.392   2.235 -0.0320  0.2031  0.0793
 2798CONH  CONH 2798   9.425   4.408   2.023  0.0849 -0.1294  0.1615
 2799CC1    CC1 2799   9.513   4.476   1.807  0.0883 -0.0686 -0.1755
 2800CC1    CC1 2800   9.656   4.291   1.700  0.1897 -0.1386 -0.1285
 2801CC1    CC1 2801   9.770   4.099   1.573 -0.1125 -0.2117 -0.6296
 2802NCO    NCO 2802  10.046   4.096   1.603  0.2106 -0.1299 -0.0527
 2803NCO    NCO 2803   9.584   8.839   2.632 -0.0135 -0.3430 -0.3563
 2804CC1    CC1 2804   9.765   8.630   2.572 -0.4757  0.2216 -0.1280
 2805CC1    CC1 2805   9.922   8.670   2.375 -0.2506  0.5406  0.1569
 2806NCC    NCC 2806   9.970   8.870   2.251  0.1614 -0.3940 -0.4955
 2807CONH  CONH 2807   9.777   9.100   2.175  0.3739  0.0653 -0.3218
 2808CC1    CC1 2808   9.541   9.092   2.236  0.4561 -0.3261 -0.1376
 2809CC1    CC1 2809   9.374   9.030   2.088 -0.0078  0.5004 -0.1005
 2810CC1    CC1 2810   9.227   8.975   1.905 -0.5675  0.3725 -0.2062
 2811NCO    NCO 2811   9.442   8.884   1.713  0.2399 -0.1178  0.1081
 2812CONH  CONH 2812  10.200   9.040   2.146  0.1113 -0.0295 -0.0900
 2813CC1    CC1 2813  10.177   9.127   1.863  0.1359  0.2817  0.1068
 2814CC1    CC1 2814   9.995   9.250   1.798 -0.1379 -0.5147  0.0571
 2815CC1    CC1 2815   9.792   9.393   1.701 -0.4430 -0.0258 -0.2243
 2816NCO    NCO 2816   9.969   9.550   1.532  0.5280 -0.2738 -0.0046
 2817NCO    NCO 2817  10.341   5.284   2.260  0.1259  0.2010 -0.3244
 2818CC1    CC1 2818  10.202   5.156   2.077  0.1892  0.1992 -0.1889
 2819CC1    CC1 2819  10.236   4.940   1.989  0.3914 -0.1887 -0.0813
 2820NCC    NCC 2820   0.012   4.764   1.802  0.0401  0.4113  0.3906
 2821CONH  CONH 2821   0.132   4.809   1.491 -0.1768 -0.2014 -0.2241
 2822CC1    CC1 2822   0.006   4.975   1.321 -0.1339 -0.2033  0.1941
 2823CC1    CC1 2823   0.089   5.170   1.174  0.1231  0.1880  0.5344
 2824CC1    CC1 2824   0.194   5.269   0.988  0.1067  0.2613  0.2816
 2825NCO    NCO 2825   0.097   5.510   0.888  0.1438 -0.0583 -0.1178
 2826CONH  CONH 2826  10.249   4.507   1.644  0.4754 -0.1634  0.0080
 2827CC1    CC1 2827  10.202   4.511   1.404  0.0432 -0.1807  0.3624
 2828CC1    CC1 2828  10.297   4.583   1.177 -0.2701  0.2712 -0.0531
 2829CC1    CC1 2829  10.269   4.653   0.973 -0.0808  0.0397  0.1276
 2830NCO    NCO 2830  10.186   4.726   0.698 -0.3203 -0.1083  0.0843
 2831NCO    NCO 2831   5.665   0.609   8.489 -0.0097  0.0848 -0.5558
 2832CC1    CC1 2832   5.562   0.790   8.248  0.2383 -0.3836 -0.0432
 2833CC1    CC1 2833   5.354   0.790   8.256 -0.0654 -0.1896 -0.4701
 2834NCC    NCC 2834   5.081   0.645   8.346  0.1063  0.0560  0.4000
 2835CONH  CONH 2835   4.934   0.589   8.621  0.1245  0.1537  0.0532
 2836CC1    CC1 2836   4.713   0.418   8.651 -0.4929  0.0920 -0.1159
 2837CC1    CC1 2837   4.741   0.234   8.788 -0.2082 -0.4538  0.2590
 2838CC1    CC1 2838   4.810   0.003   8.861  0.0339 -0.1568 -0.3647
 2839NCO    NCO 2839   5.039   0.043   9.074 -0.0226 -0.2036 -0.4744
 2840CONH  CONH 2840   4.997   0.351   8.272  0.1807 -0.1792  0.2307
 2841CC1    CC1 2841   4.752   0.312   8.320  0.8831 -0.2339 -0.0481
 2842CC1    CC1 2842   4.531   0.234   8.180 -0.1818  0.2389 -0.0585
 2843CC1    CC1 2843   4.334   0.162   8.100 -0.1502  0.0944 -0.3320
 2844NCO    NCO 2844   4.099   0.051   8.313 -0.1469 -0.0091  0.0669
 2845NCO    NCO 2845   4.088   4.793   7.475  0.0304 -0.0520 -0.1067
 2846CC1    CC1 2846   4.095   4.485   7.361 -0.1576  0.0727  0.0312
 2847CC1    CC1 2847   3.958   4.356   7.236 -0.4770  0.2559  0.3362
 2848NCC    NCC 2848   3.751   4.208   7.186 -0.0876  0.0583 -0.1246
 2849CONH  CONH 2849   3.450   4.246   7.180 -0.0562 -0.0864 -0.1845
 2850CC1    CC1 2850   3.302   4.140   6.968 -0.2408 -0.0731  0.1372
 2851CC1    CC1 2851   3.310   3.854   6.964  0.2835 -0.2830  0.0117
 2852CC1    CC1 2852   3.396   3.658   6.905 -0.1139  0.0625  0.2141
 2853NCO    NCO 2853   3.470   3.596   6.663 -0.0621  0.2270  0.1488
 2854CONH  CONH 2854   3.680   3.885   7.172  0.3115 -0.2665  0.1789
 2855CC1    CC1 2855   3.653   3.729   7.383 -0.4434  0.1678  0.0689
 2856CC1    CC1 2856   3.862   3.621   7.484  0.4976 -0.0431  0.7018
 2857CC1    CC1 2857   4.017   3.456   7.544 -0.0300 -0.3603  0.0834
 2858NCO    NCO 2858   3.923   3.245   7.720 -0.1482  0.0818 -0.2979
 2859NCO    NCO 2859   6.819   2.676   8.039 -0.1900  0.3673  0.0320
 2860CC1    CC1 2860   6.599   2.633   7.804 -0.0097 -0.0117  0.1192
 2861CC1    CC1 2861   6.356   2.634   7.832  0.0143 -0.0503  0.1261
 2862NCC    NCC 2862   6.078   2.613   7.735 -0.0683 -0.2760  0.1393
 2863CONH  CONH 2863   5.849   2.435   7.766  0.2718  0.1482 -0.3531
 2864CC1    CC1 2864   5.724   2.287   7.510  0.5352 -0.2526 -0.1966
 2865CC1    CC1 2865   5.493   2.246   7.405 -0.3173 -0.0976 -0.4478
 2866CC1    CC1 2866   5.262   2.177   7.364  0.9142  0.4944 -0.2825
 2867NCO    NCO 2867   5.274   1.914   7.365  0.1841  0.0413  0.2061
 2868CONH  CONH 2868   5.890   2.729   7.484  0.3323 -0.1726 -0.1010
 2869CC1    CC1 2869   5.912   2.622   7.271 -0.1019 -0.2755 -0.4336
 2870CC1    CC1 2870   5.804   2.459   7.174  0.2015  0.2178 -0.0917
 2871CC1    CC1 2871   5.608   2.345   7.098 -0.7061  0.1986  0.0378
 2872NCO    NCO 2872   5.516   2.081   7.032  0.1615 -0.1351  0.0775
 2873NCO    NCO 2873   9.248   0.339   1.539 -0.2148  0.1287  0.0515
 2874CC1    CC1 2874   9.049   0.139   1.518  0.1469 -0.3776 -0.6551
 2875CC1    CC1 2875   8.956  10.307   1.391 -0.1345 -0.2055 -0.5722
 2876NCC    NCC 2876   9.039  10.089   1.270 -0.5409 -0.2119  0.3076
 2877CONH  CONH 2877   9.203   9.828   1.384 -0.1402 -0.2040 -0.0521
 2878CC1    CC1 2878   9.348   9.689   1.234 -0.5631  0.2223  0.1234
 2879CC1    CC1 2879   9.493   9.740   1.054 -0.6360  0.0431  0.6212
 2880CC1    CC1 2880   9.637   9.914   0.910  0.0387  0.1182 -0.4838
 2881NCO    NCO 2881   9.848   9.779   0.769  0.1987 -0.1644 -0.4006
 2882CONH  CONH 2882   9.066   9.960   0.992  0.1275 -0.1962  0.1165
 2883CC1    CC1 2883   9.025   9.714   0.951  0.1908  0.0741 -0.0083
 2884CC1    CC1 2884   9.240   9.656   0.835  0.2514 -0.2588 -0.2025
 2885CC1    CC1 2885   9.341   9.566   0.668 -0.5274  0.1480 -0.1889
 2886NCO    NCO 2886   9.555   9.351   0.833  0.3940 -0.2937  0.0098
 2887NCO    NCO 2887   2.646   6.821   9.505 -0.3094  0.0433  0.0451
 2888CC1    CC1 2888   2.699   7.123   9.556 -0.2618  0.6073 -0.2563
 2889CC1    CC1 2889   2.661   7.285   9.366 -0.1787  0.1302 -0.4268
 2890NCC    NCC 2890   2.621   7.541   9.223 -0.2674  0.3553 -0.3547
 2891CONH  CONH 2891   2.777   7.802   9.284 -0.1256 -0.1536  0.4315
 2892CC1    CC1 2892   2.870   7.965   9.070  0.2321  0.3391  0.2108
 2893CC1    CC1 2893   2.865   8.212   9.030 -0.1284 -0.3713 -0.1151
 2894CC1    CC1 2894   2.793   8.434   8.973 -0.1828 -0.3967  0.0040
 2895NCO    NCO 2895   2.966   8.653   8.982 -0.0719  0.5293 -0.3940
 2896CONH  CONH 2896   2.496   7.677   8.952 -0.0421  0.0812  0.0644
 2897CC1    CC1 2897   2.597   7.917   8.857 -0.5726  0.2937 -0.5835
 2898CC1    CC1 2898   2.543   8.090   8.949  0.1691  0.6659 -0.1121
 2899CC1    CC1 2899   2.529   8.215   9.142 -0.1356 -0.8672 -0.0126
 2900NCO    NCO 2900   2.429   8.033   9.327  0.2302 -0.1328  0.1852
 2901NCO    NCO 2901   0.547   7.623   5.508 -0.0183  0.0263 -0.5890
 2902CC1    CC1 2902   0.297   7.598   5.634  0.0202 -0.3293 -0.0761
 2903CC1    CC1 2903   0.250   7.445   5.780  0.0752  0.1853 -0.0954
 2904NCC    NCC 2904   0.075   7.228   5.906 -0.0092 -0.2066  0.1621
 2905CONH  CONH 2905   0.115   7.052   6.182  0.1913 -0.0956  0.2446
 2906CC1    CC1 2906   0.127   7.221   6.428 -0.0861  0.0092 -0.4862
 2907CC1    CC1 2907   0.189   7.419   6.474  0.0566  0.0166  0.3353
 2908CC1    CC1 2908   0.302   7.598   6.584  0.0624 -0.0091 -0.0512
 2909NCO    NCO 2909   0.462   7.434   6.726 -0.2003 -0.1910  0.1468
 2910CONH  CONH 2910  10.107   7.256   5.972 -0.3113 -0.0107 -0.2322
 2911CC1    CC1 2911  10.050   7.501   6.096  0.1473 -0.5268  0.0112
 2912CC1    CC1 2912  10.098   7.713   6.023  0.7051 -0.4559  0.3494
 2913CC1    CC1 2913  10.125   7.943   5.994 -0.2936 -0.3268 -0.2026
 2914NCO    NCO 2914  10.037   8.191   6.164  0.1449  0.0339  0.2862
 2915NCO    NCO 2915   3.703   0.507   9.554 -0.1601  0.6093  0.0661
 2916CC1    CC1 2916   3.991   0.487   9.530 -0.0941  0.2729  0.2175
 2917CC1    CC1 2917   4.069   0.692   9.449 -0.0063  0.3662 -0.2470
 2918NCC    NCC 2918   4.135   0.874   9.307  0.0617 -0.1551 -0.3209
 2919CONH  CONH 2919   4.422   0.960   9.270  0.1004 -0.3082  0.0030
 2920CC1    CC1 2920   4.579   0.812   9.153 -0.1831 -0.2453 -0.4112
 2921CC1    CC1 2921   4.554   0.720   8.890 -0.1490 -0.0688 -0.1136
 2922CC1    CC1 2922   4.478   0.687   8.656  0.2477 -0.5391 -0.2976
 2923NCO    NCO 2923   4.402   1.020   8.637 -0.1575  0.1357  0.1874
 2924CONH  CONH 2924   4.138   0.893   8.968  0.3452 -0.1810 -0.5028
 2925CC1    CC1 2925   4.197   0.692   8.839 -0.2635  0.1570 -0.1232
 2926CC1    CC1 2926   4.118   0.532   8.728  0.4091 -0.1847 -0.7345
 2927CC1    CC1 2927   4.068   0.312   8.663  0.1435 -0.3838 -0.3668
 2928NCO    NCO 2928   3.834   0.150   8.751 -0.0249 -0.0074  0.0126
 2929NCO    NCO 2929   5.576   8.068   2.153  0.1015 -0.0869 -0.3210
 2930CC1    CC1 2930   5.411   8.041   1.889 -0.1644 -0.2331 -0.6082
 2931CC1    CC1 2931   5.218   8.057   1.981  0.3599 -0.0249  0.0894
 2932NCC    NCC 2932   5.079   8.008   2.196  0.3805  0.0625  0.0201
 2933CONH  CONH 2933   5.033   7.773   2.399  0.2773 -0.0574 -0.0879
 2934CC1    CC1 2934   4.822   7.560   2.358 -0.3553 -0.1210  0.1035
 2935CC1    CC1 2935   4.918   7.417   2.203  0.0301  0.3051  0.3041
 2936CC1    CC1 2936   4.994   7.218   2.116  0.1104 -0.2111  0.0279
 2937NCO    NCO 2937   4.766   7.167   1.928 -0.0041  0.0034  0.3314
 2938CONH  CONH 2938   4.821   8.163   2.308 -0.2360  0.1122 -0.0792
 2939CC1    CC1 2939   4.799   8.156   2.552 -0.5473  0.1488 -0.0928
 2940CC1    CC1 2940   4.980   8.239   2.653 -0.2642 -0.1809 -0.1569
 2941CC1    CC1 2941   5.214   8.308   2.756  0.2515 -0.0981 -0.0199
 2942NCO    NCO 2942   5.255   8.255   3.033  0.2214  0.2098 -0.3437
 2943NCO    NCO 2943   8.753   4.221   1.490 -0.0402  0.0987  0.4767
 2944CC1    CC1 2944   9.039   4.307   1.319  0.2064  0.3915  0.3323
 2945CC1    CC1 2945   9.151   4.430   1.449  0.2742 -0.1338 -0.3760
 2946NCC    NCC 2946   9.179   4.660   1.553 -0.1983  0.1626 -0.3488
 2947CONH  CONH 2947   9.155   4.950   1.479 -0.1127 -0.0858  0.0244
 2948CC1    CC1 2948   9.281   5.145   1.658  0.0703 -0.0902  0.2450
 2949CC1    CC1 2949   9.462   5.340   1.663 -0.4497 -0.5163  0.0113
 2950CC1    CC1 2950   9.682   5.474   1.774 -0.0659  0.4514  0.2776
 2951NCO    NCO 2951   9.603   5.735   1.923  0.2796  0.0487  0.2191
 2952CONH  CONH 2952   9.149   4.769   1.871  0.2220 -0.0456  0.2028
 2953CC1    CC1 2953   9.358   4.909   1.996  0.2840 -0.2211 -0.2630
 2954CC1    CC1 2954   9.427   4.879   2.226  0.2074 -0.4374 -0.3194
 2955CC1    CC1 2955   9.461   4.914   2.476 -0.6114  0.0956  0.2076
 2956NCO    NCO 2956   9.372   5.158   2.524 -0.4748 -0.1711  0.0336
 2957NCO    NCO 2957   4.830   0.445   9.125 -0.1520 -0.0595  0.0508
 2958CC1    CC1 2958   4.997   0.686   9.028  0.3366 -0.0536 -0.3928
 2959CC1    CC1 2959   4.853   0.868   8.915  0.0141 -0.2426  0.0993
 2960NCC    NCC 2960   4.758   1.103   8.884  0.4078  0.3225  0.4583
 2961CONH  CONH 2961   4.949   1.343   8.843 -0.4395  0.0140  0.2603
 2962CC1    CC1 2962   4.876   1.573   8.839 -0.3077  0.4221  0.3894
 2963CC1    CC1 2963   4.778   1.731   8.986 -0.3228 -0.0764  0.1696
 2964CC1    CC1 2964   4.628   1.866   9.051  0.5785  0.5625 -0.1404
 2965NCO    NCO 2965   4.460   1.722   9.287 -0.0909 -0.1678  0.2290
 2966CONH  CONH 2966   4.517   1.337   8.954 -0.3134  0.4696 -0.5997
 2967CC1    CC1 2967   4.507   1.589   8.826 -0.3091  0.0095 -0.0337
 2968CC1    CC1 2968   4.556   1.667   8.627  0.2601 -0.2474 -0.0577
 2969CC1    CC1 2969   4.679   1.810   8.498 -0.0433  0.1575  0.2835
 2970NCO    NCO 2970   4.806   1.966   8.656  0.1691 -0.1860 -0.0258
 2971NCO    NCO 2971   5.192   1.907   9.656  0.0066 -0.3128 -0.0670
 2972CC1    CC1 2972   5.412   1.754   9.524 -0.0105 -0.0935 -0.1536
 2973CC1    CC1 2973   5.335   1.530   9.538 -0.2657 -0.1679  0.3688
 2974NCC    NCC 2974   5.386   1.256   9.606  0.3224 -0.2719 -0.0562
 2975CONH  CONH 2975   5.472   0.987   9.454 -0.2453 -0.0044  0.0965
 2976CC1    CC1 2976   5.712   0.962   9.279 -0.3977  0.4878  0.0764
 2977CC1    CC1 2977   5.874   1.170   9.276 -0.1051  0.0743 -0.1799
 2978CC1    CC1 2978   5.989   1.331   9.406  0.1364 -0.1865  0.1015
 2979NCO    NCO 2979   5.785   1.529   9.620 -0.2461  0.0313  0.1326
 2980CONH  CONH 2980   5.249   1.080   9.826 -0.0154  0.2048 -0.1256
 2981CC1    CC1 2981   5.454   0.923  10.061  0.3280 -0.3519  0.5540
 2982CC1    CC1 2982   5.297   0.955  10.219 -0.1752  0.3831 -0.2334
 2983CC1    CC1 2983   5.088   0.934   0.013 -0.2254  0.2934 -0.0354
 2984NCO    NCO 2984   5.168   0.809   0.244 -0.3442 -0.1072  0.0795
 2985NCO    NCO 2985   1.809   9.439   8.826 -0.1458  0.1388 -0.0346
 2986CC1    CC1 2986   1.721   9.203   9.096 -0.0313 -0.0283  0.1966
 2987CC1    CC1 2987   1.838   9.006   9.063  0.1999 -0.2503 -0.2276
 2988NCC    NCC 2988   2.077   8.905   9.049  0.0253  0.0226  0.0045
 2989CONH  CONH 2989   2.346   8.876   9.201 -0.1178 -0.1939  0.1568
 2990CC1    CC1 2990   2.560   8.701   9.109  0.0713 -0.3627  0.1697
 2991CC1    CC1 2991   2.624   8.536   9.234  0.1620 -0.1846 -0.5169
 2992CC1    CC1 2992   2.785   8.400   9.335 -0.0151 -0.1099 -0.4059
 2993NCO    NCO 2993   3.081   8.431   9.387  0.1579 -0.2082 -0.4003
 2994CONH  CONH 2994   2.192   8.648   8.897  0.2877 -0.1084  0.2273
 2995CC1    CC1 2995   2.229   8.443   8.987  0.0273 -0.1544 -0.0522
 2996CC1    CC1 2996   2.155   8.228   8.877 -0.1845  0.1497 -0.2876
 2997CC1    CC1 2997   2.078   8.016   8.836  0.1168 -0.1299 -0.1649
 2998NCO    NCO 2998   1.778   7.949   8.752  0.2766 -0.3133  0.0667
 2999NCO    NCO 2999   9.650   2.052   4.537 -0.0521  0.1641 -0.0856
 3000CC1    CC1 3000   9.835   2.116   4.712  0.5178  0.4273 -0.0121
 3001CC1    CC1 3001  10.073   2.153   4.746  0.1233  0.0341  0.5627
 3002NCC    NCC 3002  10.323   2.064   4.721 -0.1267 -0.0702 -0.0186
 3003CONH  CONH 3003   0.137   1.759   4.738 -0.4845 -0.2848 -0.2246
 3004CC1    CC1 3004   0.002   1.532   4.648 -0.2736 -0.5646  0.0256
 3005CC1    CC1 3005  10.106   1.471   4.586  0.0474  0.3113  0.0446
 3006CC1    CC1 3006   9.934   1.295   4.586 -0.3512  0.1615  0.2593
 3007NCO    NCO 3007   9.818   1.182   4.801  0.1394  0.0834  0.1361
 3008CONH  CONH 3008   0.234   2.141   4.539 -0.0257 -0.2384  0.0158
 3009CC1    CC1 3009   0.241   2.006   4.310  0.3450 -0.1756  0.8617
 3010CC1    CC1 3010  10.329   2.063   4.159  0.0454 -0.2445 -0.0173
 3011CC1    CC1 3011  10.185   2.154   4.024 -0.1418  0.2042  0.0052
 3012NCO    NCO 3012   9.879   2.117   4.080  0.5210  0.1507  0.1388
 3013NCO    NCO 3013   8.650   9.181   1.712 -0.2896  0.0536  0.0187
 3014CC1    CC1 3014   8.908   9.117   1.815  0.2010 -0.2734 -0.3430
 3015CC1    CC1 3015   8.896   9.184   2.048 -0.1774 -0.0718 -0.2911
 3016NCC    NCC 3016   8.829   9.337   2.244 -0.0313 -0.0196 -0.5613
 3017CONH  CONH 3017   8.656   9.208   2.481  0.1177  0.2466  0.2034
 3018CC1    CC1 3018   8.645   9.323   2.694 -0.6289  0.2781 -0.2271
 3019CC1    CC1 3019   8.457   9.465   2.716 -0.1600 -0.3244 -0.5851
 3020CC1    CC1 3020   8.244   9.507   2.785  0.5000 -0.0709  0.0217
 3021NCO    NCO 3021   8.167   9.498   3.103  0.0310 -0.4012  0.1439
 3022CONH  CONH 3022   8.921   9.532   2.479 -0.1728 -0.1252  0.0019
 3023CC1    CC1 3023   8.914   9.777   2.465  0.0832  0.0176  0.2447
 3024CC1    CC1 3024   8.967   9.881   2.648 -0.0723  0.7883 -0.1905
 3025CC1    CC1 3025   9.149   9.933   2.821 -0.0047 -0.0965  0.0528
 3026NCO    NCO 3026   9.298   9.706   2.830 -0.2097  0.1288  0.1526
 3027NCO    NCO 3027   4.396  10.301   8.618  0.2838  0.0958  0.1365
 3028CC1    CC1 3028   4.475   0.228   8.532  0.5244  0.3183 -0.0354
 3029CC1    CC1 3029   4.375   0.422   8.406  0.1885 -0.1863 -0.2302
 3030NCC    NCC 3030   4.317   0.611   8.228  0.3241  0.3462 -0.2753
 3031CONH  CONH 3031   4.485   0.808   8.014  0.0148 -0.2340  0.4366
 3032CC1    CC1 3032   4.773   0.759   8.015  0.3109 -0.0193 -0.2356
 3033CC1    CC1 3033   4.876   0.764   7.776 -0.4413 -0.4921 -0.3472
 3034CC1    CC1 3034   4.886   0.846   7.557 -0.2682  0.3215 -0.4553
 3035NCO    NCO 3035   4.631   0.750   7.456  0.2088  0.2857 -0.6081
 3036CONH  CONH 3036   4.080   0.678   8.016  0.0674 -0.0776 -0.2645
 3037CC1    CC1 3037   4.089   0.572   7.764 -0.0764  0.4582 -0.0202
 3038CC1    CC1 3038   4.087   0.325   7.757 -0.2136 -0.4953 -0.0084
 3039CC1    CC1 3039   4.079   0.058   7.871 -0.1096 -0.0514  0.6279
 3040NCO    NCO 3040   4.081  10.238   7.655  0.0697 -0.0370  0.0241
 3041NCO    NCO 3041   3.223   7.964   8.814 -0.1709 -0.1994  0.1882
 3042CC1    CC1 3042   3.010   7.753   8.857 -0.0492  0.0347  0.1098
 3043CC1    CC1 3043   2.841   7.732   8.698 -0.3806  0.3857  0.0059
 3044NCC    NCC 3044   2.668   7.793   8.514 -0.0755 -0.0454  0.2302
 3045CONH  CONH 3045   2.377   7.862   8.445  0.4055  0.4623 -0.5829
 3046CC1    CC1 3046   2.228   8.083   8.544  0.4544  0.3072 -0.5767
 3047CC1    CC1 3047   2.198   8.286   8.455  0.3269 -0.0911  0.0572
 3048CC1    CC1 3048   2.238   8.497   8.368  0.3814 -0.3364 -0.6138
 3049NCO    NCO 3049   1.997   8.667   8.297 -0.1351 -0.2059 -0.0250
 3050CONH  CONH 3050   2.697   7.763   8.202 -0.3170 -0.4654  0.1329
 3051CC1    CC1 3051   2.701   7.500   8.120  0.2058  1.0784  0.1484
 3052CC1    CC1 3052   2.883   7.346   8.162 -0.1186 -0.2644  0.2538
 3053CC1    CC1 3053   3.065   7.274   8.256 -0.1761 -0.1533  0.0032
 3054NCO    NCO 3054   3.341   7.270   8.157  0.1275 -0.2729  0.0563
 3055NCO    NCO 3055   3.240   3.852   7.830  0.1840  0.6035  0.0624
 3056CC1    CC1 3056   3.460   3.939   7.947  0.4709  0.2668 -0.1520
 3057CC1    CC1 3057   3.642   3.788   7.903  0.3459  0.1830  0.2683
 3058NCC    NCC 3058   3.926   3.753   7.840 -0.0943  0.2377  0.0986
 3059CONH  CONH 3059   4.156   3.919   7.707 -0.2996 -0.0125  0.2769
 3060CC1    CC1 3060   4.107   4.110   7.469  0.0758  0.1118 -0.5899
 3061CC1    CC1 3061   4.244   4.173   7.265  0.0417  0.1291  0.0794
 3062CC1    CC1 3062   4.311   4.279   7.041  0.0480  0.2371 -0.2705
 3063NCO    NCO 3063   4.599   4.184   6.889  0.2271 -0.2060  0.0759
 3064CONH  CONH 3064   4.180   3.539   7.905 -0.0457 -0.0642 -0.2138
 3065CC1    CC1 3065   4.334   3.408   7.704 -0.0308 -0.1872 -0.4084
 3066CC1    CC1 3066   4.483   3.546   7.571 -0.0811 -0.3344  0.2949
 3067CC1    CC1 3067   4.580   3.690   7.372  0.3241  0.2381 -0.3393
 3068NCO    NCO 3068   4.763   3.903   7.426 -0.1279  0.4895 -0.0852
 3069NCO    NCO 3069   6.481   4.962   4.628 -0.4588  0.0406 -0.2577
 3070CC1    CC1 3070   6.565   5.175   4.839 -0.0908  0.2729 -0.0799
 3071CC1    CC1 3071   6.725   5.309   4.775 -0.0921  0.1962  0.2774
 3072NCC    NCC 3072   6.829   5.467   4.599 -0.3019  0.2904  0.0330
 3073CONH  CONH 3073   6.879   5.758   4.501  0.4736  0.0838  0.0237
 3074CC1    CC1 3074   7.044   5.831   4.321 -0.7682  0.2737 -0.3560
 3075CC1    CC1 3075   6.935   6.009   4.147 -0.1255 -0.3070 -0.5168
 3076CC1    CC1 3076   6.862   6.209   4.064 -0.1692  0.0484  0.0017
 3077NCO    NCO 3077   7.071   6.353   3.940  0.2922  0.0836  0.1419
 3078CONH  CONH 3078   7.091   5.404   4.415  0.1591  0.0457  0.4861
 3079CC1    CC1 3079   7.053   5.429   4.160 -0.6716 -0.3181  0.2261
 3080CC1    CC1 3080   6.962   5.603   4.029 -0.1144 -0.2992 -0.0441
 3081CC1    CC1 3081   6.783   5.772   3.983 -0.1965  0.2361  0.5203
 3082NCO    NCO 3082   6.762   5.831   3.717 -0.1458  0.0100  0.1028
 3083NCO    NCO 3083   5.706   0.994   8.837  0.0567 -0.2533 -0.4455
 3084CC1    CC1 3084   5.820   1.262   8.757  0.1070  0.5496 -0.2954
 3085CC1    CC1 3085   5.725   1.376   8.557 -0.4839  0.2235  0.1117
 3086NCC    NCC 3086   5.607   1.560   8.414  0.0324 -0.1924  0.0696
 3087CONH  CONH 3087   5.627   1.879   8.446 -0.1716 -0.0085 -0.4196
 3088CC1    CC1 3088   5.873   1.970   8.571  0.1900 -0.5369 -0.0286
 3089CC1    CC1 3089   5.939   2.188   8.627 -0.0959 -0.1770 -0.7853
 3090CC1    CC1 3090   6.008   2.355   8.793 -0.4392 -0.3446 -0.2880
 3091NCO    NCO 3091   5.911   2.623   8.816  0.3373 -0.2448  0.1717
 3092CONH  CONH 3092   5.348   1.640   8.247 -0.0019  0.1783  0.1364
 3093CC1    CC1 3093   5.107   1.645   8.337 -0.0445  0.0580 -0.2157
 3094CC1    CC1 3094   4.937   1.581   8.191  0.4067 -0.0144 -0.0000
 3095CC1    CC1 3095   4.790   1.485   8.025  0.2172 -0.0793  0.1132
 3096NCO    NCO 3096   4.676   1.202   7.951 -0.1137  0.2310  0.1240
 3097NCO    NCO 3097   3.262   1.060   3.739 -0.2027  0.0572  0.0796
 3098CC1    CC1 3098   3.330   0.819   3.621  0.1479  0.0177 -0.2148
 3099CC1    CC1 3099   3.458   0.664   3.767  0.0542  0.2958 -0.8921
 3100NCC    NCC 3100   3.532   0.429   3.850  0.2249  0.2283  0.1402
 3101CONH  CONH 3101   3.734   0.277   4.034  0.2933 -0.3966  0.2259
 3102CC1    CC1 3102   3.852   0.420   4.236  0.8503  0.1511 -0.0636
 3103CC1    CC1 3103   4.006   0.541   4.274  0.0457  0.1906  0.0230
 3104CC1    CC1 3104   4.100   0.728   4.279 -0.0755 -0.6358 -0.3385
 3105NCO    NCO 3105   4.359   0.726   4.239 -0.2710 -0.1306  0.0107
 3106CONH  CONH 3106   3.544   0.177   3.681  0.0402  0.0400  0.1294
 3107CC1    CC1 3107   3.797   0.014   3.702  0.1010  0.0308  0.4703
 3108CC1    CC1 3108   4.007   0.128   3.719 -0.1719 -0.2019 -0.0630
 3109CC1    CC1 3109   4.114   0.327   3.709 -0.3440  0.0962 -0.6408
 3110NCO    NCO 3110   4.227   0.389   3.446  0.2859  0.5719  0.2783
 3111NCO    NCO 3111   8.635   7.012   5.459 -0.3244  0.3390  0.1049
 3112CC1    CC1 3112   8.925   6.877   5.456 -0.5324  0.0267 -0.1778
 3113CC1    CC1 3113   9.137   6.971   5.526  0.2398  0.5030 -0.2451
 3114NCC    NCC 3114   9.382   7.043   5.635  0.1286 -0.0626 -0.1074
 3115CONH  CONH 3115   9.676   6.927   5.696 -0.1057 -0.1824  0.2113
 3116CC1    CC1 3116   9.954   7.069   5.643 -0.1016  0.0049  0.1333
 3117CC1    CC1 3117   9.984   7.179   5.460 -0.4035  0.3861  0.1902
 3118CC1    CC1 3118  10.102   7.276   5.283  0.0973 -0.2508  0.2131
 3119NCO    NCO 3119  10.021   7.431   5.087 -0.1189 -0.2370  0.4325
 3120CONH  CONH 3120   9.582   7.305   5.591  0.4060  0.2137  0.4118
 3121CC1    CC1 3121   9.751   7.389   5.815  0.2420 -0.0866  0.1878
 3122CC1    CC1 3122   9.805   7.633   5.844 -0.5022 -0.2621 -0.1181
 3123CC1    CC1 3123   9.807   7.857   5.839 -0.5741 -0.1406  0.0126
 3124NCO    NCO 3124   9.957   7.941   5.578  0.2617 -0.2839  0.1459
 3125NCO    NCO 3125   0.584   6.477   1.880 -0.0697 -0.3707 -0.2063
 3126CC1    CC1 3126   0.349   6.590   2.004  0.1336 -0.1416 -0.4405
 3127CC1    CC1 3127   0.186   6.406   2.079  0.3506  0.0669  0.0477
 3128NCC    NCC 3128   0.045   6.286   2.290 -0.3814 -0.0319  0.1321
 3129CONH  CONH 3129   0.020   6.040   2.509 -0.4539 -0.2294  0.1912
 3130CC1    CC1 3130   0.159   5.812   2.455  0.1532  0.5338  0.1566
 3131CC1    CC1 3131   0.097   5.617   2.586  0.0977  0.2455  0.2081
 3132CC1    CC1 3132   0.117   5.433   2.750 -0.0855  0.0410 -0.1711
 3133NCO    NCO 3133  10.185   5.314   2.703 -0.0079 -0.2215  0.0091
 3134CONH  CONH 3134  10.060   6.238   2.327 -0.3209 -0.1106  0.1194
 3135CC1    CC1 3135   9.914   6.136   2.116 -0.4957  0.0073 -0.1899
 3136CC1    CC1 3136   9.981   6.188   1.882 -0.2596 -0.1736 -0.2729
 3137CC1    CC1 3137  10.076   6.250   1.638  0.2008  0.0471  0.2198
 3138NCO    NCO 3138  10.048   6.463   1.514 -0.2406 -0.0083 -0.2481
 3139NCO    NCO 3139   5.219   0.595   7.886  0.0007  0.1046 -0.1572
 3140CC1    CC1 3140   5.216   0.843   7.846  0.3602 -0.1329  0.2926
 3141CC1    CC1 3141   5.091   0.996   7.958  0.1285  0.1548  0.0793
 3142NCC    NCC 3142   5.054   1.165   8.151  0.0362 -0.2918 -0.0911
 3143CONH  CONH 3143   5.260   1.267   8.428 -0.1615  0.1241  0.1312
 3144CC1    CC1 3144   5.464   1.127   8.483  0.1614 -0.1366  0.3313
 3145CC1    CC1 3145   5.689   1.117   8.368 -0.6629  0.2743  0.1670
 3146CC1    CC1 3146   5.922   1.200   8.329  0.0156  0.2730 -0.1016
 3147NCO    NCO 3147   6.017   1.040   8.112 -0.4123  0.0457 -0.0773
 3148CONH  CONH 3148   4.830   1.212   8.369  0.4168 -0.4788 -0.1172
 3149CC1    CC1 3149   4.642   1.384   8.329  0.4881 -0.3223  0.4334
 3150CC1    CC1 3150   4.375   1.340   8.307  0.3101 -0.0830 -0.3230
 3151CC1    CC1 3151   4.184   1.211   8.363 -0.3784 -0.3001 -0.6574
 3152NCO    NCO 3152   4.048   0.967   8.401 -0.0030 -0.1027 -0.1901
 3153NCO    NCO 3153  10.219   4.278   2.001 -0.0764  0.0466  0.0391
 3154CC1    CC1 3154  10.046   4.529   2.114 -0.1863 -0.2187  0.1619
 3155CC1    CC1 3155   9.893   4.534   1.934  0.0138  0.2763  0.0723
 3156NCC    NCC 3156   9.828   4.627   1.672 -0.0914 -0.0444 -0.5168
 3157CONH  CONH 3157  10.013   4.877   1.545  0.2078 -0.0010 -0.1734
 3158CC1    CC1 3158   9.955   5.138   1.615  0.1292 -0.6678 -0.3301
 3159CC1    CC1 3159  10.006   5.307   1.794 -0.4693 -0.0880 -0.0957
 3160CC1    CC1 3160  10.097   5.484   1.849  0.2901 -0.0336  0.1895
 3161NCO    NCO 3161  10.072   5.767   1.660 -0.2377  0.0643 -0.5750
 3162CONH  CONH 3162   9.584   4.806   1.565  0.0571 -0.4567 -0.0187
 3163CC1    CC1 3163   9.606   5.052   1.463  0.1468  0.3852  0.1451
 3164CC1    CC1 3164   9.767   5.123   1.305  0.1511 -0.3968 -0.0332
 3165CC1    CC1 3165   9.957   5.058   1.115  0.3113 -0.0039 -0.2873
 3166NCO    NCO 3166   9.794   4.780   1.139 -0.0182  0.3165  0.3486
 3167NCO    NCO 3167   0.768   5.521   1.580 -0.0950  0.2764 -0.0530
 3168CC1    CC1 3168   0.987   5.391   1.717  0.2522 -0.0263  0.2024
 3169CC1    CC1 3169   0.977   5.465   1.929  0.4372  0.4832 -0.1842
 3170NCC    NCC 3170   0.944   5.600   2.183 -0.1080  0.0967  0.0354
 3171CONH  CONH 3171   0.886   5.548   2.489 -0.2102 -0.0419  0.0450
 3172CC1    CC1 3172   1.090   5.474   2.646 -0.0534 -0.4078 -0.2442
 3173CC1    CC1 3173   1.192   5.348   2.725  0.1480  0.2780  0.0675
 3174CC1    CC1 3174   1.264   5.142   2.725  0.0491 -0.0948 -0.5661
 3175NCO    NCO 3175   1.151   4.941   2.863 -0.0871 -0.3909  0.1294
 3176CONH  CONH 3176   0.948   5.913   2.272 -0.5091  0.2886 -0.2026
 3177CC1    CC1 3177   1.174   5.996   2.468 -0.0877 -0.0142  0.1484
 3178CC1    CC1 3178   1.404   5.925   2.401 -0.2303  0.5083 -0.1007
 3179CC1    CC1 3179   1.607   5.893   2.255 -0.4672  0.1207 -0.1260
 3180NCO    NCO 3180   1.733   6.114   2.119 -0.1544  0.1306  0.0833
 3181NCO    NCO 3181   4.659   0.606  10.223  0.3445 -0.0573  0.1586
 3182CC1    CC1 3182   4.595   0.336  10.085 -0.0221  0.1759  0.4665
 3183CC1    CC1 3183   4.472   0.338   9.889 -0.1756 -0.1709  0.2871
 3184NCC    NCC 3184   4.406   0.294   9.627  0.2159  0.0151 -0.1956
 3185CONH  CONH 3185   4.491   0.090   9.383  0.2839 -0.0976 -0.0830
 3186CC1    CC1 3186   4.429   0.124   9.119 -0.0734  0.1451 -0.4100
 3187CC1    CC1 3187   4.509  10.280   8.994  0.2216  0.4063  0.1759
 3188CC1    CC1 3188   4.532  10.060   8.946 -0.1361  0.7595 -0.2496
 3189NCO    NCO 3189   4.659   9.964   8.748 -0.1726 -0.0355 -0.0531
 3190CONH  CONH 3190   4.406   0.522   9.400 -0.2896  0.3420  0.0326
 3191CC1    CC1 3191   4.252   0.507   9.158 -0.1470  0.2831  0.1885
 3192CC1    CC1 3192   4.134   0.289   9.114  0.0717  0.0845  0.0127
 3193CC1    CC1 3193   3.945   0.083   9.149 -0.0254 -0.4016 -0.3616
 3194NCO    NCO 3194   3.989   0.042   9.444 -0.2685  0.2651  0.1185
 3195NCO    NCO 3195   6.419   1.100   8.884 -0.2326  0.2419  0.0096
 3196CC1    CC1 3196   6.173   1.175   8.926  0.2813 -0.0489 -0.0257
 3197CC1    CC1 3197   6.154   1.373   9.022 -0.0661 -0.3643  0.1106
 3198NCC    NCC 3198   6.173   1.615   9.179 -0.0532  0.2231 -0.3623
 3199CONH  CONH 3199   6.420   1.825   9.226 -0.1640  0.4802  0.1619
 3200CC1    CC1 3200   6.360   2.061   9.352 -0.1860 -0.0357  0.1673
 3201CC1    CC1 3201   6.241   2.259   9.262 -0.1925 -0.0959  0.5927
 3202CC1    CC1 3202   6.080   2.350   9.141 -0.5252 -0.7905 -0.4339
 3203NCO    NCO 3203   5.791   2.446   9.219 -0.3054 -0.3488  0.2172
 3204CONH  CONH 3204   5.996   1.826   9.327 -0.3382  0.0103  0.4749
 3205CC1    CC1 3205   5.704   1.776   9.273 -0.2964 -0.0514  0.5900
 3206CC1    CC1 3206   5.614   1.579   9.165  0.1159 -0.0178  0.3357
 3207CC1    CC1 3207   5.623   1.385   9.050 -0.2259  0.1270  0.2957
 3208NCO    NCO 3208   5.420   1.306   8.910  0.4223  0.2110  0.3200
 3209NCO    NCO 3209   3.593   7.053   8.472  0.2536 -0.1748 -0.0193
 3210CC1    CC1 3210   3.656   7.173   8.732 -0.0207  0.3380 -0.0511
 3211CC1    CC1 3211   3.561   7.384   8.868  0.2223 -0.2245 -0.0420
 3212NCC    NCC 3212   3.326   7.546   9.010 -0.0554 -0.4755  0.2062
 3213CONH  CONH 3213   3.038   7.471   9.129 -0.1012  0.1539 -0.7270
 3214CC1    CC1 3214   2.825   7.321   8.994  0.1115 -0.2775 -0.1745
 3215CC1    CC1 3215   2.718   7.358   8.819  0.2522  0.3202 -0.3144
 3216CC1    CC1 3216   2.677   7.397   8.586  0.1351  0.3619  0.2329
 3217NCO    NCO 3217   2.415   7.429   8.468 -0.2907  0.1743  0.2959
 3218CONH  CONH 3218   3.322   7.782   9.253  0.0691 -0.4283 -0.2038
 3219CC1    CC1 3219   3.196   8.046   9.239  0.3626  0.0635 -0.5255
 3220CC1    CC1 3220   3.263   8.246   9.071  0.0746  0.0885  0.0329
 3221CC1    CC1 3221   3.305   8.384   8.848  0.2992  0.0800 -0.2450
 3222NCO    NCO 3222   3.117   8.375   8.634 -0.2308 -0.0665  0.0007
 3223NCO    NCO 3223   6.992   1.218   3.519  0.3767  0.2565 -0.0259
 3224CC1    CC1 3224   6.946   1.491   3.376 -0.0460 -0.5069 -0.4038
 3225CC1    CC1 3225   6.800   1.536   3.212  0.2364  0.6202  0.5203
 3226NCC    NCC 3226   6.596   1.610   3.070  0.3618 -0.1928  0.0545
 3227CONH  CONH 3227   6.382   1.456   2.890  0.2029 -0.1570  0.0936
 3228CC1    CC1 3228   6.451   1.240   2.756  0.2452 -0.0258 -0.5885
 3229CC1    CC1 3229   6.538   1.074   2.704 -0.0834  0.1435  0.1785
 3230CC1    CC1 3230   6.675   0.879   2.626 -0.3287  0.1056  0.1274
 3231NCO    NCO 3231   6.946   0.936   2.757 -0.0194  0.2601  0.1051
 3232CONH  CONH 3232   6.421   1.844   2.983  0.2631  0.0465  0.4664
 3233CC1    CC1 3233   6.423   1.983   2.722 -0.0901 -0.1991  0.0200
 3234CC1    CC1 3234   6.458   1.960   2.460  0.1955  0.0670 -0.5582
 3235CC1    CC1 3235   6.554   2.005   2.262  0.5630  0.2867  0.0855
 3236NCO    NCO 3236   6.750   2.111   2.176 -0.0110 -0.6304 -0.5436
 3237NCO    NCO 3237   9.024   9.165   0.644  0.3710  0.1149  0.4731
 3238CC1    CC1 3238   8.925   9.432   0.731 -0.4413  0.2542 -0.2800
 3239CC1    CC1 3239   8.956   9.630   0.599  0.0496  0.5808 -0.6894
 3240NCC    NCC 3240   9.099   9.859   0.534 -0.2067 -0.6450 -0.4744
 3241CONH  CONH 3241   9.037  10.114   0.324  0.0054  0.1819 -0.2536
 3242CC1    CC1 3242   9.100   0.058   0.395  0.1921  0.1407  0.4186
 3243CC1    CC1 3243   8.991   0.159   0.556 -0.0939 -0.1161 -0.2536
 3244CC1    CC1 3244   8.908   0.209   0.775  0.0766  0.0410 -0.2387
 3245NCO    NCO 3245   9.045   0.103   1.019 -0.2121  0.0208  0.2735
 3246CONH  CONH 3246   9.411   9.917   0.536 -0.5023  0.1125  0.0158
 3247CC1    CC1 3247   9.550   9.985   0.306  0.0592 -0.2644 -0.2850
 3248CC1    CC1 3248   9.547  10.087   0.096  0.0696  0.5009 -0.2083
 3249CC1    CC1 3249   9.535  10.239  10.267  0.2650 -0.0472 -0.2272
 3250NCO    NCO 3250   9.191  10.273  10.180  0.1653  0.2791  0.1142
 3251NCO    NCO 3251   9.422   5.921   6.496 -0.3113 -0.0465 -0.0778
 3252CC1    CC1 3252   9.541   5.598   6.497 -0.0744 -0.1298 -0.0592
 3253CC1    CC1 3253   9.500   5.556   6.722  0.1685  0.0495  0.0774
 3254NCC    NCC 3254   9.539   5.698   6.918 -0.2716  0.0259 -0.0927
 3255CONH  CONH 3255   9.427   5.965   6.976 -0.2428 -0.0048 -0.1371
 3256CC1    CC1 3256   9.580   6.150   6.912  0.0929 -0.8278 -0.2246
 3257CC1    CC1 3257   9.775   6.095   6.729 -0.4610  0.2385 -0.2591
 3258CC1    CC1 3258   9.843   6.012   6.526 -0.4097  0.4837  0.0160
 3259NCO    NCO 3259   9.714   6.194   6.358  0.2127 -0.0274 -0.1344
 3260CONH  CONH 3260   9.796   5.785   7.071 -0.2044 -0.3427 -0.1134
 3261CC1    CC1 3261   9.817   6.049   7.172 -0.1066 -0.4428 -0.2713
 3262CC1    CC1 3262   9.958   6.243   7.011  0.0388  0.0818 -0.4799
 3263CC1    CC1 3263  10.067   6.398   6.847  0.0801  0.1770 -0.0879
 3264NCO    NCO 3264  10.220   6.275   6.679  0.1320  0.3236  0.2401
 3265NCO    NCO 3265   0.044   4.809   2.751  0.3897  0.0287 -0.1321
 3266CC1    CC1 3266  10.299   4.923   2.495 -0.0022  0.4924  0.1804
 3267CC1    CC1 3267   0.097   4.873   2.278 -0.6017  0.1368  0.1477
 3268NCC    NCC 3268   0.304   4.959   2.049  0.3110 -0.5923  0.0583
 3269CONH  CONH 3269   0.228   5.155   1.820 -0.0007 -0.1459  0.2117
 3270CC1    CC1 3270   0.012   5.203   1.722  0.3521  0.0102 -0.4439
 3271CC1    CC1 3271  10.326   5.337   1.493 -0.1522 -0.0561  0.3373
 3272CC1    CC1 3272  10.232   5.473   1.304  0.4166  0.6791 -0.0340
 3273NCO    NCO 3273   9.975   5.512   1.349 -0.0961  0.0377 -0.2936
 3274CONH  CONH 3274   0.512   4.829   1.854  0.1614  0.1365 -0.4232
 3275CC1    CC1 3275   0.736   4.877   1.871 -0.6408 -0.2115  0.3466
 3276CC1    CC1 3276   0.883   4.976   1.755  0.2379  0.4184 -0.2306
 3277CC1    CC1 3277   0.982   5.092   1.584 -0.1915 -0.2145  0.2554
 3278NCO    NCO 3278   0.974   4.939   1.367 -0.2312  0.4729  0.1192
 3279NCO    NCO 3279  10.111   3.444   8.092 -0.2677 -0.0313 -0.0767
 3280CC1    CC1 3280  10.241   3.723   8.180 -0.2440 -0.1406 -0.3800
 3281CC1    CC1 3281  10.103   3.862   8.301  0.1746  0.5837  0.1495
 3282NCC    NCC 3282   9.981   3.944   8.522 -0.1008  0.1123 -0.0465
 3283CONH  CONH 3283   9.664   3.965   8.654  0.0347 -0.2525  0.0345
 3284CC1    CC1 3284   9.601   4.201   8.803 -0.2015  0.2749  0.1173
 3285CC1    CC1 3285   9.711   4.415   8.702  0.0371  0.0985 -0.3992
 3286CC1    CC1 3286   9.749   4.636   8.732  0.4414  0.0136 -0.1704
 3287NCO    NCO 3287   9.547   4.838   8.733  0.3507  0.3153  0.1646
 3288CONH  CONH 3288  10.057   4.043   8.816  0.1061  0.2358  0.2195
 3289CC1    CC1 3289  10.055   4.335   8.871 -0.1974 -0.2088  0.1718
 3290CC1    CC1 3290  10.059   4.493   9.084 -0.0495  0.0589 -0.0063
 3291CC1    CC1 3291  10.127   4.602   9.305  0.4646 -0.1153 -0.1455
 3292NCO    NCO 3292   9.899   4.661   9.467 -0.0116  0.0098 -0.1361
 3293NCO    NCO 3293   4.980   8.417   0.486  0.0010 -0.0680  0.2437
 3294CC1    CC1 3294   5.092   8.384   0.750 -0.4866  0.3242 -0.3832
 3295CC1    CC1 3295   4.927   8.486   0.899  0.3131  0.0561 -0.3399
 3296NCC    NCC 3296   4.835   8.696   1.015  0.2747  0.0641 -0.2740
 3297CONH  CONH 3297   4.939   8.975   1.106  0.0646  0.0101  0.6279
 3298CC1    CC1 3298   4.745   9.159   1.174 -0.3231  0.3151 -0.2682
 3299CC1    CC1 3299   4.808   9.369   1.214 -0.3740  0.3756 -0.2219
 3300CC1    CC1 3300   4.833   9.575   1.278 -0.1065  0.3525  0.4392
 3301NCO    NCO 3301   4.693   9.523   1.555 -0.2610  0.1420 -0.0082
 3302CONH  CONH 3302   4.549   8.831   1.029  0.1262 -0.0357 -0.1936
 3303CC1    CC1 3303   4.374   8.719   1.201  0.0623  0.5461  0.1610
 3304CC1    CC1 3304   4.406   8.790   1.401  0.0164 -0.0986 -0.0990
 3305CC1    CC1 3305   4.482   8.795   1.625 -0.2413 -0.3843 -0.2729
 3306NCO    NCO 3306   4.471   8.584   1.753  0.0617 -0.1052  0.4425
 3307NCO    NCO 3307   6.930   4.591   4.942  0.0869  0.2020  0.0930
 3308CC1    CC1 3308   6.713   4.666   4.792  0.5082 -0.0420 -0.1432
 3309CC1    CC1 3309   6.722   4.655   4.552  0.4487 -0.2551  0.3751
 3310NCC    NCC 3310   6.617   4.553   4.312 -0.2622  0.0141  0.4624
 3311CONH  CONH 3311   6.662   4.270   4.196 -0.0814 -0.3331 -0.2176
 3312CC1    CC1 3312   6.478   4.058   4.194  0.2641 -0.6367  0.0131
 3313CC1    CC1 3313   6.355   3.918   4.384  0.2104  0.4169 -0.1499
 3314CC1    CC1 3314   6.220   3.819   4.530 -0.3249 -0.0912 -0.2039
 3315NCO    NCO 3315   6.216   3.441   4.603  0.0340  0.0023 -0.1158
 3316CONH  CONH 3316   6.648   4.664   4.002  0.3588  0.1787 -0.1143
 3317CC1    CC1 3317   6.408   4.803   3.883  0.0747 -0.4092 -0.0683
 3318CC1    CC1 3318   6.375   4.981   4.023 -0.1693  0.2880  0.1391
 3319CC1    CC1 3319   6.253   5.137   4.186  0.1797 -0.0122  0.1753
 3320NCO    NCO 3320   6.119   5.358   4.076 -0.0208  0.0889 -0.0373
 3321W        W 3321   2.148   9.075   0.636  0.0334  0.0954 -0.0260
 3322W        W 3322   0.198   0.719   6.318 -0.0873  0.1735 -0.1505
 3323W        W 3323   8.734   7.080   4.613  0.2491  0.1385  0.1651
 3324W        W 3324   3.961   3.572   3.982  0.0255  0.0008  0.0491
 3325W        W 3325   5.867   4.583   8.554 -0.2418 -0.1332 -0.4179
 3326W        W 3326   9.428   4.781   0.459  0.4141 -0.1418  0.0309
 3327W        W 3327   4.805   8.923   7.916 -0.0969  0.0799 -0.0015
 3328W        W 3328   7.846   1.094   3.964 -0.3113 -0.1435 -0.2410
 3329W        W 3329   1.308   4.137   5.165 -0.0349  0.0835  0.2515
 3330W        W 3330   4.337   9.499   3.989  0.0287 -0.1483 -0.0895
 3331W        W 3331   8.470   3.699   6.875 -0.1198 -0.1391  0.1164
 3332W        W 3332   3.000   8.028   0.777  0.2753 -0.2506 -0.1080
 3333W        W 3333   2.636   7.950   5.343  0.0575  0.2333 -0.0447
 3334W        W 3334   5.006   0.791   0.973  0.1192 -0.2925 -0.0783
 3335W        W 3335   6.305   7.222   4.728 -0.2561  0.3359  0.0723
 3336W        W 3336   4.336   6.000   7.292  0.0570  0.2314  0.0249
 3337W        W 3337   0.379   0.204   0.655 -0.1112  0.2263  0.0142
 3338W        W 3338   8.675   7.780   0.798  0.1084 -0.1039  0.1316
 3339W        W 3339   4.991   6.599   7.472 -0.2141 -0.0640  0.0673
 3340W        W 3340   9.063   6.795   9.638  0.0155 -0.1384  0.2293
 3341W        W 3341   7.824   9.285   2.935  0.0147  0.0964 -0.2437
 3342W        W 3342   2.190   9.109   6.033 -0.1043 -0.1338 -0.1505
 3343W        W 3343   5.549   3.326   6.257 -0.1486  0.0842  0.1202
 3344W        W 3344   1.380   6.509   4.008  0.0828 -0.0233 -0.1278
 3345W        W 3345   5.551   4.929   6.613 -0.0196  0.0408 -0.2798
 3346W        W 3346   0.831   7.377   9.412  0.3672  0.2589  0.0571
 3347W        W 3347   0.080   4.180   9.935 -0.4405  0.1578 -0.0043
 3348W        W 3348   3.755   1.857   3.746 -0.2983  0.0244  0.1629
 3349W        W 3349   5.950   6.200   4.868  0.1148  0.1913 -0.0007
 3350W        W 3350  10.311   1.983  10.107 -0.1144  0.1062  0.1022
 3351W        W 3351   1.844   0.685   8.955 -0.3228  0.0811  0.3274
 3352W        W 3352   7.485   8.990   1.943  0.1420 -0.0440  0.2188
 3353W        W 3353   2.545   7.790   1.043 -0.1953 -0.0439  0.0489
 3354W        W 3354  10.026   8.636   6.032 -0.0117 -0.0595 -0.1977
 3355W        W 3355   2.353   0.249   6.774  0.3364  0.1902 -0.1439
 3356W        W 3356   7.649   6.256   2.303 -0.2461  0.3742  0.1134
 3357W        W 3357   7.470   5.221   8.103  0.0251  0.2269 -0.2516
 3358W        W 3358   5.561   8.785   6.530  0.0765 -0.0112 -0.2363
 3359W        W 3359   0.627   6.323   0.232  0.0755  0.2409 -0.4296
 3360W        W 3360   3.796   1.658   9.232  0.0089 -0.3163 -0.0224
 3361W        W 3361   0.003   9.403   5.969  0.0263  0.0238  0.0675
 3362W        W 3362   5.490   9.686   0.770 -0.2114 -0.0166 -0.3361
 3363W        W 3363   2.051   2.819   8.731  0.0446  0.1152  0.4287
 3364W        W 3364   4.460   7.015   8.702  0.4532  0.0698  0.0692
 3365W        W 3365   8.944   9.532   7.997 -0.0108  0.0260  0.1041
 3366W        W 3366   4.944   7.510   4.956  0.0915  0.0741  0.2454
 3367W        W 3367   5.968   5.890   8.254 -0.0886 -0.0654  0.0464
 3368W        W 3368   2.504   3.716   2.886  0.1222  0.1155 -0.1049
 3369W        W 3369   1.017   1.654   4.775 -0.0575  0.0226  0.0978
 3370W        W 3370   4.432   2.357   5.493  0.0665  0.0548 -0.1654
 3371W        W 3371   8.694   0.123  10.031 -0.0474 -0.1900 -0.0264
 3372W        W 3372   9.149   5.348  10.120 -0.1517 -0.0216  0.1554
 3373W        W 3373   2.646   8.917   0.625  0.2052  0.2416  0.0063
 3374W        W 3374   2.454  10.123   1.723 -0.0267 -0.0249 -0.1163
 3375W        W 3375   1.208   3.881   0.943 -0.5288  0.1604  0.2174
 3376W        W 3376   4.567   9.501  10.222  0.0103 -0.3832  0.3096
 3377W        W 3377   6.339   4.651   5.000  0.2010  0.0009 -0.1671
 3378W        W 3378   6.206   4.311  10.226 -0.3203 -0.1189  0.0159
 3379W        W 3379   0.626   0.789   6.010  0.0250 -0.0793 -0.0327
 3380W        W 3380   2.689   4.945   1.539  0.2986  0.2520  0.3620
 3381W        W 3381   3.977   8.054   2.422  0.0784 -0.0852 -0.2500
 3382W        W 3382  10.326   8.063   1.907 -0.0874  0.1332  0.1489
 3383W        W 3383   8.314   0.351   3.571  0.1573  0.1312  0.0429
 3384W        W 3384   8.808   7.283   6.701  0.0669  0.1600 -0.3284
 3385W        W 3385   7.891   0.740   4.873  0.2365  0.0030  0.3529
 3386W        W 3386   2.042   2.974   6.391 -0.1327 -0.0313  0.0905
 3387W        W 3387   2.116   6.852   3.496  0.1624 -0.3692 -0.0644
 3388W        W 3388   2.379   5.353   1.638  0.1032  0.2105 -0.0600
 3389W        W 3389   2.345   8.703   0.316 -0.0344  0.1941 -0.2649
 3390W        W 3390   7.001   9.662   0.347 -0.0863 -0.0633 -0.0639
 3391W        W 3391   1.666   1.501   1.491  0.1355  0.2097  0.0801
 3392W        W 3392   9.175   3.998   4.295 -0.0595 -0.0408  0.0425
 3393W        W 3393   6.101   9.225   1.731 -0.2309 -0.4600  0.2540
 3394W        W 3394   2.172   7.926   3.795  0.0311 -0.0887 -0.0521
 3395W        W 3395   0.604   3.700   7.742  0.3342  0.1863  0.2890
 3396W        W 3396   7.963   5.240   5.474  0.1388 -0.1885 -0.1504
 3397W        W 3397   6.023   3.768   7.470  0.1159  0.3582  0.0862
 3398W        W 3398   6.500   4.131   1.934 -0.0131 -0.2421 -0.0304
 3399W        W 3399   6.261   6.308   2.987 -0.1766 -0.1217 -0.0532
 3400W        W 3400   7.747   5.378   6.896  0.4241 -0.1063 -0.2289
 3401W        W 3401   7.618   5.105   2.597 -0.1438 -0.0568  0.0047
 3402W        W 3402   3.032   7.078   3.270  0.2036 -0.0849 -0.0353
 3403W        W 3403   4.336   3.313   1.036 -0.0664  0.3335  0.2527
 3404W        W 3404   5.301   2.970   8.090  0.0582  0.1598 -0.0562
 3405W        W 3405   4.232  10.085   6.833 -0.0564 -0.0262  0.1279
 3406W        W 3406   3.994   4.939   6.784  0.1229  0.1869  0.1904
 3407W        W 3407   0.228   6.940   2.766  0.0228 -0.2753  0.1276
 3408W        W 3408   4.755   8.472   7.589  0.1449  0.2097  0.4726
 3409W        W 3409   2.134   2.635   0.462  0.2868  0.0248 -0.0814
 3410W        W 3410   9.486   1.675   6.525  0.0975  0.2476  0.2229
 3411W        W 3411   7.951   6.220   0.824  0.2204 -0.0055 -0.2094
 3412W        W 3412   4.902   6.992   6.299  0.0797 -0.0078  0.2566
 3413W        W 3413   4.519  10.109   6.167 -0.0382 -0.2662  0.0003
 3414W        W 3414   7.375   0.982   9.043 -0.0672  0.1054 -0.0637
 3415W        W 3415   2.701   4.672   3.091  0.0926  0.2515  0.3335
 3416W        W 3416   3.673   1.066  10.135  0.0190  0.1467  0.0677
 3417W        W 3417   2.720   8.796   2.388  0.0135  0.0357  0.1716
 3418W        W 3418   5.164   3.200   0.485 -0.0509 -0.1911 -0.1975
 3419W        W 3419   8.345   1.250   7.151 -0.0751 -0.2456  0.3327
 3420W        W 3420   1.001   2.452  10.074 -0.0880 -0.0683 -0.1213
 3421W        W 3421   5.004   2.276   5.476 -0.0177 -0.0644  0.3453
 3422W        W 3422   8.310   6.988   0.626 -0.0241  0.1916  0.3159
 3423W        W 3423   7.982   1.505   1.452 -0.0843 -0.1515 -0.1232
 3424W        W 3424   5.853   9.945   8.010  0.0592 -0.1852 -0.0372
 3425W        W 3425   1.770   8.569   1.078 -0.1228  0.3949 -0.0401
 3426W        W 3426   0.173   1.689   7.313  0.0128  0.2189  0.1848
 3427W        W 3427   3.084   9.426   1.569  0.1420  0.3284  0.1395
 3428W        W 3428   4.423   6.450   8.117 -0.4697 -0.0317 -0.0642
 3429W        W 3429   7.780   6.115   3.922 -0.2601  0.3629  0.1657
 3430W        W 3430   7.572   8.632   1.551 -0.0157 -0.2063  0.1556
 3431W        W 3431   7.183   1.549   2.564 -0.1056 -0.0701  0.0803
 3432W        W 3432   9.976   0.100  10.255 -0.2832  0.3014  0.1989
 3433W        W 3433   6.466   8.106   0.530 -0.0354 -0.3276  0.3791
 3434W        W 3434   7.811   9.539   2.496 -0.0116 -0.1285 -0.1767
 3435W        W 3435   9.370   3.096   6.547  0.1950 -0.2577  0.1980
 3436W        W 3436   3.025   0.341   5.183 -0.0876  0.0920  0.2644
 3437W        W 3437   3.417   0.372   8.659  0.2301  0.1694 -0.1955
 3438W        W 3438   2.526   9.220   7.778 -0.1270  0.0603  0.0938
 3439W        W 3439   8.229   9.469   6.770  0.0632 -0.2024  0.3028
 3440W        W 3440   2.080   1.048   0.337 -0.1766 -0.0861 -0.0195
 3441W        W 3441   2.652   9.002   8.848  0.1247 -0.0000 -0.1077
 3442W        W 3442   9.578   1.752   1.025  0.3236  0.0733  0.0319
 3443W        W 3443   9.400   2.137   7.770 -0.2527  0.1330  0.0314
 3444W        W 3444   4.414  10.096   7.982  0.0172  0.1052 -0.0949
 3445W        W 3445   0.341   5.605   1.331  0.0722  0.0068 -0.0297
 3446W        W 3446   6.811   1.043   0.638  0.0602 -0.1462  0.3173
 3447W        W 3447   6.771   7.456   7.246 -0.1223 -0.1936  0.4212
 3448W        W 3448   1.820   2.493   9.388  0.2002  0.0338 -0.1001
 3449W        W 3449   0.205   0.644   0.585  0.0558 -0.1269  0.1361
 3450W        W 3450   2.076   5.282   2.526  0.0744  0.0678 -0.1461
 3451W        W 3451   5.646   5.510   7.550  0.0425  0.1496  0.0831
 3452W        W 3452   6.671   5.436   7.520 -0.2642  0.3888  0.0139
 3453W        W 3453   3.631   0.997   0.746 -0.1108  0.2271 -0.3089
 3454W        W 3454   8.810   2.102   3.506  0.1390 -0.1221  0.1680
 3455W        W 3455   8.037   5.480   2.849 -0.3681 -0.1023  0.1282
 3456W        W 3456   5.662   6.303   7.007  0.4308  0.2231 -0.2682
 3457W        W 3457   0.929   0.401   8.226  0.1405 -0.1121 -0.0489
 3458W        W 3458   2.540   8.361   2.649 -0.0557 -0.1209  0.0838
 3459W        W 3459   7.432   9.572   9.223 -0.0232 -0.1709 -0.1046
 3460W        W 3460   4.604   4.683   1.912  0.2767  0.1435 -0.1986
 3461W        W 3461   3.938   4.290   5.907  0.2662  0.2064  0.0518
 3462W        W 3462   0.008   4.967   3.483  0.1303 -0.2602  0.1142
 3463W        W 3463   2.886   3.428   1.388 -0.1021  0.1615 -0.0673
 3464W        W 3464   7.889   4.879   9.477  0.1895 -0.1825 -0.0334
 3465W        W 3465   5.756   3.061   3.383  0.0539  0.0006  0.1256
 3466W        W 3466   7.008   3.601   4.394 -0.1543 -0.0577  0.1102
 3467W        W 3467   8.271   4.614   4.398  0.1044  0.0931 -0.2065
 3468W        W 3468   5.568   0.876   3.105 -0.0936 -0.0746 -0.2832
 3469W        W 3469   5.870   0.183   1.540 -0.0286 -0.2230  0.2933
 3470W        W 3470   3.802   9.553   6.271  0.0400  0.2747 -0.0298
 3471W        W 3471   8.951   4.056   5.968  0.0996  0.1842 -0.2578
 3472W        W 3472   6.046   6.228   0.071 -0.0590 -0.2592  0.2969
 3473W        W 3473   2.697   4.655   9.756 -0.2451  0.0274  0.0259
 3474W        W 3474   4.554   7.110   1.486 -0.2817  0.2129 -0.3244
 3475W        W 3475   3.773   7.659   3.541  0.0587  0.0979 -0.1329
 3476W        W 3476   9.636   9.147   3.119 -0.3822 -0.1849 -0.2157
 3477W        W 3477   6.089   0.919   8.561 -0.0550  0.1977 -0.1647
 3478W        W 3478   7.343   5.845   8.821 -0.1155  0.1378  0.2935
 3479W        W 3479   0.936   1.862   1.185 -0.0505  0.0320 -0.2622
 3480W        W 3480   3.984   3.633   2.424  0.0872  0.0826  0.0379
 3481W        W 3481   6.031   2.939   4.673  0.2976 -0.2075  0.1445
 3482W        W 3482   2.327   6.858   1.517  0.0323  0.0402 -0.1154
 3483W        W 3483   8.114   1.864   5.644  0.1534  0.0157 -0.3513
 3484W        W 3484   0.870   3.976   3.858 -0.2526 -0.2174 -0.0455
 3485W        W 3485   5.411   4.793   9.667 -0.1565 -0.1751 -0.1216
 3486W        W 3486   8.849   5.035   2.757 -0.2381  0.0436  0.0080
 3487W        W 3487   2.022  10.179   2.046 -0.0104 -0.0360 -0.0956
 3488W        W 3488   0.197   2.686   6.146  0.1601 -0.2132 -0.0382
 3489W        W 3489   5.101   1.189   4.506 -0.1388 -0.0086  0.1656
 3490W        W 3490   9.877   4.625   7.738 -0.0503  0.0222  0.1694
 3491W        W 3491   4.685  10.068   1.366 -0.1079  0.0014 -0.0934
 3492W        W 3492   7.142   9.164   8.403  0.0245  0.1649  0.0930
 3493W        W 3493   0.762   0.761   8.614  0.0943  0.0371  0.1893
 3494W        W 3494   6.600   2.313   7.472  0.0308 -0.0244  0.0607
 3495W        W 3495   9.692   7.644   5.331 -0.1110 -0.0409  0.0153
 3496W        W 3496   3.153   4.055   8.271  0.0216 -0.1099  0.1306
 3497W        W 3497   8.549   1.176   9.486 -0.1186 -0.0604  0.2070
 3498W        W 3498   1.627   0.984   1.413  0.0457 -0.0127  0.2486
 3499W        W 3499  10.193   6.710   6.292  0.0779 -0.0912  0.0187
 3500W        W 3500   2.451   2.929   7.402  0.0894  0.1424 -0.2978
 3501W        W 3501   0.900   4.681   8.621  0.0924 -0.0731  0.1954
 3502W        W 3502   0.952   0.822   3.266 -0.3999 -0.0548  0.1712
 3503W        W 3503   7.120   0.169   3.807 -0.2235 -0.1705  0.2470
 3504W        W 3504   6.178   9.367   0.015  0.2449  0.4331 -0.3311
 3505W        W 3505   8.973   9.567   9.118  0.1361  0.1183  0.0295
 3506W        W 3506   2.416   8.698   6.578 -0.0039  0.1972  0.3400
 3507W        W 3507   9.932   2.328   8.928 -0.0101  0.3334 -0.3071
 3508W        W 3508   4.882   2.821   5.386 -0.1746 -0.3013  0.2152
 3509W        W 3509   7.072   4.307   0.079  0.2478  0.0976  0.3918
 3510W        W 3510   0.738   5.971   1.341  0.1238  0.4643  0.0556
 3511W        W 3511   2.660   5.863   3.415  0.0632 -0.4072 -0.1125
 3512W        W 3512   9.406   0.477   7.158  0.3513 -0.2126 -0.0563
 3513W        W 3513   4.882   2.861   9.509  0.0647 -0.1954 -0.0310
 3514W        W 3514   3.701   6.714   5.161  0.0986  0.2589 -0.0448
 3515W        W 3515   3.452   2.213   7.500  0.0854  0.0560 -0.2806
 3516W        W 3516   8.523   6.374   6.101 -0.1296  0.0111  0.0440
 3517W        W 3517   6.692   2.439   0.815 -0.1081  0.3375 -0.1956
 3518W        W 3518   4.754   5.905   0.244  0.1154  0.0910  0.1482
 3519W        W 3519   2.945   5.618   3.079 -0.2601 -0.1813 -0.1102
 3520W        W 3520   9.364   7.940   4.156 -0.0178  0.1797  0.1623
 3521W        W 3521   8.836   5.097   3.258 -0.0609 -0.0574  0.1426
 3522W        W 3522   3.443   3.500   2.296 -0.0955 -0.0733  0.2508
 3523W        W 3523   0.495   0.192   5.315  0.1358 -0.0686  0.0511
 3524W        W 3524   6.122   2.270   2.790  0.4255  0.2087 -0.0235
 3525W        W 3525   2.155   0.961   0.842 -0.3547  0.1219 -0.0218
 3526W        W 3526   8.968   1.687   7.833  0.2756 -0.0099  0.2502
 3527W        W 3527   2.549  10.022   4.567  0.2956  0.1131  0.2178
 3528W        W 3528   1.255   3.302   5.879  0.0563  0.0676 -0.0051
 3529W        W 3529   9.024   8.732   0.388  0.0352  0.1498  0.1421
 3530W        W 3530   4.576   3.809   5.169  0.0827 -0.3114  0.2233
 3531W        W 3531   4.487   9.012   3.287 -0.2608 -0.0139  0.1084
 3532W        W 3532   5.676   2.166   5.717 -0.0996  0.0481  0.0114
 3533W        W 3533   2.596   7.866   1.524 -0.0624  0.1073  0.1266
 3534W        W 3534   2.525   9.139   1.551 -0.0034 -0.4033 -0.0259
 3535W        W 3535   1.707   1.768  10.081 -0.1595  0.0790  0.1810
 3536W        W 3536   5.682   0.359   4.474  0.1217  0.0904 -0.1365
 3537W        W 3537   7.544   2.035   3.755  0.4112 -0.0329 -0.0704
 3538W        W 3538   1.724   0.125   2.963 -0.0509 -0.1408  0.0870
 3539W        W 3539   9.307  10.102   1.784  0.0799  0.0117  0.1825
 3540W        W 3540   9.720   2.954   2.958  0.2149  0.0716  0.4708
 3541W        W 3541   8.725   4.236   3.558  0.1063 -0.1699  0.3495
 3542W        W 3542   6.448   2.652   5.862 -0.0547 -0.1194  0.1567
 3543W        W 3543   7.373   7.191   5.667 -0.2799 -0.2650  0.4219
 3544W        W 3544   3.641   6.340   6.702 -0.1378  0.0695  0.2086
 3545W        W 3545   9.504   8.542   6.275  0.2117 -0.2390 -0.2088
 3546W        W 3546   9.322   5.526   0.607  0.0994 -0.1638 -0.1334
 3547W        W 3547   4.725   8.138   5.871  0.0754 -0.4630  0.1035
 3548W        W 3548   8.527   6.099   7.716 -0.0281  0.0848 -0.0696
 3549W        W 3549   5.699   6.938   6.807 -0.0816  0.0700  0.4668
 3550W        W 3550   3.007   4.854   6.724  0.2696  0.2858 -0.2458
 3551W        W 3551   0.302   2.204   6.060 -0.5145 -0.2647 -0.1032
 3552W        W 3552   4.523   8.806   6.252 -0.0876 -0.6270  0.2090
 3553W        W 3553   8.162   2.635   3.624  0.2617 -0.0987 -0.0939
 3554W        W 3554   0.918   3.805  10.318 -0.0968 -0.3436 -0.0204
 3555W        W 3555  10.314   7.357   1.889  0.0057  0.0141 -0.3296
 3556W        W 3556   5.388   0.947   0.703  0.1984 -0.0020  0.2274
 3557W        W 3557   5.240   9.283   4.875  0.1645  0.1539  0.0675
 3558W        W 3558   3.692   5.303   2.741  0.0531  0.1902 -0.1290
 3559W        W 3559   1.178   0.247  10.324  0.2753  0.2661  0.2052
 3560W        W 3560   0.434   9.137   0.320 -0.1545 -0.3514 -0.0827
 3561W        W 3561   3.291   7.632   0.831  0.0751 -0.1019 -0.4364
 3562W        W 3562   2.683   7.948   7.073 -0.2138 -0.2939  0.0680
 3563W        W 3563   9.731   9.191   4.202 -0.3026  0.0529  0.0121
 3564W        W 3564   8.681   7.646   4.770  0.0358  0.0112  0.0121
 3565W        W 3565   3.069   3.100   5.652 -0.0599  0.1197  0.1676
 3566W        W 3566   7.743   8.857   7.211 -0.1633 -0.2375 -0.0802
 3567W        W 3567   3.894   5.598  10.026  0.2504  0.1049  0.2043
 3568W        W 3568   4.990  10.144   2.827 -0.0501  0.0943  0.0645
 3569W        W 3569   2.272   8.355   7.532 -0.4530  0.1515 -0.1901
 3570W        W 3570   1.337   0.853   0.371 -0.1688  0.1466  0.0211
 3571W        W 3571   8.912   1.004   3.447 -0.2275 -0.1339  0.0334
 3572W        W 3572   8.545   2.861   7.989 -0.1250 -0.0769 -0.2360
 3573W        W 3573   4.579   7.738   0.642 -0.2443  0.2158 -0.0519
 3574W        W 3574   0.875   7.967   3.979 -0.1048  0.0660  0.2023
 3575W        W 3575   7.838   0.758   8.330 -0.1342 -0.0626  0.0763
 3576W        W 3576   6.073   1.758   2.698  0.3754 -0.0830 -0.0173
 3577W        W 3577   0.448   1.297   4.193 -0.0506 -0.2934  0.0314
 3578W        W 3578  10.202   5.906   9.508  0.1008  0.0301 -0.1472
 3579W        W 3579   7.512   2.234   6.360  0.2102 -0.0898  0.3021
 3580W        W 3580  10.020   8.455   9.269  0.3958 -0.0283  0.1152
 3581W        W 3581   1.036   1.006   2.693 -0.1652  0.4288 -0.0686
 3582W        W 3582   8.294   7.963   0.494  0.0924  0.5960 -0.0241
 3583W        W 3583   1.372   4.728   8.296  0.2372  0.1052  0.1209
 3584W        W 3584   6.438   9.850   1.336  0.0651  0.0137  0.0467
 3585W        W 3585   7.317   4.261   1.694  0.0114 -0.0396 -0.0574
 3586W        W 3586   6.931   0.027   0.563  0.0415 -0.1259 -0.3675
 3587W        W 3587  10.338   8.068   9.121  0.0206 -0.1572  0.3804
 3588W        W 3588   0.005   6.841   8.389 -0.1588  0.0493  0.1538
 3589W        W 3589   3.413   2.423   8.408  0.1236 -0.0983 -0.0623
 3590W        W 3590   7.388   9.181   2.481  0.0891  0.2663  0.1572
 3591W        W 3591   8.829   5.902   3.015  0.0341  0.2785 -0.3453
 3592W        W 3592   2.397   8.677   3.679 -0.4363  0.1923  0.2600
 3593W        W 3593   2.265   1.358   7.633 -0.0192  0.1171  0.0681
 3594W        W 3594   4.264   6.369   4.384  0.2236 -0.3227 -0.0059
 3595W        W 3595   7.913   2.775   3.147  0.1694 -0.3421  0.2087
 3596W        W 3596   0.091   1.376   9.422  0.2710  0.1329 -0.0104
 3597W        W 3597   4.248   2.218   1.916  0.3371 -0.2768 -0.0478
 3598W        W 3598   5.644   1.863   0.554 -0.3435 -0.2455  0.0739
 3599W        W 3599   6.251   1.356   5.948  0.2859 -0.1734  0.0458
 3600W        W 3600   8.975   4.062   6.482 -0.0504  0.0437  0.2232
 3601W        W 3601   5.580   1.745   1.948 -0.0052 -0.2436 -0.0483
 3602W        W 3602  10.184  10.001   7.733 -0.1522 -0.2296 -0.1349
 3603W        W 3603  10.117   0.600   9.405  0.0441 -0.0828  0.2505
 3604W        W 3604   1.485   7.026   8.202  0.0881  0.2760  0.3998
 3605W        W 3605  10.127   2.700   5.747  0.4465 -0.0354  0.2177
 3606W        W 3606  10.010   1.771   8.755 -0.0499 -0.3081 -0.1048
 3607W        W 3607   1.828   4.808   9.399 -0.1874  0.1915 -0.1895
 3608W        W 3608   9.746   0.675   1.937  0.1663 -0.1442  0.1250
 3609W        W 3609   0.412   4.397   3.724  0.2639 -0.0064 -0.0950
 3610W        W 3610   0.166   3.340   2.500 -0.1332 -0.0964 -0.1330
 3611W        W 3611   1.309   2.313   4.750 -0.0254  0.1999  0.0694
 3612W        W 3612   9.174   9.378   3.092 -0.1204  0.1800 -0.0227
 3613W        W 3613   4.477   7.356   2.358 -0.0098  0.0073  0.1835
 3614W        W 3614   1.332   8.417   3.846  0.0779  0.0865  0.2977
 3615W        W 3615   6.097   0.498   0.314  0.1214 -0.2157  0.0125
 3616W        W 3616   0.233   0.428   4.357  0.3078  0.0547 -0.1852
 3617W        W 3617   8.592   0.771   4.482  0.0461  0.2142  0.0850
 3618W        W 3618   3.984   3.273   0.312 -0.0359 -0.1295  0.0728
 3619W        W 3619   5.053   6.011   3.223  0.0851 -0.0368 -0.3286
 3620W        W 3620  10.083   8.770   0.858 -0.2558 -0.1640 -0.1086
 3621W        W 3621   9.033   6.646   3.689 -0.2799 -0.1383  0.1406
 3622W        W 3622   1.242   9.303   1.128 -0.0463 -0.1655  0.0448
 3623W        W 3623   9.864   8.724   3.976  0.1387  0.0903  0.3346
 3624W        W 3624  10.309   6.003   9.970  0.1056 -0.2110 -0.1091
 3625W        W 3625   9.231   5.309   8.969  0.1670 -0.0599  0.0261
 3626W        W 3626   1.859   5.280   1.756  0.3113 -0.0818 -0.2430
 3627W        W 3627   6.120   3.271   0.355 -0.1104  0.0231 -0.1154
 3628W        W 3628   1.090   6.684   4.665  0.2297  0.0418  0.0619
 3629W        W 3629   6.397   5.505   8.941  0.1077 -0.0683 -0.1072
 3630W        W 3630   8.229  10.183   8.503 -0.1790 -0.1412  0.2914
 3631W        W 3631   7.974   0.099   6.606  0.0289  0.3399  0.1650
 3632W        W 3632   9.194   0.505   7.814  0.2422 -0.1568 -0.1584
 3633W        W 3633   8.466   4.957   9.683  0.3147 -0.0770 -0.0239
 3634W        W 3634   4.841   7.456   4.461 -0.0267 -0.2855 -0.2208
 3635W        W 3635   8.495   6.939   1.164 -0.0497  0.1164  0.1299
 3636W        W 3636   6.624   3.108   2.357 -0.2514 -0.0229 -0.2031
 3637W        W 3637   8.012   0.036   1.990 -0.1694  0.2239  0.2419
 3638W        W 3638   0.669   8.418   6.447  0.2061  0.1405  0.1690
 3639W        W 3639   9.239   9.327   4.446 -0.1351 -0.0524 -0.0265
 3640W        W 3640   0.841   1.787   3.934  0.0369 -0.1140  0.0191
 3641W        W 3641   2.256   1.547   4.794 -0.1482 -0.1963  0.1570
 3642W        W 3642   0.841   3.880   8.799 -0.0005 -0.3537 -0.3922
 3643W        W 3643   3.179   2.178   8.007 -0.3801  0.0871 -0.0029
 3644W        W 3644   8.122   3.927   5.695 -0.4007  0.0172  0.0237
 3645W        W 3645   8.060   1.546   2.769 -0.1322 -0.3021  0.2991
 3646W        W 3646   3.559   4.028   9.843 -0.3567 -0.4685 -0.2711
 3647W        W 3647   1.536   1.537   5.711  0.1380  0.2804 -0.3389
 3648W        W 3648   5.094   8.107   8.435  0.1197 -0.0434 -0.1448
 3649W        W 3649   0.117   7.913   2.491 -0.2332 -0.1036 -0.1285
 3650W        W 3650   1.178   6.358   0.408  0.2553 -0.1983 -0.0038
 3651W        W 3651   9.865   0.516   5.351 -0.2206 -0.0705 -0.0998
 3652W        W 3652   8.624   6.590   8.015 -0.0155  0.1134  0.1251
 3653W        W 3653   3.952   8.593   0.598 -0.0980 -0.1008 -0.2710
 3654W        W 3654   0.473   3.654   7.179 -0.1380 -0.0646  0.1712
 3655W        W 3655   0.122   2.011   9.616  0.1321 -0.0431  0.1008
 3656W        W 3656   2.797   1.146   3.518  0.1862  0.0845  0.1252
 3657W        W 3657   7.039   2.881   0.977  0.0566 -0.0506 -0.0082
 3658W        W 3658   0.738   7.603   3.598 -0.0817  0.0023  0.0967
 3659W        W 3659   3.470  10.117   4.717 -0.0134  0.0738 -0.1640
 3660W        W 3660   0.044   0.982   8.430 -0.2328 -0.2424  0.4878
 3661W        W 3661   5.767   2.655   9.635  0.1613  0.0260  0.4500
 3662W        W 3662   1.907   5.470   1.283 -0.0647  0.1161  0.1625
 3663W        W 3663   0.095   0.749   5.785 -0.0144 -0.2724  0.0864
 3664W        W 3664   1.268   9.526   9.496 -0.1548 -0.0612  0.0447
 3665W        W 3665   6.331   9.976   6.232 -0.2660  0.1967 -0.1668
 3666W        W 3666   0.484   5.709   7.714  0.0041 -0.0360  0.3262
 3667W        W 3667   9.866   9.286   8.502 -0.0632 -0.0004  0.0354
 3668W        W 3668   0.571   1.439   6.686 -0.0705 -0.3818 -0.0665
 3669W        W 3669   4.428   7.921   4.131 -0.0334  0.1172  0.4407
 3670W        W 3670   3.457   4.581   6.849  0.1855 -0.0771 -0.0781
 3671W        W 3671   4.906   7.633   0.147  0.1138  0.1839 -0.2126
 3672W        W 3672   1.697   1.412   0.093  0.1594  0.0846 -0.1998
 3673W        W 3673   4.750   9.895   7.682  0.3746 -0.1128  0.3153
 3674W        W 3674  10.264   3.847   2.783  0.1106 -0.1389  0.2112
 3675W        W 3675   9.868   3.146   9.706  0.1672 -0.0163  0.0480
 3676W        W 3676   2.920   1.314   6.673  0.0077  0.0083 -0.1710
 3677W        W 3677   7.640   5.111   1.422 -0.1063 -0.0207 -0.0216
 3678W        W 3678   8.608   5.414   4.270 -0.1085 -0.2876  0.1449
 3679W        W 3679   5.257   7.556   5.328  0.1281  0.2321  0.2909
 3680W        W 3680   5.266   2.687   0.734 -0.2349 -0.1970 -0.1213
 3681W        W 3681   2.581   7.644   6.692  0.0196  0.0164 -0.1128
 3682W        W 3682   9.807   4.240   8.130  0.2105 -0.0891  0.1776
 3683W        W 3683   2.200   8.778   1.862 -0.0148  0.0926 -0.0064
 3684W        W 3684   5.076   0.977   1.764  0.0475 -0.4055 -0.0614
 3685W        W 3685   5.687   4.499   1.671 -0.2893 -0.0786  0.2964
 3686W        W 3686   8.637   5.073   3.839  0.2352  0.0391  0.2271
 3687W        W 3687   4.217   4.304   4.781 -0.2819 -0.2065 -0.1316
 3688W        W 3688   3.780   1.080   9.223  0.2300 -0.0082  0.5113
 3689W        W 3689   6.613   3.102   4.377  0.1819  0.2302  0.2178
 3690W        W 3690   0.594   9.401   0.757 -0.1860  0.0711 -0.0853
 3691W        W 3691   0.170   3.208   4.636  0.0947 -0.2774 -0.0289
 3692W        W 3692  10.311   5.315   5.272 -0.1731 -0.0406 -0.3297
 3693W        W 3693   0.582   8.118   4.663  0.2067  0.1047  0.0081
 3694W        W 3694   2.280   8.037   1.825 -0.1190 -0.1837  0.0795
 3695W        W 3695   2.597   5.120   0.278  0.3399 -0.0304  0.2036
 3696W        W 3696   0.160   5.999   7.996 -0.1050 -0.0370 -0.3300
 3697W        W 3697   5.934   3.982   7.029 -0.0261 -0.2547 -0.3348
 3698W        W 3698   6.706   6.950   6.220  0.0254  0.0974 -0.2167
 3699W        W 3699   9.560   8.298   3.824 -0.1483  0.1419 -0.0074
 3700W        W 3700   8.119   9.144   8.045 -0.0018  0.2974  0.1059
 3701W        W 3701  10.318   9.828   9.668  0.0125 -0.2186 -0.2449
 3702W        W 3702   5.236   7.679   9.645  0.0371  0.3541  0.2193
 3703W        W 3703   7.558   2.278   2.960 -0.2366 -0.1940 -0.0258
 3704W        W 3704   2.375   8.209   6.666 -0.1314  0.1856  0.1390
 3705W        W 3705   0.193   0.483   2.690 -0.1070  0.2630  0.2914
 3706W        W 3706   4.366   0.316   6.539  0.1241  0.1933 -0.1591
 3707W        W 3707   3.551   7.624   1.690 -0.0683 -0.0233  0.2016
 3708W        W 3708   1.740   3.061   5.426  0.1922 -0.0281  0.0556
 3709W        W 3709   0.198   9.377   9.491  0.0187 -0.1332 -0.0114
 3710W        W 3710   1.674  10.025   6.797 -0.2346 -0.1598 -0.0013
 3711W        W 3711   8.396   2.937   2.305 -0.0007  0.0168  0.3416
 3712W        W 3712   1.384   6.553   9.029  0.0521 -0.0861  0.1764
 3713W        W 3713   7.893   3.773   5.263  0.0263  0.2971  0.0544
 3714W        W 3714   6.875   4.969   6.625 -0.1693 -0.3623 -0.1226
 3715W        W 3715   3.106   7.690   6.936 -0.1947  0.0913 -0.2744
 3716W        W 3716   8.281   5.052   4.174 -0.2996 -0.1126  0.1192
 3717W        W 3717   8.501   3.953   6.288 -0.5109 -0.0595  0.1057
 3718W        W 3718   2.867   8.821   7.924  0.2270  0.1247  0.2463
 3719W        W 3719   8.374   5.446   4.996 -0.4172 -0.0302 -0.2077
 3720W        W 3720   9.807   0.240   5.815 -0.1476  0.0800  0.1253
 3721W        W 3721   3.460   4.156   5.090  0.0742  0.2324  0.1910
 3722W        W 3722   0.352   0.533   3.493  0.1564  0.1910  0.0795
 3723W        W 3723   4.966   8.127   6.270 -0.6026 -0.4620  0.0473
 3724W        W 3724   9.078   9.749   4.210  0.0148 -0.0305 -0.1134
 3725W        W 3725   3.941   8.714   4.485 -0.0318 -0.0297 -0.3349
 3726W        W 3726   8.168   3.898   8.532 -0.0594 -0.1245 -0.1182
 3727W        W 3727   7.509   3.430   4.428  0.1099  0.1573  0.3541
 3728W        W 3728   3.775   7.181   1.723  0.1416 -0.0467 -0.4129
 3729W        W 3729   4.514   1.688   1.088 -0.1788  0.3968 -0.0716
 3730W        W 3730  10.179   0.520   1.761  0.2550  0.1874 -0.1204
 3731W        W 3731   3.067   0.630   1.080 -0.3720  0.2190  0.0226
 3732W        W 3732   9.371   9.044   6.238 -0.1407 -0.0571 -0.2337
 3733W        W 3733   1.391   3.953   7.117  0.2786 -0.0738  0.1940
 3734W        W 3734   2.798   7.553   2.152  0.0250  0.2187 -0.0558
 3735W        W 3735   3.581   7.254   2.513  0.0171 -0.0451 -0.4035
 3736W        W 3736   4.643   9.061   9.825 -0.0360  0.1715  0.1649
 3737W        W 3737   1.429   2.363   2.093  0.3373 -0.3507  0.5933
 3738W        W 3738   9.891   2.241   9.454  0.0152 -0.2231 -0.0645
 3739W        W 3739   4.721   8.110   0.295  0.1198  0.2516 -0.1944
 3740W        W 3740   3.995   4.608   5.532 -0.0223 -0.0104 -0.0305
 3741W        W 3741   6.322   4.392   1.540  0.2731  0.4672 -0.3133
 3742W        W 3742   8.080   9.846   5.098  0.1330  0.0123  0.2840
 3743W        W 3743   8.493   4.714   3.425  0.1317 -0.0405 -0.0038
 3744W        W 3744   3.952   4.550   0.816 -0.0950  0.0373  0.1069
 3745W        W 3745   3.080   0.189   9.576 -0.4350 -0.1804  0.2541
 3746W        W 3746   6.037   4.995   6.841  0.2308  0.0014  0.1030
 3747W        W 3747   7.956   9.871   3.640 -0.1594 -0.3102 -0.2937
 3748W        W 3748   3.435   1.367   7.489  0.2722 -0.0143  0.0333
 3749W        W 3749   7.250   6.842   1.570 -0.2297 -0.1667  0.0748
 3750W        W 3750   2.710   7.238   0.217  0.1560 -0.0806  0.1254
 3751W        W 3751   7.869   2.892   6.776 -0.0053 -0.2214  0.1620
 3752W        W 3752   2.063   2.947   1.553  0.0759  0.1863  0.0347
 3753W        W 3753   4.716   8.185   1.843 -0.0176  0.2633  0.2023
 3754W        W 3754   1.878   6.146   6.636 -0.2241  0.0282  0.0044
 3755W        W 3755   7.089   3.727   5.816  0.0025 -0.0166 -0.2616
 3756W        W 3756   5.307   0.205   9.918  0.1789 -0.0944  0.0993
 3757W        W 3757   7.474   5.801   9.351  0.1846  0.0064 -0.2027
 3758W        W 3758   6.872   3.743   8.456 -0.3280  0.2117 -0.3372
 3759W        W 3759   3.971   1.712   0.401 -0.1242 -0.0703  0.2576
 3760W        W 3760   2.712   6.049   5.600 -0.4138 -0.1308 -0.2267
 3761W        W 3761   2.794   6.614   5.512  0.2180  0.0957  0.1042
 3762W        W 3762   5.489  10.303   8.970 -0.2825 -0.3490  0.2509
 3763W        W 3763   1.740   1.176   3.304  0.0735  0.1479 -0.1330
 3764W        W 3764   8.652   1.478   3.309  0.0535 -0.0664  0.0426
 3765W        W 3765   0.168   0.885   9.317  0.0827  0.4243  0.2530
 3766W        W 3766   9.073   8.558   1.703  0.1154  0.4048  0.1309
 3767W        W 3767  10.137   0.683   4.432 -0.1821 -0.0123  0.1513
 3768W        W 3768   6.128   6.794   8.185 -0.1307 -0.1336  0.3722
 3769W        W 3769   1.206   7.488   3.691  0.1505  0.3643  0.0952
 3770W        W 3770   9.315   9.121   8.506 -0.2366  0.0040  0.3269
 3771W        W 3771   1.608   0.183   4.020 -0.0152 -0.1320  0.1227
 3772W        W 3772   7.141   4.557   6.306 -0.3543  0.3139 -0.1254
 3773W        W 3773   4.319   3.772   4.672 -0.1137  0.0419 -0.0613
 3774W        W 3774   5.732   6.547   3.768  0.1213  0.2038 -0.1931
 3775W        W 3775   6.112   2.326   7.375 -0.0311 -0.3291 -0.0850
 3776W        W 3776   5.898   7.160   6.402  0.2524 -0.0506  0.2239
 3777W        W 3777   6.597   6.550   1.016  0.0794  0.4437  0.2369
 3778W        W 3778   8.815  10.065   1.680  0.0561  0.2172 -0.1946
 3779W        W 3779   9.158   6.595   1.561 -0.2402 -0.0596  0.2224
 3780W        W 3780   3.569   5.505   7.839  0.1372 -0.0880 -0.0612
 3781W        W 3781   6.342   7.008   4.147  0.2712 -0.0289 -0.0869
 3782W        W 3782   0.914   8.036   5.017 -0.1518 -0.1983 -0.0854
 3783W        W 3783   6.896   2.305   1.779  0.2278 -0.1659  0.0682
 3784W        W 3784   5.481   0.278   2.965 -0.0677 -0.0326 -0.1685
 3785W        W 3785   0.529   5.983   5.701  0.1186 -0.3481  0.0077
 3786W        W 3786   8.611   8.222   7.710 -0.0800 -0.0982  0.3775
 3787W        W 3787   2.261   6.918   9.814 -0.1170 -0.2346  0.0709
 3788W        W 3788   2.747  10.057   5.844  0.0428 -0.0295  0.2005
 3789W        W 3789   6.062   4.813   1.687 -0.0574  0.0596  0.0154
 3790W        W 3790   4.956   6.037   5.972 -0.1359  0.1728 -0.1175
 3791W        W 3791   4.711   9.736   1.972 -0.0440 -0.0011  0.1212
 3792W        W 3792   3.031   8.444  10.007  0.1391  0.0997 -0.2668
 3793W        W 3793   1.355   1.209   4.540  0.1918 -0.0047 -0.0587
 3794W        W 3794   7.634   2.612   0.517  0.0113  0.0386  0.1882
 3795W        W 3795   1.532   1.701   8.426  0.0241 -0.0334 -0.1285
 3796W        W 3796   7.406   9.896   9.615 -0.1865  0.0610 -0.1759
 3797W        W 3797   9.192   7.551   0.856 -0.0929 -0.1317  0.3074
 3798W        W 3798   0.371   9.732   8.836 -0.1548 -0.0306 -0.1267
 3799W        W 3799   4.889   3.093   0.842 -0.0615  0.0474  0.3174
 3800W        W 3800   4.667   8.877   5.151 -0.2579 -0.0428  0.3242
 3801W        W 3801   6.450   3.864   1.379 -0.1303 -0.0985 -0.3805
 3802W        W 3802   8.845   2.901   4.936 -0.0602  0.0397  0.2128
 3803W        W 3803   4.186   0.051   7.259 -0.1994 -0.0373 -0.1154
 3804W        W 3804   3.776   5.896   9.223  0.1258  0.0217  0.2372
 3805W        W 3805   6.530   2.204   6.055  0.0064  0.0371  0.0183
 3806W        W 3806   1.450  10.076   3.157 -0.0269  0.0989  0.3352
 3807W        W 3807   1.104   4.528   7.876  0.0870 -0.2342  0.0991
 3808W        W 3808   9.542   5.043   7.638  0.3165 -0.1552 -0.1897
 3809W        W 3809   6.109   7.057   9.346  0.0828 -0.3989  0.0631
 3810W        W 3810   4.949   8.105   9.675  0.0445 -0.1213  0.0556
 3811W        W 3811   8.309   1.332   6.085  0.1793  0.0553  0.2473
 3812W        W 3812   0.372   8.054   0.817 -0.1346 -0.1466 -0.0222
 3813W        W 3813   3.054   8.171   6.339 -0.0230 -0.1097  0.0422
 3814W        W 3814   5.872   9.382   4.029 -0.5349 -0.0419 -0.1163
 3815W        W 3815   5.390   0.227   1.062  0.0287 -0.1504 -0.1089
 3816W        W 3816   3.092   7.673   6.431 -0.0750 -0.4626 -0.2898
 3817W        W 3817   7.630  10.099   7.392  0.0620  0.0202 -0.0110
 3818W        W 3818   4.684   7.511   5.476 -0.0627  0.2114 -0.0344
 3819W        W 3819   8.869   7.662   9.902 -0.0551  0.2245 -0.3319
 3820W        W 3820   3.018   0.162   1.384  0.0797 -0.1118 -0.0574
 3821W        W 3821   0.190   7.142   7.490 -0.1070  0.2725 -0.1356
 3822W        W 3822   4.288   4.397   0.040 -0.2334  0.0146  0.1109
 3823W        W 3823   2.028   5.294   3.961  0.2164 -0.2152 -0.2826
 3824W        W 3824   7.811   5.422   8.515  0.0298  0.4313  0.2041
 3825W        W 3825   5.973   5.683   0.184 -0.0416  0.3059  0.1324
 3826W        W 3826   1.821   8.799   5.930 -0.4659 -0.1075 -0.1409
 3827W        W 3827  10.232   1.602   3.432  0.2252 -0.0866  0.2098
 3828W        W 3828   7.536  10.093   9.216 -0.4369 -0.1042 -0.0468
 3829W        W 3829   0.268   2.299   3.990  0.2109 -0.1355  0.1187
 3830W        W 3830   4.396   1.933   5.795 -0.3096 -0.3040  0.2527
 3831W        W 3831   8.540   0.247   2.246 -0.2373 -0.1279 -0.0741
 3832W        W 3832   8.409   0.078   8.958 -0.1935 -0.2826  0.2812
 3833W        W 3833   5.860   5.263   9.846 -0.0233  0.0870  0.0579
 3834W        W 3834  10.070   1.530   2.962 -0.0121 -0.0567 -0.0955
 3835W        W 3835   7.198   5.993   0.937 -0.0194  0.1335  0.1549
 3836W        W 3836   0.970   7.345   6.998 -0.2277  0.2404  0.1888
 3837W        W 3837   0.384   5.278   7.275 -0.0517 -0.0983  0.1707
 3838W        W 3838   6.607   7.217   8.212 -0.3233 -0.0698  0.2150
 3839W        W 3839   9.199   7.518   3.873  0.5043 -0.1605 -0.2977
 3840W        W 3840   3.047   7.587  10.252  0.0270 -0.0519  0.1136
 3841W        W 3841   9.579   6.216   8.898  0.0911 -0.4984 -0.1246
 3842W        W 3842   3.205   0.837  10.169  0.2997 -0.0988  0.1421
 3843W        W 3843   6.244   7.992   4.109 -0.0442  0.2225 -0.2028
 3844W        W 3844   8.895   9.099   9.876  0.0281  0.0208  0.1128
 3845W        W 3845   5.264   4.610   4.355  0.0526 -0.2741  0.1424
 3846W        W 3846   3.549   9.822   8.496 -0.2100  0.2900  0.0408
 3847W        W 3847   7.914   7.041   1.510  0.4173 -0.4499  0.2636
 3848W        W 3848   5.572   5.149   8.382 -0.1026 -0.0805 -0.1657
 3849W        W 3849   1.336   9.049   1.827  0.1264 -0.0607  0.0038
 3850W        W 3850   1.597   0.953   2.671  0.0452 -0.1374 -0.2154
 3851W        W 3851   9.253   4.406   3.487 -0.0304  0.0294  0.2234
 3852W        W 3852   5.976   9.578   5.498 -0.3039  0.1123  0.0709
 3853W        W 3853   8.691   0.516   8.669  0.2136  0.0769  0.0791
 3854W        W 3854   8.737   9.695   1.262  0.0449 -0.1314  0.0710
 3855W        W 3855   4.320   1.070   6.213 -0.1698 -0.0554 -0.0533
 3856W        W 3856   5.327   2.092  10.319  0.0355 -0.0276  0.3620
 3857W        W 3857   0.435   1.430   0.262  0.1219  0.1142 -0.0475
 3858W        W 3858   9.067   8.425  10.285  0.1778 -0.3376 -0.0960
 3859W        W 3859   4.018   6.265   4.859 -0.3038 -0.2136  0.4278
 3860W        W 3860   3.973   5.718   2.812  0.0094 -0.0328 -0.1146
 3861W        W 3861   7.637   8.462   4.023 -0.2711 -0.0162 -0.0635
 3862W        W 3862   8.767   1.107   6.172 -0.1887  0.2650  0.0805
 3863W        W 3863   3.748   3.717   8.876 -0.1785 -0.1085  0.0104
 3864W        W 3864   5.732   5.264   3.459  0.0721  0.2687  0.0196
 3865W        W 3865   8.174   1.194   8.378  0.1208 -0.2272 -0.0867
 3866W        W 3866   7.373   3.289   2.610  0.1541 -0.0390  0.0175
 3867W        W 3867   0.062  10.284   1.005 -0.2239  0.0463  0.2439
 3868W        W 3868   9.924   9.770   5.671 -0.2242 -0.0325  0.1419
 3869W        W 3869   6.093   5.843   3.201  0.1527  0.0708 -0.0604
 3870W        W 3870   3.904   9.028   1.752 -0.1957 -0.0515  0.0848
 3871W        W 3871   5.133   0.045   1.409 -0.1809 -0.4746 -0.2284
 3872W        W 3872   6.652  10.148   5.322 -0.0055 -0.0054 -0.3306
 3873W        W 3873   1.425   4.735   4.497  0.0243 -0.3933 -0.0001
 3874W        W 3874   9.969   7.673   7.806 -0.0785 -0.3244  0.1821
 3875W        W 3875   6.463   8.369   8.665 -0.2248  0.0771 -0.3927
 3876W        W 3876   0.015   2.151   6.436  0.1236  0.1775  0.2410
 3877W        W 3877   7.840   2.098   8.131  0.0422  0.1347 -0.1296
 3878W        W 3878   3.998   8.004   6.173 -0.0588 -0.0764 -0.1121
 3879W        W 3879   1.312   1.459   8.934  0.0822 -0.0678  0.2026
 3880W        W 3880   5.254   2.605   1.265 -0.1904 -0.0500 -0.0608
 3881W        W 3881   3.675   1.605   4.653  0.0617  0.1486  0.0722
 3882W        W 3882   1.611   9.717   8.394 -0.1079  0.2290 -0.0097
 3883W        W 3883   7.736   9.492   5.449  0.2874  0.3162  0.3803
 3884W        W 3884   7.249   2.750   3.760  0.0242  0.1400  0.0751
 3885W        W 3885   3.492   4.317   2.507 -0.2130  0.1880  0.1098
 3886W        W 3886   2.953   1.743   8.105 -0.1552  0.2136 -0.2130
 3887W        W 3887   8.920   9.159   8.859 -0.0248 -0.1179 -0.0852
 3888W        W 3888   1.189   8.185   9.491 -0.2087  0.1204 -0.2239
 3889W        W 3889   7.422  10.115   6.582  0.2035 -0.2079  0.0711
 3890W        W 3890   5.319   0.069   2.516  0.2213 -0.0496  0.0042
 3891W        W 3891   5.266   3.312   8.499  0.2316  0.0313  0.2034
 3892W        W 3892   2.880   0.671   7.513  0.0375 -0.0641  0.0479
 3893W        W 3893   4.819   5.781   9.812  0.0940  0.0066 -0.1714
 3894W        W 3894   4.485   7.219   3.459  0.0282 -0.0344 -0.1517
 3895W        W 3895   3.354   9.004   5.238 -0.0909  0.0023  0.1463
 3896W        W 3896   9.091   3.088  10.238  0.1751 -0.0182  0.2089
 3897W        W 3897   2.631   2.440   7.306 -0.0309 -0.2293  0.1143
 3898W        W 3898   1.232  10.229   7.627  0.0725 -0.1102 -0.0973
 3899W        W 3899   2.965   7.528   9.594  0.0055 -0.2531 -0.4244
 3900W        W 3900   4.151   1.112   9.983  0.1892  0.3534 -0.2066
 3901W        W 3901   0.830   0.568   4.561 -0.1384 -0.1298 -0.2457
 3902W        W 3902   6.627   7.770   6.281  0.1628  0.2897  0.0825
 3903W        W 3903   3.988   4.443   3.603  0.1676  0.0779 -0.2021
 3904W        W 3904   0.079   0.858   1.026  0.3236  0.0789 -0.0729
 3905W        W 3905   3.755   6.894   4.236 -0.2128  0.2619  0.0600
 3906W        W 3906   3.093  10.342   6.390 -0.1056 -0.0406 -0.0015
 3907W        W 3907   8.088   5.679   5.857 -0.0082  0.2377 -0.1412
 3908W        W 3908   9.792   5.346   5.351  0.3100 -0.1235 -0.0514
 3909W        W 3909   5.354   6.865   3.955  0.1890  0.0550 -0.1246
 3910W        W 3910   2.918   4.581   8.152 -0.0180  0.2329  0.1015
 3911W        W 3911   2.718   8.283   8.211  0.0861  0.3349 -0.2652
 3912W        W 3912   5.971   6.646   1.402  0.2748 -0.1919  0.1054
 3913W        W 3913   7.637   3.148   8.134 -0.1952  0.3159  0.3122
 3914W        W 3914   3.771   3.186   9.162  0.0491  0.2363  0.1308
 3915W        W 3915   5.281   8.581   4.245 -0.0868  0.2441  0.0499
 3916W        W 3916   8.735   0.163   6.399  0.0924  0.1529 -0.3341
 3917W        W 3917   7.941   9.902   1.158  0.0377  0.1850 -0.0166
 3918W        W 3918   0.522   2.748   4.783 -0.0283  0.1184  0.0130
 3919W        W 3919   7.067   6.786   8.878 -0.1726 -0.1309 -0.0973
 3920W        W 3920   3.740   1.501   2.914 -0.1788  0.1126 -0.0874
 3921W        W 3921   5.770   4.059   6.581 -0.2441 -0.0307 -0.1119
 3922W        W 3922   0.655   9.567   3.417  0.0048 -0.0183 -0.0880
 3923W        W 3923   3.119   9.109   2.503 -0.0183 -0.0459  0.1422
 3924W        W 3924   9.993   8.394   2.105 -0.2646  0.1613 -0.4470
 3925W        W 3925   9.160   9.863   5.969 -0.0249  0.1481  0.1708
 3926W        W 3926   4.936   6.588   8.028 -0.2495 -0.3190 -0.2052
 3927W        W 3927   3.373   6.807   6.120  0.1921 -0.1992 -0.2839
 3928W        W 3928   2.795   5.960   7.918  0.1622  0.0738  0.1980
 3929W        W 3929   3.854   0.880   5.393 -0.1171  0.0041  0.0982
 3930W        W 3930   0.761   9.657   7.880 -0.1240 -0.2471  0.1019
 3931W        W 3931   5.770   9.350   4.993  0.0463  0.3409  0.1147
 3932W        W 3932   0.013   1.175   4.543  0.0688 -0.0774  0.0307
 3933W        W 3933   3.968   4.656   8.630 -0.2267 -0.0028  0.1092
 3934W        W 3934   2.889   7.702   4.279 -0.3342  0.1729  0.2020
 3935W        W 3935   4.540   0.611   0.909 -0.0408  0.0449 -0.0290
 3936W        W 3936  10.216   0.631   3.097  0.0346 -0.0294  0.1570
 3937W        W 3937   3.604   7.024   0.023 -0.0596  0.1611 -0.1115
 3938W        W 3938   2.429   6.903   0.012 -0.3119  0.0245 -0.0557
 3939W        W 3939   3.109   4.307   9.079  0.1381  0.0944 -0.0234
 3940W        W 3940   5.914   2.900   0.115 -0.0507  0.1899  0.1019
 3941W        W 3941   3.101   7.058   9.495  0.1356 -0.2181  0.1091
 3942W        W 3942   9.226   1.241   5.280  0.1947  0.2650  0.0970
 3943W        W 3943   2.954   3.559   5.897  0.1509  0.1677 -0.1184
 3944W        W 3944   9.385   8.937   9.795 -0.0639 -0.2142 -0.3641
 3945W        W 3945   9.047   2.429   1.692 -0.0069  0.2326 -0.2749
 3946W        W 3946   8.360   9.418   7.355  0.0628  0.2056  0.2608
 3947W        W 3947   5.807   7.726   7.067  0.0952 -0.0724 -0.2381
 3948W        W 3948   9.288   3.332   0.331  0.1314 -0.0213  0.1652
 3949W        W 3949   1.379   2.193   0.459  0.3326  0.0414  0.0572
 3950W        W 3950   3.465   7.942   6.705 -0.1860  0.1801 -0.1807
 3951W        W 3951   0.318   9.078   5.126 -0.1795 -0.0002  0.0746
 3952W        W 3952   8.639   2.561   0.301  0.0799 -0.1076 -0.0813
 3953W        W 3953   2.953   3.213   9.379 -0.1949  0.0396  0.2404
 3954W        W 3954   3.477   2.647   3.475 -0.1792 -0.3016 -0.0064
 3955W        W 3955   1.194   8.614   2.397 -0.1029 -0.1894 -0.2051
 3956W        W 3956   8.906   3.766   3.860  0.0545 -0.3263 -0.2800
 3957W        W 3957   9.437   7.516   6.675 -0.0879 -0.0106  0.2017
 3958W        W 3958   2.882   9.922   7.126  0.4169 -0.0226 -0.0763
 3959W        W 3959   4.190   1.364   9.331  0.2107  0.0785 -0.1931
 3960W        W 3960   1.712   6.499   4.642  0.2251  0.0852  0.2864
 3961W        W 3961   4.877   7.091   0.219 -0.2550  0.1251 -0.0788
 3962W        W 3962   3.330   0.398   0.243 -0.1456 -0.1380  0.2796
 3963W        W 3963   8.951   0.292   7.318 -0.0344  0.0694  0.0171
 3964W        W 3964   2.931   0.699   2.718 -0.2365 -0.2414  0.0120
 3965W        W 3965   9.773   1.867   5.467 -0.3073  0.2495  0.4099
 3966W        W 3966   3.355   8.965   8.089  0.0391  0.4393  0.1950
 3967W        W 3967   5.929   3.867  10.069  0.0374  0.2050 -0.4379
 3968W        W 3968   8.340   4.466   9.549  0.1064  0.2153 -0.1740
 3969W        W 3969   3.826   5.390   1.743  0.1602  0.0888  0.2511
 3970W        W 3970   7.208   4.745  10.331 -0.1456 -0.0397 -0.2001
 3971W        W 3971   3.446   6.463   0.839  0.0530 -0.1431  0.2226
 3972W        W 3972   8.719   5.533   7.499  0.0037  0.1654  0.1438
 3973W        W 3973   1.604  10.322   6.440 -0.0339 -0.0160 -0.1786
 3974W        W 3974   4.825   5.272   7.351 -0.1128 -0.1041  0.1235
 3975W        W 3975   9.010   2.499  10.315 -0.0445 -0.0641  0.3047
 3976W        W 3976   2.980   3.646   8.500  0.0462 -0.0688  0.3480
 3977W        W 3977   6.527   1.134   1.127 -0.2769  0.0405  0.0378
 3978W        W 3978   7.399   3.497   9.077  0.1452 -0.2514  0.0098
 3979W        W 3979   9.416   2.551   3.041 -0.2507 -0.1138  0.1869
 3980W        W 3980   0.226   6.338   5.584  0.1463  0.0826  0.2004
 3981W        W 3981   4.162   9.008   4.165  0.1464 -0.1111  0.0054
 3982W        W 3982   9.467   8.581   4.232 -0.4262  0.0159 -0.2214
 3983W        W 3983   8.832   6.981   1.594  0.0945 -0.0293 -0.1068
 3984W        W 3984   3.872   7.542   2.088  0.1158  0.0094  0.0173
 3985W        W 3985   5.377   6.784   6.445 -0.0049  0.0437 -0.1471
 3986W        W 3986   0.138   1.638   4.262 -0.0323 -0.0472 -0.2083
 3987W        W 3987   6.449   5.927   4.725  0.1795  0.3917 -0.1212
 3988W        W 3988   4.711   8.579   9.585  0.0588 -0.1252  0.1737
 3989W        W 3989   3.268   6.887   5.526  0.0594 -0.1362  0.2516
 3990W        W 3990   0.745   0.166   7.703  0.0304 -0.5554 -0.0108
 3991W        W 3991   6.784   9.837   7.070  0.4605 -0.2751  0.2583
 3992W        W 3992   1.225   4.261   2.342  0.2577 -0.0893  0.3501
 3993W        W 3993   9.844   2.966   6.088  0.1333  0.0721 -0.0022
 3994W        W 3994   7.964   1.013   1.315 -0.1041 -0.0226 -0.1516
 3995W        W 3995   2.005   0.223   0.959  0.0501 -0.0940 -0.0912
 3996W        W 3996   7.198   5.930   6.820  0.0244  0.0822  0.0866
 3997W        W 3997   7.652   5.144   3.126  0.2535 -0.1293 -0.1606
 3998W        W 3998   4.519   6.903   8.122 -0.1401 -0.2652 -0.0232
 3999W        W 3999   4.539   1.844   6.649 -0.1156 -0.1584 -0.2390
 4000W        W 4000   8.615   4.188   1.028 -0.3033  0.1212  0.1426
 4001W        W 4001   3.917   6.667   0.151  0.3092  0.1110  0.1871
 4002W        W 4002   3.872   3.040   8.619  0.0837  0.0195  0.2139
 4003W        W 4003   8.583   9.129   9.319  0.0626  0.1439 -0.5706
 4004W        W 4004   1.830   0.163   8.824 -0.0586  0.3458 -0.1447
 4005W        W 4005   0.381   1.529   5.223 -0.2434 -0.0836 -0.2654
 4006W        W 4006   3.036   3.604   7.060  0.1748  0.1555  0.1578
 4007W        W 4007   3.741   6.027   9.792 -0.4593  0.1468 -0.0593
 4008W        W 4008   2.530   3.541   3.435  0.0354 -0.0678  0.2281
 4009W        W 4009   7.734   5.809   3.054  0.2280 -0.3364 -0.0463
 4010W        W 4010   7.232   3.258   3.595  0.0964 -0.0267 -0.1406
 4011W        W 4011   1.422   3.404   1.240  0.2866 -0.2630 -0.1323
 4012W        W 4012   8.578   3.950   4.473  0.0853 -0.1071 -0.2612
 4013W        W 4013   9.480  10.007   5.544 -0.1325  0.2192  0.1952
 4014W        W 4014   3.472   8.284   3.850  0.1696  0.0786 -0.0190
 4015W        W 4015   7.049   8.271   7.730 -0.0420 -0.0247  0.1624
 4016W        W 4016   2.899   1.008   9.283  0.2915 -0.0615 -0.0408
 4017W        W 4017   8.375   1.914   1.530 -0.3999  0.1976  0.0062
 4018W        W 4018   3.693   6.044   5.242  0.1336  0.2054 -0.0917
 4019W        W 4019   3.532   1.947   6.512  0.2227 -0.1426  0.0754
 4020W        W 4020   4.393   8.106   5.506  0.2761  0.0198  0.1134
 4021W        W 4021   3.635   2.722   9.944  0.0783 -0.0593 -0.2156
 4022W        W 4022   9.392   3.634   6.688 -0.1190 -0.5396 -0.2959
 4023W        W 4023   1.119   1.521   7.673 -0.4066 -0.3013  0.0367
 4024W        W 4024   5.465   0.757   4.145  0.0003  0.1895  0.1738
 4025W        W 4025   4.317   2.047   5.118  0.2914 -0.0965 -0.2435
 4026W        W 4026   2.741   7.408   7.153  0.1325 -0.0902  0.0070
 4027W        W 4027   6.574   5.967   9.254  0.2243 -0.0066  0.2053
 4028W        W 4028   4.704   6.000   2.526  0.2936  0.2111  0.1917
 4029W        W 4029   9.720   0.821   9.222  0.0038  0.0994 -0.1211
 4030W        W 4030   2.431   1.062   4.900  0.1761 -0.2461 -0.0952
 4031W        W 4031   8.061   1.474   0.974  0.2804 -0.0097 -0.2965
 4032W        W 4032   3.802   9.738   2.619 -0.2409 -0.3111  0.0509
 4033W        W 4033   0.260   2.923   2.187  0.2914  0.1213 -0.1278
 4034W        W 4034   5.540   2.505   8.100 -0.0663  0.4488 -0.0858
 4035W        W 4035  10.187   9.046   3.185 -0.1736 -0.3797  0.4512
 4036W        W 4036   8.712   5.657   3.873 -0.1867  0.1532 -0.1221
 4037W        W 4037   4.434   0.370   7.600  0.1564  0.0898  0.0062
 4038W        W 4038   6.161   2.737   9.354  0.0790 -0.0165 -0.0952
 4039W        W 4039   7.057  10.090   1.965 -0.0789  0.0346  0.1436
 4040W        W 4040   2.996   2.096   4.252  0.0425  0.0975  0.0062
 4041W        W 4041   2.787   4.861   3.541  0.2419  0.1949 -0.0684
 4042W        W 4042   9.476   3.895   2.928 -0.1762  0.2726 -0.1980
 4043W        W 4043   3.221   0.307  10.066  0.0681  0.0499 -0.1889
 4044W        W 4044   1.240   2.034   5.581 -0.0948  0.2905  0.1135
 4045W        W 4045   9.401   9.100   0.453  0.2740 -0.0313  0.1779
 4046W        W 4046   7.060   3.769   3.490 -0.3449 -0.0888 -0.1427
 4047W        W 4047   6.180   6.848   6.136 -0.0455  0.3113  0.2487
 4048W        W 4048   8.417   6.699   9.037  0.0256 -0.0120  0.1168
 4049W        W 4049   5.272   3.587   1.172 -0.0234 -0.1490 -0.2568
 4050W        W 4050   1.965   4.507   8.234 -0.0240  0.2194 -0.0383
 4051W        W 4051   5.943   2.526   1.848  0.0555  0.1913 -0.2609
 4052W        W 4052  10.264   7.499   2.362  0.3910 -0.2214  0.0281
 4053W        W 4053   8.904   9.478   5.407  0.0375 -0.0728  0.0202
 4054W        W 4054   9.897   8.420   0.500 -0.0778  0.0868 -0.1940
 4055W        W 4055   6.986   3.387   3.122  0.2271  0.0847 -0.0618
 4056W        W 4056   9.405   3.456   8.019  0.3105  0.2368 -0.1342
 4057W        W 4057   9.474   3.258   5.435 -0.2725 -0.1100  0.1999
 4058W        W 4058   1.827   1.322   9.754 -0.1628  0.0376 -0.1647
 4059W        W 4059   2.219   0.075   7.973  0.2122 -0.2462 -0.2019
 4060W        W 4060   0.116   2.399   4.918 -0.1678  0.1273  0.0447
 4061W        W 4061   1.436   5.909   0.588  0.0542  0.2972 -0.0779
 4062W        W 4062  10.267   9.871   0.651  0.1369 -0.1793 -0.4303
 4063W        W 4063   2.009   2.984   0.015  0.3905 -0.2624 -0.1958
 4064W        W 4064   3.887   8.619   7.663 -0.3570 -0.0331  0.1498
 4065W        W 4065   4.992   7.153   8.002  0.3319  0.2686  0.1021
 4066W        W 4066   5.600   5.314   4.825 -0.1260  0.0367 -0.1149
 4067W        W 4067   7.018   2.161   5.450 -0.0164 -0.0867 -0.0317
 4068W        W 4068   4.461  10.277   0.813  0.1448 -0.0276  0.2012
 4069W        W 4069   7.093   0.196   8.828 -0.2668 -0.0249  0.1364
 4070W        W 4070   1.233   1.538   3.803 -0.4151  0.0839  0.1098
 4071W        W 4071   1.713   1.942   6.540 -0.0316 -0.0423  0.1830
 4072W        W 4072   7.262   7.464   5.089  0.0355 -0.1889 -0.4153
 4073W        W 4073   7.207   0.807   0.972  0.1000 -0.1533 -0.1225
 4074W        W 4074   8.644  10.004   6.769  0.0302  0.1429  0.3725
 4075W        W 4075   9.966  10.254   5.468  0.0418  0.0005  0.1815
 4076W        W 4076   2.267   5.282   9.351  0.0058  0.1227 -0.0077
 4077W        W 4077   6.033   4.970   9.037  0.0344 -0.0068  0.1438
 4078W        W 4078   7.212   9.042   9.439 -0.3945 -0.0474 -0.0267
 4079W        W 4079   7.703   1.312   0.289 -0.4225 -0.0308 -0.1201
 4080W        W 4080   9.505   3.185   7.542 -0.0274 -0.1565  0.1256
 4081W        W 4081   3.939   7.452   7.177  0.1444 -0.0939 -0.3184
 4082W        W 4082   7.824   8.222   4.448  0.0555 -0.0685  0.3427
 4083W        W 4083   9.420   2.662   9.456 -0.0619  0.0714 -0.0557
 4084W        W 4084   6.604  10.003   0.326  0.2522  0.3419  0.1113
 4085W        W 4085   1.845   0.410   1.454  0.0708  0.2531 -0.1461
 4086W        W 4086   8.972   5.088   9.697 -0.0428 -0.1700  0.0907
 4087W        W 4087   8.441   6.418   3.555 -0.1649 -0.0608  0.2277
 4088W        W 4088   5.629   3.393   9.831 -0.2257  0.0354 -0.0022
 4089W        W 4089   1.381   2.235   9.286 -0.0732 -0.1108 -0.1840
 4090W        W 4090   3.834   7.552   5.062  0.1368 -0.1989 -0.0213
 4091W        W 4091   8.984   0.412   5.524 -0.1479  0.0398  0.1030
 4092W        W 4092   3.563   8.843   0.817 -0.5583  0.0515 -0.0740
 4093W        W 4093  10.049   2.788   7.705  0.4971 -0.0955  0.0466
 4094W        W 4094   6.864   4.458   1.078 -0.0368  0.2604 -0.1532
 4095W        W 4095   3.010   6.275   0.499 -0.2480 -0.0211  0.1884
 4096W        W 4096   5.336   6.354   9.315 -0.0321  0.1920  0.0835
 4097W        W 4097   4.504   2.809   0.908 -0.0781 -0.2217  0.1248
 4098W        W 4098   0.922   1.074   9.899  0.0978 -0.1861  0.1230
 4099W        W 4099   2.625   6.528   1.272  0.3002  0.0281  0.1285
 4100W        W 4100   7.102   8.307   2.494  0.0489  0.0496  0.1106
 4101W        W 4101   4.095   9.929   3.866  0.0256  0.0378  0.0855
 4102W        W 4102   4.476   5.975   4.134  0.0532  0.1154  0.0582
 4103W        W 4103   7.580   3.249   6.955  0.4025 -0.3619  0.2035
 4104W        W 4104   6.322   2.537   3.851  0.1161 -0.2031 -0.0515
 4105W        W 4105   0.466   2.357   9.422  0.1813  0.0231 -0.0119
 4106W        W 4106   5.643   0.630   9.101 -0.1788  0.0433 -0.0161
 4107W        W 4107   2.932   0.223   2.908  0.1036 -0.0231  0.1581
 4108W        W 4108   2.800   0.160   1.869  0.1344  0.1857  0.0403
 4109W        W 4109   2.641   1.864   9.837 -0.0755  0.1952  0.0232
 4110W        W 4110   5.539   2.015   4.115  0.2539  0.2195  0.1085
 4111W        W 4111   5.284   1.730   8.738 -0.0689  0.3444 -0.4364
 4112W        W 4112   5.681   0.957   1.555  0.1485 -0.1720 -0.0896
 4113W        W 4113   7.387   8.798   6.674 -0.0163 -0.0766 -0.2345
 4114W        W 4114   8.996   5.991   2.496 -0.3082 -0.0004  0.0224
 4115W        W 4115   8.251   5.900   3.840 -0.2925 -0.0401 -0.0473
 4116W        W 4116   2.059   6.285   7.083  0.2157  0.3327  0.0686
 4117W        W 4117   5.972   6.726   7.177  0.1637 -0.0279 -0.0494
 4118W        W 4118   8.855   5.188   8.494 -0.0310  0.0324  0.0790
 4119W        W 4119   4.926   6.635  10.010  0.0896  0.0494  0.2265
 4120W        W 4120   0.316   0.142   1.690 -0.2854  0.0209  0.2452
 4121W        W 4121   4.478   9.306   0.836  0.2156 -0.0487 -0.0813
 4122W        W 4122  10.219   4.472   3.559 -0.3149 -0.1778  0.3830
 4123W        W 4123   3.479  10.235   0.426 -0.0886 -0.1804  0.0933
 4124W        W 4124   3.839   2.353   9.605  0.0854  0.2092  0.1003
 4125W        W 4125   9.401   5.393   9.478 -0.0484 -0.0408 -0.0572
 4126W        W 4126   7.335   8.716   4.370  0.0006 -0.2240  0.0299
 4127W        W 4127   8.749   1.694   5.367 -0.1433 -0.1155  0.0370
 4128W        W 4128   0.641   3.422   2.635  0.2140  0.1909  0.0451
 4129W        W 4129   7.796   6.913   7.543  0.0525  0.4759 -0.4259
 4130W        W 4130   1.816   8.095   0.754  0.1376 -0.2550  0.1733
 4131W        W 4131   5.425   1.693   0.934 -0.1114 -0.1360 -0.0034
 4132W        W 4132   1.017   5.571   0.551 -0.1163  0.0232  0.0960
 4133W        W 4133  10.238   4.596   8.104  0.2163 -0.1229 -0.0109
 4134W        W 4134   4.119   7.518   9.338 -0.3058  0.0233  0.2550
 4135W        W 4135   9.954   7.842   2.606 -0.0721  0.0694  0.0219
 4136W        W 4136   0.536   6.033   6.282 -0.0486 -0.0414 -0.1952
 4137W        W 4137   8.257   5.231  10.147 -0.2941  0.2267  0.3448
 4138W        W 4138   7.337   5.134   5.631 -0.3275  0.1218 -0.0834
 4139W        W 4139   7.562   2.358  10.038  0.0502  0.0438  0.0847
 4140W        W 4140   1.325   2.623   2.896  0.0388  0.1272 -0.0151
 4141W        W 4141   4.172   6.781   1.572  0.0111  0.0328 -0.2836
 4142W        W 4142   2.460   9.264   5.532  0.0712 -0.0467 -0.0938
 4143W        W 4143   0.283   1.544   1.998  0.1208  0.0941 -0.2603
 4144W        W 4144   8.217   9.575   4.159  0.2599  0.0559 -0.2574
 4145W        W 4145   8.543   2.157   6.992 -0.1862  0.1703 -0.0204
 4146W        W 4146   3.255   0.327   7.676 -0.2623 -0.3290 -0.0337
 4147W        W 4147   1.523   9.810   3.639 -0.1090 -0.0642  0.0729
 4148W        W 4148   7.113   9.769   7.865 -0.1578  0.2983 -0.1169
 4149W        W 4149   1.036   9.630   3.842  0.0853 -0.0766 -0.0155
 4150W        W 4150   6.290   0.092   5.810  0.0395  0.1235 -0.1393
 4151W        W 4151   3.474   1.444   3.922  0.0288  0.1576 -0.0590
 4152W        W 4152   8.432   3.993   9.728  0.0348 -0.1605 -0.1146
 4153W        W 4153   7.313   8.213   4.506  0.0164 -0.0028  0.0360
 4154W        W 4154   1.588   3.256  10.114  0.0951 -0.0607 -0.0877
 4155W        W 4155   6.052   3.558   8.850  0.2126  0.1426  0.2804
 4156W        W 4156   2.813   1.224   6.217 -0.1094  0.0916  0.2150
 4157W        W 4157   2.036   6.731   1.909 -0.2193 -0.2197  0.0700
 4158W        W 4158  10.035   3.932  10.336 -0.5525  0.1239  0.1733
 4159W        W 4159   2.481   6.933   2.062  0.2210  0.2759 -0.1975
 4160W        W 4160   6.358  10.116   7.128  0.0765 -0.2165  0.2314
 4161W        W 4161   6.451   5.944   0.253  0.0963  0.1651  0.1174
 4162W        W 4162   1.661   5.771   7.085  0.5300  0.2673 -0.0078
 4163W        W 4163   2.819   9.588   4.464 -0.1289  0.1352 -0.1648
 4164W        W 4164   0.128   3.231   0.187  0.0359 -0.0111 -0.1649
 4165W        W 4165   2.535   9.233   9.496 -0.1892  0.1697 -0.0793
 4166W        W 4166  10.143   8.540   0.056  0.2042 -0.0139  0.2580
 4167W        W 4167   5.974   4.103   8.709  0.0238 -0.0517 -0.0484
 4168W        W 4168   6.904   2.278   4.228 -0.3897 -0.3511 -0.1244
 4169W        W 4169   9.944   1.134   0.250  0.0316 -0.3619  0.3730
 4170W        W 4170   9.607   4.350   0.098  0.0503  0.1728 -0.2032
 4171W        W 4171   0.961   3.093   4.771 -0.0950 -0.0437 -0.3953
 4172W        W 4172   3.249   1.799   3.790 -0.0103 -0.2622 -0.0575
 4173W        W 4173   6.772   3.584  10.075  0.0385  0.3723  0.0293
 4174W        W 4174   3.005   0.148   8.375  0.0418 -0.0035  0.0763
 4175W        W 4175   0.959   3.673   9.486  0.0732  0.0927  0.2087
 4176W        W 4176   0.037   0.285   5.653 -0.2413 -0.0262 -0.0261
 4177W        W 4177   7.960   8.285   0.113 -0.1322  0.2330  0.1055
 4178W        W 4178   9.702   8.797   0.212  0.1755 -0.0169  0.0087
 4179W        W 4179   1.240   9.112   9.798  0.1716 -0.0779  0.2245
 4180W        W 4180   3.591   9.107   8.564  0.0995  0.0424 -0.2366
 4181W        W 4181   4.707  10.012   3.326 -0.0486 -0.0732 -0.1338
 4182W        W 4182   8.563   9.064   8.481 -0.2898 -0.2799  0.1198
 4183W        W 4183   3.979   3.317   5.659  0.1633 -0.2492  0.0194
 4184W        W 4184   1.110   0.732   2.238  0.1040  0.0812 -0.2519
 4185W        W 4185   4.781   9.240   2.920 -0.1469 -0.0934  0.0065
 4186W        W 4186   0.730   9.424   4.854  0.0783  0.0621 -0.2179
 4187W        W 4187   4.810   2.385   0.874 -0.1187  0.1099  0.2515
 4188W        W 4188   3.878   8.265   7.146  0.0777 -0.1347 -0.3880
 4189W        W 4189   7.816   4.821   8.925 -0.0618  0.2271  0.0249
 4190W        W 4190   7.108   1.874   7.023 -0.3132 -0.2388 -0.0128
 4191W        W 4191   1.265   1.627   4.301 -0.0122  0.2680 -0.0366
 4192W        W 4192   2.906   3.139   6.190  0.1403  0.1653 -0.0430
 4193W        W 4193   7.249   4.106   0.995 -0.1622 -0.1847  0.1506
 4194W        W 4194   0.525   3.285   3.965 -0.5641 -0.2573  0.1377
 4195W        W 4195   8.058   2.742   1.905  0.2743  0.1055  0.1079
 4196W        W 4196   0.371   6.468   4.162  0.0710  0.3095  0.1191
 4197W        W 4197   7.476   3.816   1.354  0.0302 -0.0242  0.0004
 4198W        W 4198   5.115   1.794   1.701  0.0381 -0.0601  0.1261
 4199W        W 4199   1.755   0.106   5.440 -0.0527 -0.0234  0.1661
 4200W        W 4200   0.491   0.607   8.179  0.0480 -0.1242 -0.2355
 4201W        W 4201   2.639   2.535   9.709  0.1313  0.0549  0.2722
 4202W        W 4202   3.949   6.782   2.006  0.0356 -0.1288  0.0191
 4203W        W 4203   3.275   2.519   1.868  0.1631  0.2453  0.0304
 4204W        W 4204   8.190   1.932   6.685 -0.0588  0.2073 -0.2349
 4205W        W 4205   7.553   7.030   2.949  0.2706  0.2044  0.1056
 4206W        W 4206   0.473   5.047   9.643 -0.0368  0.1804 -0.2730
 4207W        W 4207   7.636   3.020   1.837  0.1724  0.0656 -0.0991
 4208W        W 4208   2.201   5.539   8.932 -0.0571  0.3909 -0.1671
 4209W        W 4209   1.695   2.554   1.505 -0.0670  0.0679 -0.2156
 4210W        W 4210   3.256   5.887   9.586 -0.0047 -0.1518  0.3869
 4211W        W 4211   6.740   0.253   4.385 -0.1216 -0.0916  0.1828
 4212W        W 4212   9.682   4.181   6.019 -0.1781  0.1068  0.1429
 4213W        W 4213   4.275   3.097   6.129  0.1895 -0.0570 -0.1710
 4214W        W 4214   9.953  10.234   8.355 -0.2134 -0.2456  0.0539
 4215W        W 4215   3.101   4.103   9.588 -0.2700 -0.1142 -0.0223
 4216W        W 4216   6.169   9.487   8.903 -0.1410 -0.1281 -0.1667
 4217W        W 4217   5.877   8.450   6.303  0.2390 -0.1452 -0.1805
 4218W        W 4218   0.816   6.627   0.712 -0.3008 -0.1201  0.3695
 4219W        W 4219   7.673   7.302   0.820 -0.1542  0.0776  0.0484
 4220W        W 4220   9.627   5.902   0.913 -0.0378 -0.3153 -0.0015
 4221W        W 4221   0.616   3.877   6.772 -0.1640 -0.1166  0.2166
 4222W        W 4222   1.659   5.804   5.355  0.2984  0.0726  0.4157
 4223W        W 4223   6.595   2.008   7.117 -0.2083  0.2086  0.3598
 4224W        W 4224   0.956   9.368   7.220 -0.1351  0.3022 -0.1011
 4225W        W 4225   9.343   5.930   9.662 -0.1291  0.1462  0.2865
 4226W        W 4226   1.464   2.756   4.888 -0.2220  0.2233 -0.1644
 4227W        W 4227   8.440   6.979   8.377  0.3773 -0.0028  0.0008
 4228W        W 4228   4.185  10.092   1.177 -0.2422 -0.1024 -0.1004
 4229W        W 4229   6.698   7.997   0.100  0.1900  0.0162 -0.2199
 4230W        W 4230   4.538   4.275   1.062 -0.3692 -0.1719  0.1460
 4231W        W 4231   7.621   6.056   1.170 -0.0013 -0.0795  0.4425
 4232W        W 4232   8.991   8.925   7.703 -0.0651  0.3421  0.0342
 4233W        W 4233   3.785   3.236   0.938  0.1258 -0.0774 -0.1602
 4234W        W 4234   7.524   0.623   1.368 -0.0931 -0.2712  0.1439
 4235W        W 4235   7.080   3.307   6.572 -0.0745  0.1475 -0.1568
 4236W        W 4236   5.629   4.390   2.367 -0.0854  0.2131  0.2221
 4237W        W 4237   3.031   2.848   0.753  0.0134  0.1434  0.2528
 4238W        W 4238   3.536   0.027   8.337 -0.1456  0.0735 -0.0283
 4239W        W 4239   9.759   3.939   4.848  0.1015 -0.0481  0.0233
 4240W        W 4240   3.424   2.140   3.403 -0.0603  0.3530 -0.2355
 4241W        W 4241   3.628   4.092   1.270 -0.2111 -0.2074 -0.0101
 4242W        W 4242   7.780   6.313  10.258 -0.1576  0.2343 -0.0850
 4243W        W 4243   9.408   1.154   0.323 -0.1194  0.2725  0.2914
 4244W        W 4244   9.717   0.405   4.456  0.0086 -0.0569 -0.1067
 4245W        W 4245   2.971   2.162   4.845  0.0838 -0.1083  0.2271
 4246W        W 4246   3.946  10.096   2.923 -0.1679 -0.0066  0.2250
 4247W        W 4247   3.104   4.554   3.308 -0.0118  0.1776  0.0014
 4248W        W 4248   0.543  10.250   1.129 -0.0334 -0.0999  0.0600
 4249W        W 4249   1.934   7.194   9.523 -0.0975  0.1837 -0.0363
 4250W        W 4250   7.323   7.679   5.595  0.4061  0.0846 -0.0061
 4251W        W 4251   3.035   7.726   7.443 -0.0452  0.2781  0.4052
 4252W        W 4252   2.958   8.034   9.629 -0.0432  0.0523 -0.1668
 4253W        W 4253   0.698   0.430   6.352 -0.2817  0.0623 -0.4347
 4254W        W 4254   0.016   5.633  10.343 -0.1110  0.0151 -0.1319
 4255W        W 4255   8.668   0.286   1.445  0.2578 -0.2081  0.0539
 4256W        W 4256   6.371   4.755   1.244  0.0448  0.0576  0.0625
 4257W        W 4257   7.368   0.954   3.675 -0.0474 -0.0753  0.0909
 4258W        W 4258   2.351   3.930   0.885 -0.0640  0.0121  0.1964
 4259W        W 4259   8.208   0.687   4.054 -0.0688  0.2107 -0.3646
 4260W        W 4260   3.685   3.268   4.978 -0.1997 -0.0455 -0.0139
 4261W        W 4261   9.635   9.723  10.146  0.1295  0.0743 -0.0165
 4262W        W 4262   3.492   5.673   3.044 -0.0864 -0.0364 -0.1869
 4263W        W 4263   0.442   0.214   6.813 -0.0769  0.2200 -0.2478
 4264W        W 4264   7.467   4.391   7.168 -0.2322  0.0050 -0.0462
 4265W        W 4265   3.575   1.536   1.832 -0.3025  0.1969 -0.0613
 4266W        W 4266   8.992   0.102   2.972  0.1779 -0.0170  0.0913
 4267W        W 4267   1.633   7.026   0.171 -0.1355 -0.2775 -0.0915
 4268W        W 4268   4.881   0.101   3.252 -0.0497  0.2605 -0.3319
 4269W        W 4269   6.320   3.554   1.008 -0.1911  0.0665 -0.0761
 4270W        W 4270   8.106   3.384   6.640  0.1692  0.1255  0.0261
 4271W        W 4271   9.358   9.589   9.467  0.1957 -0.1075  0.1444
 4272W        W 4272   0.462   4.606  10.026  0.1322 -0.0571 -0.4027
 4273W        W 4273   1.764   6.940   9.920 -0.0626 -0.1434  0.1647
 4274W        W 4274   9.395   9.913   9.130  0.1468 -0.2430 -0.2311
 4275W        W 4275   0.162   2.098   3.343  0.0072  0.3580  0.1685
 4276W        W 4276   7.082   2.496   9.024  0.4783 -0.1184  0.0275
 4277W        W 4277   3.651   1.031   7.040  0.4372 -0.0282 -0.2907
 4278W        W 4278   9.029   6.713   4.175 -0.2462 -0.0009 -0.0107
 4279W        W 4279   8.038   4.357   0.316  0.3992 -0.0632  0.2393
 4280W        W 4280   0.750   2.219   1.480 -0.1061 -0.0983 -0.2832
 4281W        W 4281   9.955   4.113   9.732  0.4940  0.0554  0.0073
 4282W        W 4282   3.368   6.523   0.202 -0.2574  0.1649 -0.0573
 4283W        W 4283   8.226   1.409   0.216  0.0787 -0.0452 -0.2082
 4284W        W 4284   0.989   9.802   5.106 -0.0732  0.0440 -0.0379
 4285W        W 4285   5.707   8.389   4.908 -0.1225  0.0858  0.0555
 4286W        W 4286   6.885   7.806   2.891  0.1150 -0.4138 -0.3469
 4287W        W 4287   4.692   6.152   6.382  0.1463 -0.0114 -0.0851
 4288W        W 4288   9.242   8.588   8.094 -0.2782 -0.1869  0.0091
 4289W        W 4289   8.666   8.738  10.127 -0.2068 -0.0207  0.2520
 4290W        W 4290   5.192   6.422   8.411 -0.0304 -0.0939 -0.1750
 4291W        W 4291   4.194   7.800   1.179  0.2323  0.0901  0.4231
 4292W        W 4292   7.161   9.319   4.846 -0.2039  0.0275  0.0916
 4293W        W 4293   3.841   3.670   5.348 -0.3688 -0.0808  0.1438
 4294W        W 4294   8.767   6.226   3.960 -0.2006  0.1052  0.1714
 4295W        W 4295   3.224   8.166   7.273  0.2980 -0.1274  0.0024
 4296W        W 4296   7.652   3.608   6.650 -0.0962 -0.0154 -0.0025
 4297W        W 4297   2.267   2.889   2.709  0.0862 -0.0084 -0.2509
 4298W        W 4298   3.613   7.826   7.229  0.1231 -0.1779 -0.2741
 4299W        W 4299   2.242   7.548   2.127 -0.3209 -0.0594 -0.1850
 4300W        W 4300   6.178   8.277   2.179 -0.0511 -0.3180  0.0094
 4301W        W 4301   2.493   7.248   2.439 -0.0336 -0.4077  0.1364
 4302W        W 4302   5.288   8.344   7.544 -0.1044  0.0918  0.0534
 4303W        W 4303  10.164   5.575   3.968 -0.0105  0.1085 -0.0417
 4304W        W 4304   5.965   8.546   8.664  0.1075 -0.3732 -0.1376
 4305W        W 4305   1.698   0.217   1.996  0.1406  0.2390 -0.1934
 4306W        W 4306   2.439   8.953   8.385 -0.0543 -0.0188 -0.0384
 4307W        W 4307   3.521   2.532   7.876  0.3144 -0.0115 -0.2136
 4308W        W 4308   5.137   2.591  10.320  0.0156 -0.2886 -0.0099
 4309W        W 4309   7.693   9.209   3.458 -0.0002 -0.0591 -0.2242
 4310W        W 4310   7.473   1.312   2.196 -0.2893  0.1434 -0.0886
 4311W        W 4311   7.229   2.864   8.431 -0.0751 -0.1247 -0.0265
 4312W        W 4312   9.407   9.775   4.714 -0.0185 -0.2202  0.0023
 4313W        W 4313   3.422   3.197   5.944  0.0145  0.0515 -0.1918
 4314W        W 4314   1.780   7.550   0.586 -0.1047 -0.1317  0.1503
 4315W        W 4315   7.870   6.619   9.047  0.1849  0.0387  0.1654
 4316W        W 4316   0.115   5.013   4.451  0.1556 -0.1212  0.1210
 4317W        W 4317   8.006   8.131   8.293 -0.1697 -0.1536 -0.0939
 4318W        W 4318   5.853   1.267   2.892  0.1896 -0.0562 -0.1679
 4319W        W 4319   1.057   0.414   0.430 -0.0306  0.0239 -0.1220
 4320W        W 4320   8.805   1.202   4.483 -0.1998  0.1131 -0.1839
 4321W        W 4321   0.491   2.112   0.813  0.0218  0.0373 -0.0708
 4322W        W 4322   8.925   1.122   0.438 -0.2478 -0.0842 -0.1705
 4323W        W 4323   8.636   9.933   9.829  0.0591 -0.0833 -0.4504
 4324W        W 4324   8.511   3.558   2.634 -0.0755  0.2628  0.0150
 4325W        W 4325   8.201   6.833   4.424  0.0474  0.2125  0.2722
 4326W        W 4326   7.164   2.932   2.232 -0.0617  0.1205  0.0553
 4327W        W 4327   2.964   8.081   2.465  0.0046 -0.2310 -0.1561
 4328W        W 4328   3.346   0.763   2.044  0.1312  0.0317 -0.0556
 4329W        W 4329   9.829   3.908   6.417 -0.0874 -0.0549  0.0060
 4330W        W 4330   5.284   6.728   0.095 -0.1610 -0.0796 -0.0423
 4331W        W 4331   2.493   6.412   4.727 -0.2197  0.1464  0.0920
 4332W        W 4332   4.849   6.301   4.226  0.1687 -0.1599 -0.1279
 4333W        W 4333   9.909   8.779   4.502  0.0369  0.1437 -0.2009
 4334W        W 4334   7.114   4.937   9.800 -0.2402  0.4036 -0.0261
 4335W        W 4335   3.335   1.710   5.468  0.2949  0.1313  0.1412
 4336W        W 4336   9.811   6.643   2.419 -0.2907  0.0177  0.0295
 4337W        W 4337   7.641   2.973   4.150  0.0066  0.0215  0.1180
 4338W        W 4338   5.764   3.478   2.822  0.0390 -0.0908 -0.2255
 4339W        W 4339   2.275   6.141   3.087 -0.1986 -0.0076  0.1148
 4340W        W 4340   8.152   3.167   7.367  0.1194 -0.0250  0.2620
 4341W        W 4341   9.291   5.367   5.732 -0.3432 -0.2391  0.0776
 4342W        W 4342   8.675   2.581   3.564 -0.0631 -0.1477 -0.2506
 4343W        W 4343   0.782   7.799   9.093 -0.2001 -0.1794 -0.0587
 4344W        W 4344   2.804   8.742   9.613  0.0852 -0.1494  0.1157
 4345W        W 4345   7.741   9.017   9.244 -0.0106 -0.0285 -0.2113
 4346W        W 4346   2.989   0.171   7.209  0.2257 -0.2609 -0.1152
 4347W        W 4347   7.845   5.426   1.100 -0.0357  0.1699  0.2940
 4348W        W 4348   3.002   8.568   1.498 -0.0196  0.3169  0.3326
 4349W        W 4349   1.133   8.742   3.010  0.1535 -0.1096 -0.1425
 4350W        W 4350   9.701   5.502   8.332  0.3713 -0.0123 -0.2048
 4351W        W 4351   9.798   6.407   0.805  0.0666  0.2921  0.0994
 4352W        W 4352   7.790   2.131   0.695  0.1452  0.3605 -0.0020
 4353W        W 4353   0.942   1.076   4.295  0.2596  0.2349 -0.0265
 4354W        W 4354   7.978   1.228   4.944 -0.0580  0.2421  0.1350
 4355W        W 4355  10.204   1.108   3.258 -0.1414  0.0391  0.1152
 4356W        W 4356   8.006   9.050   5.371  0.1516 -0.3158  0.0725
 4357W        W 4357   2.588   9.375   7.048 -0.1409 -0.0979 -0.0194
 4358W        W 4358   0.581   9.117   9.592 -0.4053  0.3039  0.0270
 4359W        W 4359   4.005   5.890   0.159 -0.0368 -0.3405  0.0976
 4360W        W 4360   2.432   3.687   7.785  0.1023  0.1578 -0.1446
 4361W        W 4361   4.780   2.153   2.290 -0.2573 -0.3018 -0.0197
 4362W        W 4362   3.386   4.918   2.400 -0.0302 -0.0992 -0.2271
 4363W        W 4363   2.852   6.885   6.991 -0.1349  0.0185  0.0831
 4364W        W 4364   4.627   5.320   1.602  0.1492  0.0239 -0.1423
 4365W        W 4365   3.686   4.433   6.369  0.5155  0.0330  0.0334
 4366W        W 4366   3.580   2.087   0.656 -0.0564  0.1454 -0.3048
 4367W        W 4367  10.072   0.493   2.512 -0.0751  0.0647 -0.0773
 4368W        W 4368   3.209   9.045   6.249 -0.0196 -0.0286 -0.0705
 4369W        W 4369   3.290   7.246   1.496  0.0180 -0.1529  0.1194
 4370W        W 4370   8.432   3.740   8.046  0.2227 -0.1849 -0.0069
 4371W        W 4371   9.650   0.402   7.672 -0.0244  0.0181 -0.2966
 4372W        W 4372   0.279   7.867   9.390 -0.2226 -0.1249 -0.1296
 4373W        W 4373   5.327   0.399   5.260 -0.1222  0.2442 -0.1700
 4374W        W 4374   7.701   1.933   4.243 -0.2236  0.2163  0.1100
 4375W        W 4375   4.006   2.815   1.092 -0.1768 -0.1916 -0.2993
 4376W        W 4376   7.128   8.533   1.305 -0.1331 -0.0881 -0.0654
 4377W        W 4377   5.109   9.618   2.993  0.0965 -0.2270  0.1347
 4378W        W 4378   9.840  10.113   8.923  0.0634 -0.0233 -0.0498
 4379W        W 4379   3.626   1.461   3.407  0.0227  0.2224 -0.0399
 4380W        W 4380   8.431   9.155   3.050 -0.0362  0.0904 -0.0719
 4381W        W 4381   9.315   2.931   0.767  0.1607  0.3292 -0.1774
 4382W        W 4382   3.108   4.779   7.712 -0.2426  0.1013 -0.0877
 4383W        W 4383   4.653   0.964   1.335 -0.0553  0.0767  0.0851
 4384W        W 4384   2.772   0.875   6.926 -0.1581  0.4257 -0.3485
 4385W        W 4385   7.648   8.296   2.576  0.1550  0.1184  0.0582
 4386W        W 4386   0.118   5.290   6.325 -0.3369  0.0587 -0.0988
 4387W        W 4387   0.688   2.840   8.731  0.0163  0.1711  0.1982
 4388W        W 4388   9.566   2.489   4.686 -0.4006 -0.0460  0.0126
 4389W        W 4389   0.992   6.248   6.448  0.3493 -0.0769 -0.0140
 4390W        W 4390   9.246   8.638   3.595 -0.2323  0.0441 -0.0517
 4391W        W 4391   9.476   5.800   9.182 -0.1518  0.1201  0.2548
 4392W        W 4392   0.161   0.622   8.760  0.0870  0.1461 -0.2266
 4393W        W 4393   2.987   2.516   0.283 -0.2482 -0.2216  0.0894
 4394W        W 4394   8.945   0.938   8.523  0.2844  0.2778 -0.2986
 4395W        W 4395  10.271   8.063   3.402  0.1202  0.2035  0.1476
 4396W        W 4396   6.554   8.656   2.582 -0.2299  0.1648 -0.1801
 4397W        W 4397   2.967   6.580   3.059  0.1238 -0.2060  0.1632
 4398W        W 4398   8.798   0.557   3.661 -0.0306 -0.1657  0.2353
 4399W        W 4399   2.934   6.687   0.896 -0.2243  0.0210  0.0798
 4400W        W 4400   1.116   0.668   9.396  0.0094 -0.3480  0.2076
 4401W        W 4401   2.153   7.699   1.532 -0.0460  0.1160  0.5484
 4402W        W 4402   1.767   5.256   9.544 -0.1341  0.3329  0.0087
 4403W        W 4403   6.942   0.451   2.003  0.2031  0.0894  0.1968
 4404W        W 4404  10.069   5.575   6.448  0.0765  0.2265 -0.1808
 4405W        W 4405   0.581   9.450   5.338  0.3936  0.0124  0.3245
 4406W        W 4406   5.216   9.186   5.856  0.0025  0.2161 -0.1887
 4407W        W 4407   7.839   7.016   2.483 -0.1798 -0.3087 -0.2103
 4408W        W 4408   9.446   8.764   7.629  0.1223  0.0116 -0.2873
 4409W        W 4409   2.917  10.007   1.628  0.1836 -0.1177  0.0462
 4410W        W 4410   9.391   2.800   1.262  0.0503  0.1675 -0.1330
 4411W        W 4411   6.210   4.141   3.663 -0.0263  0.0187  0.0020
 4412W        W 4412   9.992   7.909   4.893 -0.0941 -0.0020 -0.0183
 4413W        W 4413   7.119   3.210   0.593 -0.1942 -0.0244  0.0011
 4414W        W 4414   2.611   7.826   6.181  0.1041  0.3241 -0.1359
 4415W        W 4415   9.180   3.008   9.057  0.1899 -0.0400  0.1570
 4416W        W 4416   5.744  10.316   3.558  0.0933  0.0082  0.1140
 4417W        W 4417   2.849   6.422   5.049 -0.2101  0.0689 -0.0368
 4418W        W 4418   4.213   2.630   8.734  0.1053  0.0373  0.1011
 4419W        W 4419   7.854   3.173   0.097  0.3896 -0.0463 -0.2100
 4420W        W 4420   2.085   9.307   7.205  0.0568  0.2795 -0.3705
 4421W        W 4421   2.914   1.510   0.430  0.2126  0.2029  0.2406
 4422W        W 4422   9.902   6.730   7.887  0.1629  0.0840 -0.0882
 4423W        W 4423   9.881   8.827   1.814 -0.0538  0.0010  0.0473
 4424W        W 4424   3.821   6.735   3.675  0.1871 -0.3363  0.3006
 4425W        W 4425   4.164   8.185   4.493 -0.2471  0.0571 -0.4304
 4426W        W 4426   1.955   3.437   1.179 -0.0503  0.3827  0.0243
 4427W        W 4427   5.123  10.297   9.505 -0.0659 -0.0162  0.0185
 4428W        W 4428   0.146   1.977   8.708 -0.1292  0.0309 -0.1545
 4429W        W 4429   9.007   4.819   7.653  0.1830 -0.1948  0.0793
 4430W        W 4430   0.486   7.320   3.897  0.0248 -0.2515 -0.1261
 4431W        W 4431   8.419   0.752   2.198  0.1176 -0.1021 -0.1544
 4432W        W 4432   4.160   9.829   5.909 -0.0385 -0.2898  0.3683
 4433W        W 4433   6.791   2.737   3.954 -0.2886 -0.0850  0.1877
 4434W        W 4434   4.963   4.207   4.231  0.2754  0.3290  0.0565
 4435W        W 4435   2.040  10.302   4.512 -0.0094  0.1324 -0.0961
 4436W        W 4436   8.160   6.450   5.782 -0.0265  0.0847  0.2116
 4437W        W 4437   5.914   2.097   0.214 -0.1887  0.2473  0.1955
 4438W        W 4438   7.536   2.603   2.116  0.0859  0.0950  0.0881
 4439W        W 4439   8.507   6.479   8.608  0.5209 -0.1240  0.0140
 4440W        W 4440   6.879  10.167   1.409 -0.0798 -0.2908  0.0822
 4441W        W 4441   4.729   8.029   3.752  0.0583 -0.0783 -0.4290
 4442W        W 4442   6.117   6.505   9.963  0.1278  0.0029  0.0887
 4443W        W 4443   3.092   6.936   0.003  0.1808  0.0447 -0.0257
 4444W        W 4444   9.644   6.685   8.731 -0.0190 -0.2789 -0.0801
 4445W        W 4445   1.220   0.759   5.328  0.1551 -0.1439  0.0257
 4446W        W 4446   2.714   2.938   5.253 -0.1404  0.1302 -0.3170
 4447W        W 4447   2.218   9.835   0.399  0.2012  0.0329 -0.1274
 4448W        W 4448   8.955   9.140   4.798 -0.0208 -0.0681 -0.4122
 4449W        W 4449   3.522   6.881   7.612  0.0921  0.1912 -0.1450
 4450W        W 4450   3.099   1.734   1.480  0.2052 -0.0604 -0.0068
 4451W        W 4451   8.714   5.454   0.037 -0.1928 -0.0379  0.0426
 4452W        W 4452   8.281   8.755   0.313  0.2970  0.0032  0.2098
 4453W        W 4453   9.289   4.175   2.539  0.1617 -0.0003  0.1843
 4454W        W 4454   6.329   6.874   0.578 -0.0149  0.1534  0.2400
 4455W        W 4455   3.849   9.542   9.669  0.0620 -0.0716 -0.1173
 4456W        W 4456   8.751   2.153   5.515 -0.1253  0.0504  0.0832
 4457W        W 4457   6.306   4.057   7.951  0.0701  0.2510 -0.2483
 4458W        W 4458   2.417   5.817   0.681 -0.0615  0.0096 -0.3280
 4459W        W 4459   2.620   5.846   3.928 -0.0321 -0.2059  0.4985
 4460W        W 4460   7.827   1.232   3.462 -0.1230  0.0603  0.1305
 4461W        W 4461   9.015   6.812   1.093  0.0479  0.1719  0.1135
 4462W        W 4462   5.030   1.559   9.212  0.0989 -0.0292  0.1322
 4463W        W 4463   7.422   9.243   7.016 -0.0450  0.0744 -0.0032
 4464W        W 4464   8.548   8.501   8.563  0.0148  0.0215 -0.0285
 4465W        W 4465   9.372   2.283   8.464  0.0484 -0.0123  0.0893
 4466W        W 4466   1.766   3.504   4.512  0.5526  0.0660  0.2107
 4467W        W 4467   3.284   7.094   0.962 -0.1327  0.2586  0.0259
 4468W        W 4468   5.924   4.518   0.312  0.1309  0.0176 -0.1130
 4469W        W 4469   0.148   3.673  10.245 -0.1713  0.0171  0.0439
 4470W        W 4470   9.301   2.355   7.307 -0.2559 -0.0803  0.1630
 4471W        W 4471   3.294   0.874   8.417  0.0967  0.0503 -0.0565
 4472W        W 4472   9.536   5.439   1.066  0.1604  0.0610 -0.3330
 4473W        W 4473   3.449   2.906   8.261 -0.0582 -0.0314  0.1287
 4474W        W 4474   4.876   7.557   6.557  0.0582  0.3932  0.0254
 4475W        W 4475   9.375   5.157   8.497  0.1313  0.0893  0.3332
 4476W        W 4476   0.224   8.297   4.351  0.2249  0.3050 -0.0971
 4477W        W 4477   1.132  10.282   1.270  0.1232  0.2328  0.3085
 4478W        W 4478   3.596   7.067   4.712 -0.1858  0.3766  0.0219
 4479W        W 4479   5.920   7.066   2.043 -0.0033  0.2978 -0.0166
 4480W        W 4480   7.783   9.463   6.669  0.0094 -0.1388 -0.2235
 4481W        W 4481   0.154   5.980   7.486 -0.3152 -0.0993 -0.0341
 4482W        W 4482   5.917   7.360   5.812  0.2444  0.0323  0.2080
 4483W        W 4483   7.839   0.848   9.994 -0.2245 -0.1485 -0.2009
 4484W        W 4484   1.251   2.536   4.099 -0.1186 -0.0119  0.0135
 4485W        W 4485   5.729   2.495   4.911  0.3361 -0.0160 -0.1915
 4486W        W 4486   9.715   9.784   8.506  0.1100  0.1918 -0.0505
 4487W        W 4487   9.726   9.340   9.826 -0.0729  0.0774 -0.1561
 4488W        W 4488   5.853   9.932   1.041 -0.0947 -0.2205  0.3250
 4489W        W 4489   2.944   3.756   7.516  0.0031 -0.0678 -0.0165
 4490W        W 4490   2.114   0.301   6.346  0.2274  0.1954  0.1733
 4491W        W 4491   8.188   6.320   4.943 -0.0581  0.2083  0.1897
 4492W        W 4492   4.437   9.613   8.910  0.1744 -0.0572  0.0799
 4493W        W 4493   5.049   1.644   4.731 -0.0322 -0.1224  0.0161
 4494W        W 4494   6.671   7.670   0.656 -0.3060  0.1387  0.1272
 4495W        W 4495   3.509   9.058   7.650  0.1219  0.1671  0.0322
 4496W        W 4496   4.619   9.517   9.378 -0.1134  0.0162  0.0095
 4497W        W 4497   3.617   5.178   4.108  0.1610 -0.2412  0.0414
 4498W        W 4498   6.137   1.660   2.161  0.0530 -0.0804 -0.0336
 4499W        W 4499   4.632   4.858   7.567  0.2641 -0.0907 -0.1579
 4500W        W 4500   1.039   7.928   7.229  0.1774  0.3832 -0.1486
 4501W        W 4501   9.304   7.425   5.910 -0.1735  0.3613 -0.2361
 4502W        W 4502   0.553   9.961   5.359  0.0572  0.1548  0.2012
 4503W        W 4503  10.168   9.768   8.659 -0.1606  0.3372  0.1530
 4504W        W 4504  10.043   2.949   3.738 -0.1003  0.0238  0.2744
 4505W        W 4505   2.297   7.800   7.519  0.1876  0.1224  0.2559
 4506W        W 4506   6.377   6.890   2.158 -0.2005 -0.2074 -0.2988
 4507W        W 4507   7.680   6.143   1.681 -0.0899  0.1189 -0.3251
 4508W        W 4508   7.440   9.467   0.275  0.6662 -0.3951 -0.1714
 4509W        W 4509   9.879   6.406   9.919  0.3012 -0.0716  0.1398
 4510W        W 4510   1.333   9.740   9.996 -0.2990 -0.3656  0.3539
 4511W        W 4511   9.200   8.923  10.289  0.0586  0.0264 -0.1386
 4512W        W 4512   1.352   1.093   6.023  0.0552  0.2757  0.0769
 4513W        W 4513   8.817   3.777   7.724  0.0236  0.1690 -0.0614
 4514W        W 4514   0.040   6.284   7.103 -0.0761 -0.0758  0.4489
 4515W        W 4515   2.902   7.146   1.825  0.2110  0.0784  0.1979
 4516W        W 4516   7.784   4.667   2.350  0.2925  0.3128  0.4489
 4517W        W 4517   3.006   5.275   5.969  0.1146  0.0109  0.0303
 4518W        W 4518   1.405   6.218   1.849  0.0890 -0.0317 -0.0810
 4519W        W 4519   4.936   7.451   7.017 -0.0248  0.0112  0.2530
 4520W        W 4520   3.543   7.453   7.550 -0.0576  0.3009 -0.1075
 4521W        W 4521   3.681   5.388   9.139  0.2995  0.0380 -0.1143
 4522W        W 4522  10.174   7.762  10.124 -0.2776  0.2335  0.0424
 4523W        W 4523   8.978   0.895   8.026  0.0897  0.2011 -0.1865
 4524W        W 4524   3.187   5.698   2.385  0.3269 -0.0394 -0.2370
 4525W        W 4525   4.928   0.040   0.952  0.0643 -0.0524 -0.0521
 4526W        W 4526   0.060   6.955   5.019  0.0357  0.0012  0.1703
 4527W        W 4527   6.200   5.525   7.330 -0.0320  0.1541  0.1181
 4528W        W 4528   4.182   1.516   2.449  0.0852 -0.0490 -0.0275
 4529W        W 4529   1.045   0.871   1.390 -0.3006  0.1421  0.1013
 4530W        W 4530   3.193   9.189   8.883  0.0707 -0.0935 -0.0377
 4531W        W 4531  10.147   3.572   6.243  0.0426 -0.1755 -0.0262
 4532W        W 4532   9.685   5.047   0.749  0.1247 -0.0424 -0.1043
 4533W        W 4533   4.759   9.984   9.320  0.2154  0.0240 -0.3939
 4534W        W 4534   8.134   4.034  10.195  0.5688  0.0926 -0.1482
 4535W        W 4535   3.707   3.258   2.709  0.1420 -0.1319 -0.0648
 4536W        W 4536   0.016   2.737   4.072  0.0056 -0.0457 -0.1516
 4537W        W 4537   5.465   1.652   3.784  0.1173  0.0862  0.2735
 4538W        W 4538   5.020   6.874   4.347 -0.2186  0.0736  0.2514
 4539W        W 4539   2.547   7.219   6.399 -0.0185 -0.3380  0.0978
 4540W        W 4540   2.201   5.976   2.037  0.1271 -0.0651  0.0791
 4541W        W 4541   6.240   5.391   2.391 -0.1352  0.0565  0.0495
 4542W        W 4542   0.123   3.373   8.329  0.0404 -0.1120 -0.1768
 4543W        W 4543   0.736   9.321   6.234  0.2313 -0.2461 -0.1013
 4544W        W 4544   1.759   5.809   4.379  0.1517  0.0076 -0.2565
 4545W        W 4545   4.399  10.181   9.730  0.3204 -0.0181  0.2990
 4546W        W 4546   5.001  10.119   7.239  0.2804 -0.0817  0.4128
 4547W        W 4547   3.286   0.300   0.818  0.2287  0.1070  0.0820
 4548W        W 4548   5.851   4.828   5.003  0.0789  0.0290 -0.3168
 4549W        W 4549   0.553   0.737   2.399 -0.0236  0.2626 -0.0242
 4550W        W 4550   4.529   5.965   1.602  0.1559 -0.1657 -0.4806
 4551W        W 4551   1.979   3.960   3.703 -0.0067 -0.0117  0.0099
 4552W        W 4552   4.018   7.700   5.478  0.0898  0.0413 -0.2490
 4553W        W 4553   7.498   6.781   0.023 -0.3296  0.1563  0.2401
 4554W        W 4554   8.724   7.090   9.294  0.0488 -0.1661 -0.2705
 4555W        W 4555   4.142   6.663   8.510  0.1198  0.0797  0.0302
 4556W        W 4556   1.056   1.804   8.504  0.0879  0.2005 -0.1590
 4557W        W 4557   4.773  10.292   1.801  0.1792 -0.0466 -0.0932
 4558W        W 4558   5.373   2.607   4.496  0.6011  0.0775  0.0117
 4559W        W 4559   5.639   4.797   7.156 -0.0570  0.0830  0.1681
 4560W        W 4560   7.493   7.097   9.921  0.0413  0.3555  0.2640
 4561W        W 4561   7.105   7.730   4.145  0.0155  0.0361  0.1460
 4562W        W 4562   3.531   5.017   9.647 -0.3804 -0.1426  0.4827
 4563W        W 4563   3.531   1.764  10.160 -0.0101  0.1982  0.4142
 4564W        W 4564   7.928   8.089   5.137 -0.0631 -0.1019  0.0230
 4565W        W 4565   8.657   7.639   1.732  0.0174  0.1712 -0.0243
 4566W        W 4566   4.929   8.868   2.551 -0.0987 -0.1076  0.2081
 4567W        W 4567   1.762   7.776   7.521 -0.0032  0.0584 -0.0115
 4568W        W 4568   4.793   9.830   4.633  0.1448 -0.1937 -0.0918
 4569W        W 4569   3.923   2.278   6.516  0.1244  0.0295  0.1731
 4570W        W 4570   6.102   9.144   5.903 -0.1782 -0.3065 -0.1812
 4571W        W 4571   3.963   9.373   2.160  0.0278  0.4759  0.2987
 4572W        W 4572  10.214   9.505   7.600  0.2681  0.2562  0.2316
 4573W        W 4573   1.958   8.896   4.632 -0.2953 -0.0407 -0.0293
 4574W        W 4574   7.948   8.322   1.691 -0.0700 -0.0206  0.0271
 4575W        W 4575   7.942   8.044   2.161 -0.0927  0.0452 -0.2453
 4576W        W 4576   7.714   9.480   1.825 -0.5684  0.2925 -0.1922
 4577W        W 4577   4.591   5.175   4.450 -0.3175  0.0180 -0.2232
 4578W        W 4578   7.490   1.578   3.537 -0.2148 -0.2229  0.0454
 4579W        W 4579   2.889   5.405   8.446  0.1394 -0.3314 -0.1021
 4580W        W 4580   7.268   5.189   6.774  0.1610 -0.0785 -0.0781
 4581W        W 4581   0.586   4.543   0.159 -0.2970  0.2461 -0.1483
 4582W        W 4582  10.206   0.781   6.865  0.2534  0.1805 -0.1399
 4583W        W 4583   3.084   2.893   3.723 -0.0288  0.1458  0.2458
 4584W        W 4584   3.530   8.037   3.390 -0.0904 -0.2044 -0.3211
 4585W        W 4585   1.343   5.070   7.875  0.1383 -0.0357  0.0886
 4586W        W 4586   8.205   2.721   8.829 -0.0993  0.1575 -0.1291
 4587W        W 4587   5.034   9.306   5.365 -0.1835 -0.0062 -0.0211
 4588W        W 4588   7.794  10.030   6.256 -0.2538 -0.1914 -0.0803
 4589W        W 4589   5.595   4.210   4.302 -0.2968 -0.3611 -0.2148
 4590W        W 4590  10.130   5.900   5.585  0.1753 -0.0465  0.2995
 4591W        W 4591   3.135   5.372   2.728 -0.0458 -0.3242  0.0274
 4592W        W 4592   0.632   2.663   1.736  0.0020  0.1793 -0.4603
 4593W        W 4593   5.558   2.787   1.648 -0.2445  0.0716  0.0048
 4594W        W 4594   0.487   0.986   4.944  0.0931  0.2212 -0.1514
 4595W        W 4595   7.044   1.310   0.969  0.1957  0.0212  0.0794
 4596W        W 4596   9.740   6.568   3.015 -0.1820  0.0648  0.0195
 4597W        W 4597   2.338   7.347   5.144  0.0874 -0.3068 -0.0893
 4598W        W 4598   0.772   3.589   2.157 -0.0045 -0.0066 -0.0993
 4599W        W 4599   3.291   3.436   9.058  0.0540 -0.1860  0.0414
 4600W        W 4600   3.973   6.303   2.692  0.2725  0.0420  0.2463
 4601W        W 4601   9.886   8.784   2.965 -0.2463  0.0150 -0.2461
 4602W        W 4602   4.555   4.766   3.693  0.4451  0.1741  0.1060
 4603W        W 4603   8.289   2.619   6.928 -0.1029  0.3022  0.2071
 4604W        W 4604   9.787   2.500   7.012 -0.2042 -0.0549  0.1453
 4605W        W 4605   6.955   4.974   6.024 -0.0680  0.0742  0.1508
 4606W        W 4606   9.571   3.286   1.653  0.0912  0.0205  0.2008
 4607W        W 4607   7.007   5.017   4.666 -0.2679 -0.0007  0.1330
 4608W        W 4608   5.573   2.149   3.542  0.1222  0.0838 -0.0980
 4609W        W 4609   4.054   3.088   1.641  0.0110  0.1932  0.3156
 4610W        W 4610   8.000   3.290   4.415 -0.0583 -0.1254 -0.0311
 4611W        W 4611   0.414   8.520   4.873 -0.1037  0.0172  0.1470
 4612W        W 4612   9.107   5.615   6.578 -0.3174 -0.3185  0.0765
 4613W        W 4613   4.961   8.461   8.086 -0.0539  0.0138  0.1727
 4614W        W 4614   1.263   3.029   6.857  0.0522 -0.0645  0.1739
 4615W        W 4615   4.253   6.333   1.232 -0.4125 -0.0043 -0.2772
 4616W        W 4616   8.946   8.768   8.551  0.0091 -0.2298  0.2385
 4617W        W 4617   6.604   1.220   5.253  0.3038 -0.0723  0.1369
 4618W        W 4618   1.603   0.500   6.469  0.1552 -0.3964  0.0169
 4619W        W 4619   8.792   7.843   6.044 -0.1437  0.0804 -0.0950
 4620W        W 4620   4.726   0.804   3.449 -0.2663  0.0007 -0.0201
 4621W        W 4621   0.585   9.176   4.173  0.0579 -0.0752  0.2920
 4622W        W 4622  10.113   6.709   7.263  0.0654  0.0931  0.2189
 4623W        W 4623   8.634   4.976   0.413  0.1050 -0.0058  0.2849
 4624W        W 4624   8.814   3.786   5.120  0.0446  0.0746  0.0383
 4625W        W 4625   6.175   3.271   3.082  0.1018  0.0978 -0.3284
 4626W        W 4626   3.222   3.999   0.457 -0.0367  0.0575 -0.0244
 4627W        W 4627   0.650   0.629   0.835  0.1614 -0.1545 -0.3879
 4628W        W 4628   9.459   4.852  10.338 -0.2353  0.1559 -0.0847
 4629W        W 4629   4.730   2.363   5.874  0.2496 -0.0111 -0.2296
 4630W        W 4630   4.841   7.009   9.108 -0.1119 -0.0555 -0.1276
 4631W        W 4631   5.975   8.851   0.174 -0.0532 -0.1880  0.0467
 4632W        W 4632   4.273   0.631   1.497  0.0677 -0.0271 -0.0530
 4633W        W 4633   9.442   4.987   9.886  0.0886 -0.1888 -0.3195
 4634W        W 4634   8.068   3.861   4.463 -0.1941 -0.0819 -0.0881
 4635W        W 4635   8.374   7.462   8.335 -0.1742  0.4272 -0.0206
 4636W        W 4636   1.891   7.683   5.096 -0.1510  0.0308 -0.0105
 4637W        W 4637   2.734   4.153   6.523  0.0343  0.0146  0.0289
 4638W        W 4638   8.836   2.964   0.905  0.2613 -0.0895 -0.0368
 4639W        W 4639   3.697  10.176   1.044  0.0484 -0.1266 -0.0079
 4640W        W 4640   1.489   3.690  10.340  0.0601  0.2535 -0.2551
 4641W        W 4641   3.546   6.867   9.685  0.0087  0.1562 -0.2966
 4642W        W 4642   3.486   4.566   5.401  0.1399 -0.0453  0.1188
 4643W        W 4643   2.168   0.865   5.872  0.0408 -0.1559 -0.1579
 4644W        W 4644   9.606   5.436   9.925  0.1014 -0.0544  0.0483
 4645W        W 4645   8.581   5.931   4.309  0.0860 -0.0971 -0.0288
 4646W        W 4646   7.757   3.967   6.257 -0.0301 -0.0480 -0.3327
 4647W        W 4647   8.050   3.338   1.397 -0.0646 -0.0699 -0.0202
 4648W        W 4648   4.835   4.039   3.755  0.0693 -0.2280  0.0145
 4649W        W 4649   6.415   7.837   2.259 -0.0518 -0.0488  0.0194
 4650W        W 4650   2.045   5.979   5.148 -0.1257 -0.1757  0.0511
 4651W        W 4651   2.304   1.962   3.690 -0.2763  0.1576 -0.1336
 4652W        W 4652   2.371   7.389   9.640 -0.1641  0.1421  0.0223
 4653W        W 4653   7.735   1.863   8.642 -0.0678 -0.0085  0.0092
 4654W        W 4654   6.676   7.932   7.418  0.0838  0.3176 -0.1607
 4655W        W 4655   3.326   4.937   6.165 -0.0112  0.4664 -0.0134
 4656W        W 4656   0.177   9.827   6.253  0.0934 -0.0269 -0.0722
 4657W        W 4657   2.108   9.487   8.408  0.3165  0.0595  0.0118
 4658W        W 4658   6.747   8.385   2.924  0.0938 -0.0944 -0.0925
 4659W        W 4659   7.723   3.001   3.625 -0.0419 -0.3080 -0.1413
 4660W        W 4660   7.274   9.370   1.586  0.1198 -0.1834  0.0300
 4661W        W 4661   3.385   4.676   2.911  0.2626  0.1724  0.1368
 4662W        W 4662   3.829   3.266   8.166 -0.2135  0.1667  0.2974
 4663W        W 4663   0.809   4.710   9.135 -0.3560 -0.0224 -0.0217
 4664W        W 4664   0.226   2.021   7.639  0.3277  0.0122  0.0367
 4665W        W 4665   0.993   5.112   6.304 -0.2707  0.3987 -0.1376
 4666W        W 4666   5.850   0.929   0.541  0.1795  0.2121 -0.2448
 4667W        W 4667   9.777   4.819   7.254  0.3750 -0.1956  0.2309
 4668W        W 4668   4.087   2.538  10.045 -0.4869 -0.1340 -0.1193
 4669W        W 4669   5.484   3.966   9.121 -0.1194  0.1327 -0.0718
 4670W        W 4670   1.947   7.705   4.215 -0.0933 -0.1496 -0.0973
 4671W        W 4671   2.040   0.177   3.386  0.2503 -0.0142  0.2150
 4672W        W 4672   8.160   6.401   7.679  0.4341 -0.2438 -0.1427
 4673W        W 4673   3.657   3.243   1.396 -0.1443 -0.2298 -0.1154
 4674W        W 4674   5.320   0.994   5.855 -0.1687  0.0568 -0.3396
 4675W        W 4675   3.030   7.670   1.726  0.3434  0.0749 -0.1720
 4676W        W 4676   1.623   3.959   3.299  0.1123  0.0867  0.0379
 4677W        W 4677   4.100   9.366   0.065 -0.0425 -0.1817  0.1469
 4678W        W 4678   4.373   6.034   2.996 -0.1347  0.0741  0.2875
 4679W        W 4679   4.235   2.139   4.471  0.1145  0.1576 -0.0688
 4680W        W 4680  10.212   2.156   5.648  0.0699 -0.2322 -0.1193
 4681W        W 4681   7.356   5.515   2.883 -0.2406 -0.3014 -0.0579
 4682W        W 4682   6.735   6.054   5.440 -0.1107  0.0084  0.1475
 4683W        W 4683   7.120   9.106   0.155 -0.0973 -0.0575  0.1062
 4684W        W 4684   8.196   1.073   0.627  0.2392  0.1404  0.4196
 4685W        W 4685   8.466   0.268   4.172  0.1432  0.1080  0.0495
 4686W        W 4686   4.785   6.255   0.554  0.3403  0.2102  0.2308
 4687W        W 4687   6.232   9.867   3.943  0.3369 -0.0386  0.0052
 4688W        W 4688   5.813   3.771   9.555 -0.1532  0.2602 -0.0756
 4689W        W 4689   7.383   0.125   9.601  0.0843  0.1645 -0.0271
 4690W        W 4690   4.074   7.574   2.640 -0.3432 -0.0017  0.0398
 4691W        W 4691   0.862   4.786   5.853  0.0059 -0.0537  0.0920
 4692W        W 4692   6.734   5.721   5.044 -0.2114 -0.1873 -0.2308
 4693W        W 4693   1.265   4.656   5.553 -0.0250 -0.2000  0.2258
 4694W        W 4694   3.250   1.011   3.229  0.0916 -0.1662  0.0852
 4695W        W 4695   4.140   6.273   1.868 -0.0549  0.0832  0.1557
 4696W        W 4696   5.867   6.978   4.609  0.0968 -0.2834  0.0707
 4697W        W 4697   1.200   6.069   5.490 -0.1853  0.1492 -0.1408
 4698W        W 4698   1.745   1.375   6.168 -0.0491  0.2205 -0.0534
 4699W        W 4699   9.425  10.337   7.508 -0.0068  0.1327  0.2204
 4700W        W 4700   9.313   2.072   0.731  0.3120  0.0742 -0.3594
 4701W        W 4701   7.831   7.378   2.827 -0.0234  0.0363  0.1443
 4702W        W 4702   2.553   1.957   5.040  0.3391  0.0587 -0.2101
 4703W        W 4703   4.775   5.391  10.207 -0.1577 -0.2458  0.1898
 4704W        W 4704   1.549   9.171   2.280 -0.0002  0.2237 -0.1454
 4705W        W 4705   1.202   2.425   5.860 -0.4733  0.1315 -0.0761
 4706W        W 4706   9.554   9.574   6.246  0.1119 -0.1980  0.1301
 4707W        W 4707   5.909   0.634   9.544 -0.0934  0.0605 -0.1215
 4708W        W 4708   1.653   9.628   9.197  0.3469 -0.2415 -0.3091
 4709W        W 4709   7.363   9.704   8.309 -0.2585 -0.1542 -0.0996
 4710W        W 4710   6.893   8.577   4.175  0.2514  0.1650 -0.1291
 4711W        W 4711   9.312   6.260   4.984 -0.2145  0.1798 -0.1915
 4712W        W 4712   2.531  10.059   7.680  0.2595 -0.0825 -0.0493
 4713W        W 4713   3.556   0.082   9.760  0.0791  0.0043 -0.0342
 4714W        W 4714   7.357   4.551   1.209  0.1421  0.0708  0.2243
 4715W        W 4715   7.354   6.053   7.264  0.0913  0.2104 -0.1017
 4716W        W 4716   8.040   6.092   5.352  0.2814  0.2147  0.0308
 4717W        W 4717   6.036   7.165   1.539 -0.0863 -0.0566 -0.1586
 4718W        W 4718   2.652   0.925  10.218  0.0288  0.0689 -0.1230
 4719W        W 4719   7.870   2.336   5.586  0.0250  0.1077  0.2069
 4720W        W 4720   7.511   4.277   2.209  0.1118  0.0351  0.0791
 4721W        W 4721   1.225   9.096   6.104  0.3572 -0.1106 -0.0099
 4722W        W 4722   0.676   9.996   3.199  0.1456  0.0732  0.0553
 4723W        W 4723   3.201   2.954   8.972 -0.0111 -0.1032  0.0358
 4724W        W 4724   6.071  10.020   8.922 -0.0076  0.1007  0.1565
 4725W        W 4725   4.558   6.917   5.066  0.0179  0.2572  0.0994
 4726W        W 4726   6.989   9.272   6.829  0.0470  0.1082  0.0666
 4727W        W 4727   9.739   4.091   5.395 -0.1273  0.3471 -0.1979
 4728W        W 4728   7.771   8.223   9.142  0.0966 -0.2684 -0.0039
 4729W        W 4729   0.922   5.917   4.350  0.1468 -0.0099 -0.0296
 4730W        W 4730   9.207   4.855   5.992  0.2414  0.1446 -0.0137
 4731W        W 4731   6.586   5.202   7.964 -0.0874  0.1964 -0.2521
 4732W        W 4732   0.491   0.242   3.065 -0.0963 -0.1185 -0.1762
 4733W        W 4733   1.205   6.511   8.538 -0.3431 -0.1703  0.2116
 4734W        W 4734   9.236   8.524   5.037  0.1844  0.3981 -0.3678
 4735W        W 4735   2.518   3.412   9.230  0.2267  0.1103  0.2199
 4736W        W 4736   1.567   7.046   6.307 -0.2253  0.1692  0.1160
 4737W        W 4737   1.602   7.189   3.426  0.1664  0.0765 -0.0238
 4738W        W 4738   3.558   4.424   9.442 -0.2035 -0.4742  0.0724
 4739W        W 4739   3.118  10.098   9.880  0.2517 -0.2182 -0.3055
 4740W        W 4740   3.192   3.907   6.610  0.0798  0.0660  0.2922
 4741W        W 4741   0.476   1.371   9.784 -0.0022 -0.0101 -0.0983
 4742W        W 4742   4.320   5.313   2.042 -0.0459  0.2907 -0.0974
 4743W        W 4743   6.038   8.288   5.328 -0.0407  0.0272 -0.0474
 4744W        W 4744   3.592   6.384   5.764  0.2587 -0.2372  0.0658
 4745W        W 4745   2.020   0.788   3.499 -0.1792  0.0323  0.0440
 4746W        W 4746   2.270   7.148   4.319  0.1387  0.1738  0.1575
 4747W        W 4747   6.542   6.429   7.033 -0.1119  0.0450 -0.3943
 4748W        W 4748   5.238   3.055   2.055  0.1189 -0.0964  0.1613
 4749W        W 4749   4.489   2.054   0.547  0.1612 -0.1367  0.0619
 4750W        W 4750   6.407   5.108   8.563 -0.0973 -0.1249 -0.0693
 4751W        W 4751   6.591   7.375   9.911  0.1615 -0.1264  0.1528
 4752W        W 4752   8.162   2.409   7.897 -0.0648 -0.1113  0.0247
 4753W        W 4753   7.320   1.096   4.144 -0.1131 -0.0914 -0.0969
 4754W        W 4754   1.665   8.656   3.099 -0.0621  0.1238 -0.2329
 4755W        W 4755   7.056   3.134   4.582 -0.2087  0.0018 -0.0240
 4756W        W 4756   8.601   4.780   2.320  0.0075  0.1125  0.2028
 4757W        W 4757   8.561   8.749   1.128  0.0295  0.1889  0.1643
 4758W        W 4758  10.127   4.070   4.489  0.0865 -0.1017 -0.1052
 4759W        W 4759   4.699   6.639   8.549  0.0856 -0.0897  0.0163
 4760W        W 4760   1.346   6.427   6.790 -0.0273 -0.0066 -0.0340
 4761W        W 4761   9.049   8.781   6.494  0.1061 -0.1079 -0.2028
 4762W        W 4762   9.873   0.088   1.043  0.0780  0.2638 -0.0823
 4763W        W 4763   3.925   1.209   4.944  0.1077  0.0240  0.0540
 4764W        W 4764   8.961   4.650   3.141 -0.2956 -0.1424 -0.3338
 4765W        W 4765   8.894   2.472   6.619  0.1449 -0.0459  0.0181
 4766W        W 4766   1.586   2.761   7.644 -0.2923 -0.2350  0.1410
 4767W        W 4767   1.865   3.693   9.977 -0.0494 -0.1221  0.0895
 4768W        W 4768   8.081   4.665   8.491 -0.0784 -0.0735  0.1225
 4769W        W 4769   1.656   8.849   7.118  0.0447 -0.1323 -0.2184
 4770W        W 4770   7.917   2.970   1.101 -0.0901 -0.0631 -0.2341
 4771W        W 4771   7.930   7.879   2.683  0.3828  0.0514 -0.0650
 4772W        W 4772   6.089   8.066   2.602 -0.1979 -0.3878 -0.0548
 4773W        W 4773   4.582   1.516   5.965 -0.3832 -0.1104  0.2925
 4774W        W 4774   9.107   1.512   4.244  0.2021  0.0885  0.0055
 4775W        W 4775   7.082   4.061   4.122 -0.1964 -0.0638 -0.2210
 4776W        W 4776   2.066  10.094   7.572 -0.0215 -0.0410 -0.0061
 4777W        W 4777   3.992   6.607   9.263  0.0983 -0.0034 -0.0507
 4778W        W 4778   2.589   3.757  10.252 -0.1893 -0.2176  0.1963
 4779W        W 4779   8.148   4.326   0.828  0.1326 -0.4133 -0.1205
 4780W        W 4780   8.234   4.227   1.835  0.1968  0.1696 -0.0758
 4781W        W 4781   9.853   9.206   5.963  0.2310 -0.1549  0.0419
 4782W        W 4782   9.167   8.050   1.692 -0.0033 -0.2610 -0.0675
 4783W        W 4783   5.464   8.748   4.639  0.0120 -0.1833 -0.0356
 4784W        W 4784   2.203   8.173   1.280  0.0176 -0.2149 -0.0632
 4785W        W 4785   0.624   2.102   8.251  0.0977  0.1285  0.0251
 4786W        W 4786   1.273   0.271   6.744 -0.1442 -0.0650  0.2555
 4787W        W 4787   9.658   3.407   6.214  0.1129 -0.1183 -0.2978
 4788W        W 4788   7.583   6.241   2.885  0.1356 -0.0180  0.0539
 4789W        W 4789   4.228   2.410   0.991 -0.0337  0.0168 -0.1906
 4790W        W 4790   2.576   8.341   9.694 -0.0583  0.2388 -0.0052
 4791W        W 4791   1.167   8.242   5.761 -0.4675  0.0336 -0.0381
 4792W        W 4792   4.535   3.256   5.487  0.0758 -0.4054  0.0383
 4793W        W 4793   6.882   7.327   5.907 -0.0291  0.0926 -0.0335
 4794W        W 4794   5.410   1.589   4.434  0.1353 -0.0131 -0.0718
 4795W        W 4795   1.007   8.477   4.755  0.2214  0.1216 -0.1109
 4796W        W 4796   4.279   9.708   6.431  0.1048 -0.0045 -0.0933
 4797W        W 4797   6.647   3.322   0.240  0.0812  0.1228  0.0598
 4798W        W 4798   7.166  10.186   8.420  0.1935  0.2082 -0.1786
 4799W        W 4799   6.848   3.756   1.812  0.1811 -0.0722 -0.0775
 4800W        W 4800   4.902   2.153   7.608  0.3995 -0.5448  0.0655
 4801W        W 4801   1.428   7.945   4.892 -0.1755  0.1318  0.0731
 4802W        W 4802   4.357   3.665   5.756  0.0575  0.0554 -0.2282
 4803W        W 4803   2.416   1.195   6.655  0.1940  0.2790  0.1697
 4804W        W 4804   9.782   0.408   3.178  0.1227 -0.0012 -0.0507
 4805W        W 4805   8.434   6.010   8.200  0.1087 -0.5513  0.2404
 4806W        W 4806   2.812   8.961   2.866  0.2089  0.2311 -0.0806
 4807W        W 4807   3.492   7.321   6.954 -0.2978 -0.0775  0.2709
 4808W        W 4808  10.067   6.647   4.757  0.0342  0.0107  0.2087
 4809W        W 4809   0.324   1.212   7.058  0.0108  0.3156  0.1249
 4810W        W 4810   7.872   6.655   3.335  0.0632  0.0705 -0.0336
 4811W        W 4811   4.317   9.147   1.362 -0.0553 -0.0640 -0.1274
 4812W        W 4812   4.710   2.307   6.524  0.0913  0.0137  0.0488
 4813W        W 4813   5.490   5.591   0.320 -0.0319 -0.0098 -0.0179
 4814W        W 4814   5.433   9.657   8.115 -0.0067 -0.0837  0.1868
 4815W        W 4815   6.834   9.577   3.135  0.1986  0.1025 -0.0873
 4816W        W 4816   7.647   9.433   8.662  0.1271 -0.3263 -0.0022
 4817W        W 4817   7.621   8.630   5.306 -0.1298 -0.1813  0.0882
 4818W        W 4818   1.165   2.635   0.631 -0.1692  0.1246 -0.2171
 4819W        W 4819   6.573   6.378  10.327 -0.0147  0.1164  0.2112
 4820W        W 4820   6.552   0.991   6.225 -0.0763 -0.0023  0.1550
 4821W        W 4821   9.911   2.114   6.641 -0.0138  0.0283 -0.2264
 4822W        W 4822   0.441   7.605   9.800 -0.1188 -0.1835 -0.0917
 4823W        W 4823   2.079   8.845   7.545 -0.0352 -0.2127 -0.2036
 4824W        W 4824   5.426   7.324   6.274  0.1516  0.1058  0.2153
 4825W        W 4825   9.684   6.683   9.500 -0.2927 -0.1556 -0.1532
 4826W        W 4826   0.329   2.532   5.668  0.0074  0.0943  0.0617
 4827W        W 4827   4.391   9.517   6.881  0.2397  0.0289  0.0069
 4828W        W 4828   4.050   7.311   3.823  0.1132 -0.2526  0.0754
 4829W        W 4829   0.997   3.489   7.948 -0.3700 -0.0578  0.0785
 4830W        W 4830   6.117   6.224   9.521  0.0930 -0.0602  0.1110
 4831W        W 4831   0.030  10.103   1.495  0.1922 -0.2824  0.2926
 4832W        W 4832   8.513   4.220   5.769  0.3087 -0.0062  0.0316
 4833W        W 4833   0.130   9.922   7.368  0.2695  0.1039  0.1352
 4834W        W 4834   1.459   0.464   7.164 -0.0771  0.1084  0.1132
 4835W        W 4835   8.117   7.212   3.477  0.0224  0.0781 -0.2580
 4836W        W 4836   4.977   5.465   4.694 -0.0648  0.1468  0.0228
 4837W        W 4837   3.247   0.971   7.744  0.2421 -0.0842 -0.1987
 4838W        W 4838   3.197   8.564   2.685 -0.0550  0.0789  0.2952
 4839W        W 4839   7.883   3.923   0.571  0.1904 -0.0085 -0.2479
 4840W        W 4840   3.408   3.692   5.554 -0.0955 -0.1914  0.0115
 4841W        W 4841   8.101   6.885   7.899 -0.1085  0.2148 -0.0065
 4842W        W 4842   3.202   0.561   1.604 -0.0793 -0.1795 -0.1667
 4843W        W 4843   3.180  10.244   5.903  0.1462  0.2163 -0.1578
 4844W        W 4844   3.015  10.258   4.834  0.1858 -0.2687  0.1126
 4845W        W 4845   2.461  10.168   3.209 -0.1093 -0.0672  0.0316
 4846W        W 4846  10.316   4.991   7.264 -0.1761 -0.1256  0.2533
 4847W        W 4847   7.657   7.156   2.003 -0.0272  0.2221  0.3609
 4848W        W 4848   6.342   4.506   8.906  0.2938  0.0527  0.5114
 4849W        W 4849   2.586   2.565   1.214 -0.0381  0.2476  0.0431
 4850W        W 4850   9.772   3.239   2.121  0.1333 -0.3364 -0.2304
 4851W        W 4851   4.796   5.214   6.438  0.1283  0.0586 -0.2624
 4852W        W 4852   8.551   2.912   9.133  0.2538 -0.1810 -0.1154
 4853W        W 4853   5.457   8.052   4.129 -0.0364  0.1944  0.2593
 4854W        W 4854   2.825   6.249   6.354 -0.1716 -0.0432  0.1148
 4855W        W 4855   3.315   6.248   6.266 -0.0630  0.0939  0.0881
 4856W        W 4856   2.619   5.444   8.011  0.2860  0.0103 -0.0677
 4857W        W 4857   7.633   3.847   5.704 -0.1876 -0.0556  0.3684
 4858W        W 4858   7.398   6.308   4.229  0.2058 -0.2752 -0.1105
 4859W        W 4859   7.932   8.724   6.170 -0.0587  0.3504 -0.0549
 4860W        W 4860   6.268   7.169   2.837  0.0365 -0.0788 -0.1616
 4861W        W 4861   6.263   8.578   1.122 -0.0590  0.0547 -0.1349
 4862W        W 4862   6.389   7.614   5.896 -0.1486  0.1865  0.2414
 4863W        W 4863   6.656   2.225   2.616  0.2728  0.3770  0.0313
 4864W        W 4864   9.205   6.965   0.675  0.0571  0.1067  0.0966
 4865W        W 4865   9.104   5.654   4.262 -0.1899  0.1979 -0.0608
 4866W        W 4866   9.139   3.414   2.589  0.2733  0.1985  0.4436
 4867W        W 4867   2.648   1.062   7.783  0.0206 -0.0232 -0.1357
 4868W        W 4868   4.383   5.529   0.255 -0.0753  0.1538 -0.1630
 4869W        W 4869   2.783   4.916   8.572  0.2038  0.1801  0.0637
 4870W        W 4870   2.797   9.007   3.758  0.0553 -0.1384 -0.1535
 4871W        W 4871   3.550   2.311   3.889 -0.0231 -0.0184 -0.0837
 4872W        W 4872   8.809   5.550   8.832 -0.6013 -0.0885 -0.1514
 4873W        W 4873   4.370   3.664   2.805  0.0982  0.1120  0.0282
 4874W        W 4874   2.687   2.497   3.597 -0.0783  0.2578  0.1663
 4875W        W 4875   5.474   8.800   2.496 -0.1697  0.4308  0.2554
 4876W        W 4876   1.815   7.690   6.980 -0.1155 -0.2869 -0.0729
 4877W        W 4877   2.703   3.311   2.053  0.1463 -0.0284 -0.2313
 4878W        W 4878   5.913   7.645   3.310  0.0135 -0.1679  0.0220
 4879W        W 4879   2.817   5.513   1.418 -0.1919 -0.0037  0.0689
 4880W        W 4880   1.083   1.555   5.874 -0.0486  0.1635 -0.0269
 4881W        W 4881   1.364   9.948   0.502 -0.3146 -0.2198  0.0017
 4882W        W 4882   4.939   6.168   7.788 -0.2855  0.0146  0.0463
 4883W        W 4883   2.344   6.306   5.416  0.2068 -0.0401  0.4587
 4884W        W 4884   8.905   0.717   9.410 -0.0343  0.0101 -0.3627
 4885W        W 4885   8.467   1.543   9.160  0.0496 -0.1120  0.0378
 4886W        W 4886  10.197   0.994   1.472  0.1188  0.3287  0.2007
 4887W        W 4887   3.862   3.723   9.454  0.3041  0.2257 -0.0498
 4888W        W 4888   9.519   8.054   6.447  0.3395 -0.2444  0.4101
 4889W        W 4889   3.700   9.238   7.185  0.1737 -0.3560 -0.0553
 4890W        W 4890   4.253   8.494   4.056 -0.1859  0.1090  0.1978
 4891W        W 4891   1.145   6.889   0.180 -0.1595 -0.0520  0.0057
 4892W        W 4892   2.015   5.096   6.501 -0.3009 -0.0363 -0.2458
 4893W        W 4893   6.366   2.096   9.759 -0.0086 -0.1750  0.2157
 4894W        W 4894   1.311   6.748  10.010  0.1616  0.1234 -0.2470
 4895W        W 4895   6.152   5.169   3.688  0.2732 -0.0483 -0.1204
 4896W        W 4896   5.011   2.037   5.051 -0.0456 -0.3458 -0.1434
 4897W        W 4897   8.413   1.595   0.702  0.2109 -0.2228  0.1575
 4898W        W 4898   2.188   4.998   5.564  0.0241  0.0485  0.3072
 4899W        W 4899   8.984   3.034   8.129 -0.0807  0.0262  0.2981
 4900W        W 4900   4.886   2.382   9.489  0.0029  0.0944  0.2585
 4901W        W 4901   0.919   8.058   0.915  0.0701 -0.0801 -0.2855
 4902W        W 4902   1.558   8.015   8.015 -0.1167 -0.1384  0.1968
 4903W        W 4903   2.812   7.003   5.183  0.0322  0.0371 -0.0278
 4904W        W 4904   1.685   1.213   8.412  0.0688 -0.0894 -0.3411
 4905W        W 4905   8.750   2.847   8.562  0.0512 -0.0346 -0.1013
 4906W        W 4906   8.066   3.625   9.890  0.0217 -0.0848  0.0336
 4907W        W 4907   8.715   7.355   6.161  0.1958  0.3052 -0.0400
 4908W        W 4908   0.116   4.749   6.467  0.3836 -0.0348 -0.1500
 4909W        W 4909   6.998   4.137   3.164  0.2413 -0.1729 -0.2311
 4910W        W 4910   1.437   0.826   3.203  0.2611 -0.2442 -0.3115
 4911W        W 4911   2.927   9.396   3.033 -0.1778  0.1795  0.1721
 4912W        W 4912   2.200   9.171   4.955  0.2166  0.2764 -0.0080
 4913W        W 4913   1.740   3.502   8.187 -0.0946  0.0574 -0.0318
 4914W        W 4914   4.821   6.517   0.129 -0.1330  0.0430 -0.0328
 4915W        W 4915   1.566   5.173   4.958 -0.1019 -0.1295 -0.1240
 4916W        W 4916   2.699   8.100   3.972  0.3146  0.0519  0.1145
 4917W        W 4917   8.062   0.334   3.033 -0.1364  0.0699  0.0704
 4918W        W 4918   1.888   9.464   0.321  0.0346  0.0255 -0.1882
 4919W        W 4919   2.966   5.219   2.241 -0.2778  0.0050 -0.1972
 4920W        W 4920   1.837   0.751   6.980 -0.1849  0.2634  0.1140
 4921W        W 4921   4.746   5.658   2.971 -0.0127  0.2171 -0.2477
 4922W        W 4922  10.326   9.781   9.178 -0.1042  0.0007  0.0043
 4923W        W 4923   0.890   4.694   9.664 -0.3570 -0.1745  0.1619
 4924W        W 4924   4.279   8.156   0.061  0.0386 -0.0495  0.0843
 4925W        W 4925   2.614   9.377   8.555  0.2401  0.1573  0.1088
 4926W        W 4926   2.056   6.412   4.968 -0.0399 -0.0755 -0.0010
 4927W        W 4927   0.787   4.185   5.171  0.1321 -0.2859  0.4530
 4928W        W 4928   2.294   5.305   0.665  0.2993 -0.1158 -0.0010
 4929W        W 4929   2.206   0.704   6.603 -0.0306 -0.1571 -0.1334
 4930W        W 4930   1.076   9.921   1.975  0.1146 -0.2879  0.5418
 4931W        W 4931   2.201   5.870   5.677  0.3098  0.2062 -0.1263
 4932W        W 4932   6.584   8.947   1.787  0.0221 -0.1360  0.3174
 4933W        W 4933   7.202   7.377   0.860 -0.1381  0.4920 -0.0084
 4934W        W 4934   4.822   6.137   7.270 -0.1126  0.3714 -0.0847
 4935W        W 4935   3.382   5.139   4.580  0.0214  0.1541 -0.1498
 4936W        W 4936   3.132   2.039   0.167 -0.2962  0.2066  0.1554
 4937W        W 4937   4.368   9.073   4.809  0.0465 -0.1446  0.0938
 4938W        W 4938   2.826   9.640   5.611  0.0997 -0.0405  0.0286
 4939W        W 4939   0.461   3.286   9.952  0.0416  0.0867 -0.2535
 4940W        W 4940   4.993   9.355   2.314 -0.4560 -0.0627  0.4146
 4941W        W 4941   3.036   0.051   0.108  0.1328 -0.3499  0.1150
 4942W        W 4942   2.238   8.747   4.209 -0.0384  0.1565  0.0258
 4943W        W 4943   6.918   3.343   7.644  0.2038  0.1482 -0.5222
 4944W        W 4944   7.947   3.863   3.281 -0.2082 -0.2721  0.1357
 4945W        W 4945   9.741   3.217   9.211  0.1306  0.2587  0.0229
 4946W        W 4946   0.011   7.286   9.834  0.2515  0.1385  0.0551
 4947W        W 4947   5.248   7.269   8.454  0.0244 -0.3403 -0.0711
 4948W        W 4948   1.358   6.603   6.281 -0.0844 -0.1213  0.2122
 4949W        W 4949   4.494   6.393   5.112 -0.3198  0.1007 -0.1037
 4950W        W 4950   2.631   5.106   5.297 -0.1049  0.1449  0.0291
 4951W        W 4951   5.697   2.875   8.374  0.0249  0.2128 -0.1507
 4952W        W 4952   5.196   8.166   5.191  0.4029 -0.0140  0.2857
 4953W        W 4953   9.045   3.071   1.612 -0.1421 -0.0753 -0.0126
 4954W        W 4954   8.641   6.283   7.277 -0.0957 -0.2559  0.0692
 4955W        W 4955   5.734   4.121   0.619 -0.2667 -0.0366  0.1061
 4956W        W 4956   7.734   1.625   9.761  0.0341  0.1955  0.0581
 4957W        W 4957   2.226   2.820   3.767  0.2020  0.1377 -0.0627
 4958W        W 4958   0.391   6.400   7.833  0.1015  0.2569  0.0649
 4959W        W 4959   2.549   1.175   7.253 -0.3829 -0.2384 -0.0850
 4960W        W 4960   8.803   5.143   7.144 -0.1121  0.0157 -0.0007
 4961W        W 4961   7.450   2.494   8.662  0.1967  0.1673 -0.2248
 4962W        W 4962   9.099   2.538   5.758  0.1093 -0.1517 -0.0109
 4963W        W 4963   0.470   1.190   0.710  0.1728  0.0470  0.0974
 4964W        W 4964   1.492   0.502   9.980  0.0634  0.3320  0.2522
 4965W        W 4965   2.099   0.200   7.368 -0.3651 -0.1440 -0.0756
 4966W        W 4966   8.943   4.185   0.579 -0.4049 -0.0572 -0.0179
 4967W        W 4967   6.254   5.440   2.940 -0.3468 -0.0486  0.1361
 4968W        W 4968   2.775   5.475   4.360 -0.4595  0.3925  0.1931
 4969W        W 4969   3.877   5.122   8.278  0.1218 -0.1575 -0.1043
 4970W        W 4970   1.862   9.901   9.975 -0.3705 -0.4145 -0.0064
 4971W        W 4971   2.499   6.296   2.684  0.2042  0.3039  0.1864
 4972W        W 4972   0.042   4.669   5.480 -0.0641 -0.1602  0.1796
 4973W        W 4973   0.352   0.726   6.863 -0.2934 -0.2193  0.0860
 4974W        W 4974   9.984   0.121   2.152 -0.3086  0.0598  0.0873
 4975W        W 4975   0.703   8.196   6.041 -0.1189  0.0776  0.2947
 4976W        W 4976   3.618   2.976   1.809 -0.3663 -0.0678 -0.1177
 4977W        W 4977   3.746   9.659  10.133  0.0281 -0.0227 -0.0965
 4978W        W 4978   8.996   6.237   4.428 -0.1579  0.1294 -0.2731
 4979W        W 4979   6.762   9.385   5.158  0.2642  0.0101  0.3881
 4980W        W 4980   5.887   5.086   6.298  0.2347 -0.1352 -0.1779
 4981W        W 4981   8.135  10.007   0.337 -0.4266 -0.1521 -0.0784
 4982W        W 4982   9.412   4.067   0.463  0.1038  0.2245 -0.1005
 4983W        W 4983   3.541   5.133   6.622  0.5043  0.1909 -0.2229
 4984W        W 4984   0.737   3.038   2.259 -0.3429 -0.1591 -0.0931
 4985W        W 4985   0.726   3.575   6.372  0.0999  0.2106 -0.0018
 4986W        W 4986   5.812   2.031   3.087 -0.0744  0.2708 -0.0890
 4987W        W 4987   8.575   6.014   9.014 -0.0909 -0.2221  0.0354
 4988W        W 4988   9.128   7.565   1.901 -0.0877  0.1966 -0.1619
 4989W        W 4989   5.290   7.759   6.980  0.0868 -0.0346  0.0575
 4990W        W 4990   6.890   4.479   1.770  0.1820 -0.1850  0.2269
 4991W        W 4991   7.125   7.654   9.205 -0.0653 -0.3699 -0.0878
 4992W        W 4992   7.134   3.358   9.760  0.1869 -0.1760 -0.0199
 4993W        W 4993   4.689   1.318   5.443 -0.2227  0.0214 -0.2383
 4994W        W 4994   2.823   3.279   6.757  0.0403 -0.0248 -0.0416
 4995W        W 4995   4.336   8.743  10.096 -0.0252 -0.1385  0.0163
 4996W        W 4996   5.034   7.100   5.276 -0.0688 -0.3903 -0.2823
 4997W        W 4997   9.741   5.456   8.831 -0.1328  0.1246  0.1695
 4998W        W 4998  10.160   6.248   5.023 -0.0151  0.2775 -0.0570
 4999W        W 4999   4.780   9.789   2.435 -0.1196 -0.1522 -0.1850
 5000W        W 5000   6.250   2.929   1.714  0.2022 -0.0218  0.0103
 5001W        W 5001   9.890   7.011   1.844 -0.1129 -0.0739  0.2908
 5002W        W 5002   0.344   1.207   6.167 -0.0014 -0.0296  0.0501
 5003W        W 5003   4.677   5.466   8.382  0.0741  0.1017  0.0403
 5004W        W 5004   1.212   9.800   1.508  0.1040  0.0862 -0.1555
 5005W        W 5005   1.054   5.093   4.960  0.0966  0.1568 -0.0877
 5006W        W 5006   3.942   4.835   6.264 -0.1029  0.1089  0.0419
 5007W        W 5007   8.893   5.881   5.544 -0.1416 -0.1198 -0.2323
 5008W        W 5008   9.104   2.532   5.067  0.2910  0.1265  0.2196
 5009W        W 5009   9.183   7.184   6.328 -0.1773  0.0097 -0.2266
 5010W        W 5010   5.009   7.006   7.215  0.0795 -0.1192  0.2839
 5011W        W 5011   8.182   0.475   1.319 -0.1863  0.1335  0.0861
 5012W        W 5012   1.218   9.206   4.150  0.0109  0.0469 -0.0332
 5013W        W 5013   9.947   3.209   5.644  0.0189  0.1839 -0.0977
 5014W        W 5014   8.614   3.332   4.936 -0.0832  0.0086  0.2206
 5015W        W 5015   5.689   0.732   3.595 -0.3520 -0.1655  0.1081
 5016W        W 5016   2.037   9.850   3.621 -0.1876 -0.0521 -0.2244
 5017W        W 5017   3.395   7.806   3.915  0.1154 -0.0905 -0.0059
 5018W        W 5018   7.160   5.417   6.129  0.0361  0.0226  0.2093
 5019W        W 5019   5.231   3.573   8.946  0.1522  0.1265 -0.0155
 5020W        W 5020   3.247   9.297   3.667 -0.1005 -0.1602  0.1429
 5021W        W 5021   9.368   6.582   2.627  0.1331  0.0271  0.0174
 5022W        W 5022   8.851   9.530   9.628  0.1138  0.3681  0.3955
 5023W        W 5023   4.052  10.137   8.948 -0.0520 -0.1629 -0.0218
 5024W        W 5024   4.597   9.509   3.364  0.1712  0.2126 -0.4184
 5025W        W 5025   0.335   7.389   1.571 -0.1287  0.0272 -0.2656
 5026W        W 5026   3.334   7.246   6.403 -0.2691 -0.2796  0.1870
 5027W        W 5027   0.422   6.897   5.944 -0.3364  0.0241  0.0609
 5028W        W 5028   4.614   2.881   4.329  0.3118 -0.0615  0.0682
 5029W        W 5029   1.837   8.656   0.600 -0.1174 -0.3156  0.0716
 5030W        W 5030   5.427   2.992   0.062  0.1280 -0.0192  0.2961
 5031W        W 5031   6.276   1.818   0.003  0.1621  0.2523  0.2940
 5032W        W 5032   7.466   9.770   3.669 -0.0336 -0.1352 -0.1300
 5033W        W 5033   0.148   2.014   2.141  0.1988  0.0838  0.0115
 5034W        W 5034   0.049   2.903   1.638  0.0904  0.2366 -0.0195
 5035W        W 5035   4.174   4.933   4.767  0.0048 -0.0693 -0.1074
 5036W        W 5036   0.181   8.332   9.479  0.3839  0.1974  0.0116
 5037W        W 5037   2.859   1.542   1.050  0.1415  0.3117  0.3474
 5038W        W 5038   4.942   3.454   5.164 -0.2638 -0.0531  0.4557
 5039W        W 5039   5.483   5.606   8.717  0.1565  0.2717  0.0050
 5040W        W 5040   3.189   8.424   3.138  0.3161 -0.0762 -0.3006
 5041W        W 5041   7.630   3.430   9.868 -0.1435 -0.0944  0.0272
 5042W        W 5042   4.981   8.041   7.755  0.1257  0.0823 -0.0350
 5043W        W 5043   8.395   2.195   9.778 -0.0399 -0.1074 -0.2386
 5044W        W 5044   8.091   6.418   8.228 -0.0788 -0.3946  0.3053
 5045W        W 5045   1.405   4.606   3.716 -0.1969  0.1668 -0.0709
 5046W        W 5046   2.392   7.059   7.391  0.3162  0.0330  0.1284
 5047W        W 5047   0.338   4.886   6.951  0.1397  0.3652  0.1587
 5048W        W 5048   6.061   7.627   8.654  0.1906 -0.0395  0.0251
 5049W        W 5049   8.009   9.432   9.031  0.1756 -0.2864  0.0500
 5050W        W 5050   9.593   8.308   8.297 -0.2379  0.0577 -0.1211
 5051W        W 5051   3.840   2.108   8.010  0.2640 -0.1341  0.2833
 5052W        W 5052   1.627   4.737   7.090  0.3129  0.1465  0.0985
 5053W        W 5053   5.282   3.038   6.676 -0.2837  0.1391 -0.3888
 5054W        W 5054   8.716   1.735   9.676  0.2045 -0.0822  0.0125
 5055W        W 5055   9.347   0.567   9.396 -0.2247  0.2354  0.1245
 5056W        W 5056   1.298   9.866   7.081  0.2341 -0.1432 -0.1585
 5057W        W 5057   2.006   4.369   6.855  0.0824 -0.3050  0.2429
 5058W        W 5058   2.345   5.028   8.865  0.0032  0.2245 -0.0274
 5059W        W 5059   6.136   6.583   3.368 -0.0007 -0.1716  0.1508
 5060W        W 5060   6.935   0.801   6.630  0.0648 -0.0092 -0.0035
 5061W        W 5061   5.381   0.477   1.718  0.0524  0.1949  0.1382
 5062W        W 5062   4.863   8.570   6.554  0.3286  0.0552  0.0864
 5063W        W 5063   3.138   5.785   0.393  0.3248 -0.2048  0.1513
 5064W        W 5064   0.775   7.304   7.849 -0.3501 -0.1544 -0.0456
 5065W        W 5065   3.876   0.994   3.048 -0.1912  0.0890 -0.1617
 5066W        W 5066   7.898   3.562   6.075  0.0988  0.1173  0.5199
 5067W        W 5067   2.680   5.237  10.040 -0.1944 -0.1334  0.3135
 5068W        W 5068   5.416   3.967   8.222 -0.2778  0.1084 -0.0324
 5069W        W 5069   0.986   1.861   3.450  0.2689 -0.0424  0.0099
 5070W        W 5070   2.139   8.800   6.979 -0.1941 -0.1995 -0.0491
 5071W        W 5071   6.293   7.446   5.449  0.0469  0.1024  0.0949
 5072W        W 5072   2.977   8.947   4.352  0.0535  0.3047  0.0950
 5073W        W 5073   1.529   9.098   9.406  0.2487 -0.0919  0.0724
 5074W        W 5074   2.728   0.088  10.055  0.4001  0.0733  0.0859
 5075W        W 5075   5.964  10.266   3.083 -0.3672  0.1736 -0.3369
 5076W        W 5076   8.652   3.394   3.607 -0.0429 -0.0079  0.1153
 5077W        W 5077   5.642   7.420   9.810  0.1461 -0.2696 -0.3053
 5078W        W 5078   3.715   2.321   6.010 -0.5049  0.0822 -0.4451
 5079W        W 5079   3.380   5.569   1.512 -0.3628  0.3841 -0.0411
 5080W        W 5080   0.181   1.909   2.770 -0.0132 -0.0872  0.2461
 5081W        W 5081   1.120   1.687   0.746 -0.0413  0.0927 -0.2487
 5082W        W 5082   0.370   9.049   4.663  0.0332 -0.1120  0.1155
 5083W        W 5083   5.940   5.944   7.770  0.2268 -0.3181  0.0853
 5084W        W 5084   5.874   7.840  10.018 -0.1088 -0.0941  0.1331
 5085W        W 5085   1.759   4.568   7.766 -0.2101  0.1461  0.0428
 5086W        W 5086   6.805   0.255   5.603 -0.1726  0.0722  0.1005
 5087W        W 5087   1.708   5.609   6.570 -0.0479  0.0125 -0.2559
 5088W        W 5088   3.048   5.887   4.360 -0.0936 -0.1357  0.1625
 5089W        W 5089   4.548   2.976   5.053 -0.0470  0.1721  0.0796
 5090W        W 5090   3.337   8.720   9.731  0.2180 -0.3275  0.1016
 5091W        W 5091   4.089   5.154   2.523  0.0323 -0.2169 -0.0133
 5092W        W 5092   2.123   7.888  10.137 -0.0776  0.0171 -0.3273
 5093W        W 5093   7.374   9.607   7.406 -0.0816 -0.2070 -0.1626
 5094W        W 5094   0.005   1.511   8.555 -0.0514  0.2773  0.1009
 5095W        W 5095   1.915   3.971   8.131 -0.1920 -0.0685 -0.0598
 5096W        W 5096   0.707   7.765   6.933  0.2602 -0.2566  0.0493
 5097W        W 5097   0.449  10.057   7.750  0.0347 -0.0209 -0.0117
 5098W        W 5098   1.885   3.975   5.315 -0.2113  0.0065  0.2670
 5099W        W 5099   5.848   2.675   5.826  0.0087  0.2299 -0.1084
 5100W        W 5100   3.101   1.831   9.995 -0.0214  0.1528  0.2056
 5101W        W 5101   1.273   7.604   9.401  0.2021 -0.0761  0.0407
 5102W        W 5102  10.233   4.200   5.570  0.1031 -0.0540 -0.3453
 5103W        W 5103   9.825   1.958   1.438  0.1890  0.5271  0.0264
 5104W        W 5104   0.655   0.063   4.517  0.1479  0.1324  0.2555
 5105W        W 5105   9.857   1.122   2.817  0.1468 -0.0407 -0.0137
 5106W        W 5106   7.393   5.333   9.659  0.0100 -0.1301  0.4133
 5107W        W 5107   7.598   7.048   5.236  0.0204  0.0237 -0.1424
 5108W        W 5108   3.099   4.763   9.521  0.0310  0.6705  0.0208
 5109W        W 5109   8.535   8.109   8.204 -0.1978 -0.0356  0.1728
 5110W        W 5110   8.113  10.128   3.227  0.0891  0.1611 -0.0664
 5111W        W 5111   5.798   9.919   7.129  0.0309 -0.0938  0.2176
 5112W        W 5112   8.008   6.512   6.404 -0.3102  0.0762  0.0753
 5113W        W 5113   9.498   6.372   1.241 -0.3049 -0.0613 -0.0361
 5114W        W 5114   6.042   4.303   4.884 -0.0235  0.4577 -0.2603
 5115W        W 5115   5.209   1.313  10.198 -0.0664 -0.0874  0.0974
 5116W        W 5116   6.359   9.102   0.797 -0.0024 -0.0572 -0.2821
 5117W        W 5117   7.217   4.630   3.227 -0.1990 -0.4426 -0.0894
 5118W        W 5118   4.176   2.523   4.983  0.2746 -0.0429 -0.0023
 5119W        W 5119   4.959   3.414   3.244  0.0003 -0.2120 -0.3252
 5120W        W 5120   1.892   9.056   1.117  0.1837  0.0362 -0.0955
 5121W        W 5121   4.973   8.131  10.175  0.2474  0.2820  0.1348
 5122W        W 5122   4.144  10.308   5.713 -0.0444  0.0763  0.2760
 5123W        W 5123   5.862   9.867   6.362 -0.2062  0.0750 -0.0352
 5124W        W 5124   4.762   5.734   7.535  0.0263 -0.1602 -0.2482
 5125W        W 5125   5.648   0.104   0.357 -0.0395  0.1868  0.1188
 5126W        W 5126   9.392   9.193   1.243  0.3312 -0.1193  0.1443
 5127W        W 5127   5.715   3.876   1.888  0.1538 -0.1188 -0.0701
 5128W        W 5128   8.859   7.766   2.264  0.2821 -0.1760 -0.1404
 5129W        W 5129   5.779   6.009   8.726 -0.0758 -0.2128  0.0379
 5130W        W 5130   0.705   1.987   7.772  0.1575  0.3162  0.0803
 5131W        W 5131   8.717   7.449   2.607 -0.3704  0.2015 -0.0381
 5132W        W 5132   2.465   9.300   2.929 -0.1063  0.2896 -0.0346
 5133W        W 5133   1.059  10.145   8.789  0.1130  0.1836 -0.1054
 5134W        W 5134   3.995   3.572  10.120  0.3529 -0.0188 -0.0691
 5135W        W 5135   3.800   0.763   6.284 -0.0130  0.0416 -0.1435
 5136W        W 5136   7.911   0.112   9.268  0.1297 -0.1141  0.2638
 5137W        W 5137   9.429   0.501   5.673 -0.1149 -0.1543 -0.0234
 5138W        W 5138   8.713   0.554   2.606  0.0715  0.0680  0.0814
 5139W        W 5139   9.332   2.327   9.866  0.2404 -0.3135  0.0673
 5140W        W 5140   2.920   9.243   2.026 -0.1401 -0.1042  0.1019
 5141W        W 5141   4.657   3.346   4.665  0.2459 -0.0160  0.2690
 5142W        W 5142   7.517   7.430   9.404 -0.0649  0.0330  0.4685
 5143W        W 5143   7.905   2.039   7.593 -0.1540  0.1630 -0.0582
 5144W        W 5144   8.384   6.382   9.867 -0.0634  0.2831 -0.4334
 5145W        W 5145   9.977   9.971   0.105 -0.1999  0.1724  0.1132
 5146W        W 5146   1.335   1.986   8.881 -0.0378 -0.2431 -0.0285
 5147W        W 5147   9.596   2.511   0.736  0.2266  0.1134  0.4098
 5148W        W 5148   4.016   2.547   7.735 -0.0724 -0.0801 -0.0137
 5149W        W 5149   0.203   1.707   0.668 -0.0020  0.2164 -0.1126
 5150W        W 5150   6.511   3.972   6.572 -0.0399  0.0607 -0.0436
 5151W        W 5151   3.682   4.570   3.992  0.1404  0.1711  0.1141
 5152W        W 5152   1.328   1.687   5.245 -0.2793 -0.2939  0.2781
 5153W        W 5153   6.960   7.365   6.381 -0.2455  0.1718 -0.3023
 5154W        W 5154   2.065   9.122  10.012 -0.4024 -0.1283 -0.2217
 5155W        W 5155   2.394  10.212   5.086  0.0059 -0.1187 -0.1298
 5156W        W 5156   6.405   8.776   3.461  0.2287  0.0034 -0.1803
 5157W        W 5157   3.812   7.962  10.191  0.0736 -0.4760 -0.2904
 5158W        W 5158   7.636   1.116   1.729  0.1553 -0.5854  0.2700
 5159W        W 5159   4.536   9.733   2.877 -0.1693  0.0143 -0.0057
 5160W        W 5160   2.464   0.860   3.742  0.2342  0.0011  0.0126
 5161W        W 5161   3.538  10.149   8.879  0.2227  0.0698 -0.0290
 5162W        W 5162   9.178   4.188   1.730 -0.0805 -0.0846 -0.0014
 5163W        W 5163   6.890   1.258   9.014  0.2110  0.0754  0.0371
 5164W        W 5164   8.509   2.796   6.537 -0.0729 -0.1127 -0.0618
 5165W        W 5165   9.905   4.855   0.349  0.1727 -0.1092  0.2487
 5166W        W 5166   1.641   9.456   7.983  0.0270 -0.0062 -0.1401
 5167W        W 5167  10.104   4.481   7.328  0.4847 -0.1318 -0.1261
 5168W        W 5168   6.404   0.981   4.846 -0.1369 -0.0433 -0.2510
 5169W        W 5169   1.283   6.236   4.538  0.1925  0.1565 -0.1741
 5170W        W 5170   2.334   5.468   3.469  0.1345  0.1523 -0.2018
 5171W        W 5171   2.498   4.431   4.182  0.1944 -0.0794  0.2693
 5172W        W 5172   8.498   7.874   7.105 -0.0445 -0.1528  0.1781
 5173W        W 5173   1.926   9.122   2.967  0.2915 -0.0210  0.0680
 5174W        W 5174   8.851   2.383   8.531 -0.0620  0.0527  0.2231
 5175W        W 5175   4.222   5.385   9.210  0.2686 -0.1276 -0.0292
 5176W        W 5176   4.774   4.321  10.146  0.0113 -0.1323  0.0707
 5177W        W 5177   1.382   1.331   0.462 -0.3541  0.3951  0.0488
 5178W        W 5178   1.211   7.561   8.875 -0.1951 -0.1846 -0.1539
 5179W        W 5179   0.563   8.094   8.432 -0.1299 -0.0132  0.2292
 5180W        W 5180   3.673   2.064   0.150 -0.0182  0.4087  0.2340
 5181W        W 5181   1.379   0.035   0.721  0.2215  0.1642  0.0980
 5182W        W 5182   0.452   0.249   8.530 -0.0926 -0.0347  0.1662
 5183W        W 5183   5.993   1.584   1.716 -0.0951 -0.0593 -0.1051
 5184W        W 5184   9.599   7.305   3.423  0.2624  0.3876  0.1642
 5185W        W 5185   5.539   3.682   5.017  0.3822  0.0150 -0.1664
 5186W        W 5186   0.409   8.700   9.185 -0.1096 -0.2978 -0.1406
 5187W        W 5187   3.819   7.088   9.246  0.2382  0.1573 -0.0434
 5188W        W 5188   1.867   7.080   8.963  0.0043 -0.2339 -0.2802
 5189W        W 5189   4.947   1.662   3.131 -0.0645  0.2982  0.3803
 5190W        W 5190   8.261   3.273  10.156 -0.0241 -0.0128 -0.0892
 5191W        W 5191   9.666   8.603  10.045 -0.0380 -0.0392  0.0501
 5192W        W 5192   9.347   4.311   9.610  0.0690 -0.1278 -0.0944
 5193W        W 5193   9.379   5.276   5.025 -0.0572  0.0837 -0.0212
 5194W        W 5194   7.871   5.534   7.997  0.2221 -0.1497 -0.1834
 5195W        W 5195   5.432   9.625   5.356  0.2077  0.1208 -0.2394
 5196W        W 5196   6.808   5.763   7.057  0.0410 -0.1076 -0.1633
 5197W        W 5197   5.516  10.083   2.878  0.4573 -0.2519  0.1828
 5198W        W 5198   1.121   3.552   4.550  0.1141  0.5038 -0.2156
 5199W        W 5199   1.740   1.434   2.548 -0.1998  0.1972 -0.1232
 5200W        W 5200   6.256   2.909   3.512  0.1604  0.1437  0.1411
 5201W        W 5201   1.385   0.987   8.725  0.0274 -0.0076  0.0152
 5202W        W 5202   9.899   7.780   8.395  0.0982 -0.0869 -0.0540
 5203W        W 5203   2.446   2.254   0.207 -0.0406 -0.1195  0.0202
 5204W        W 5204   0.242   0.388   9.748 -0.2881 -0.0972  0.1882
 5205W        W 5205   0.804   0.871   1.861  0.2305 -0.2508  0.0033
 5206W        W 5206   6.662   9.343   8.743 -0.1710  0.2913  0.1382
 5207W        W 5207   8.467   5.249   2.489 -0.1106 -0.3733  0.1567
 5208W        W 5208   1.727   0.704   4.063 -0.3071 -0.0701 -0.2768
 5209W        W 5209  10.045   1.769   5.986  0.2915  0.2668  0.3475
 5210W        W 5210   0.136   8.005   3.913 -0.0824  0.4291  0.0051
 5211W        W 5211   0.711   3.676   1.695  0.0092  0.1471  0.2959
 5212W        W 5212   1.069   1.400   6.739  0.3486 -0.0254 -0.1950
 5213W        W 5213   3.647   1.492   0.728 -0.0397  0.0959  0.1270
 5214W        W 5214   7.533   2.440   6.843 -0.0476 -0.5335  0.1266
 5215W        W 5215   9.374   2.147   1.274  0.2297 -0.2269 -0.3217
 5216W        W 5216   8.257   1.987   4.285  0.0019 -0.0919 -0.0563
 5217W        W 5217   2.031   7.727   1.010  0.2875  0.1585 -0.0044
 5218W        W 5218   6.384   7.141   5.818  0.1445  0.2089  0.0426
 5219W        W 5219   5.570   9.974   1.535 -0.0816 -0.2143  0.0207
 5220W        W 5220   8.550   2.445   1.736 -0.1885 -0.1718  0.0923
 5221W        W 5221   0.954  10.250   5.530  0.0210 -0.0967 -0.2530
 5222W        W 5222   3.700   6.773   8.787 -0.3461 -0.5771  0.0797
 5223W        W 5223   4.508   4.859   6.678 -0.0654 -0.2008 -0.2310
 5224W        W 5224   7.770   8.757   8.833 -0.2105  0.1079 -0.0648
 5225W        W 5225   2.255   8.103   8.057  0.0028 -0.0870 -0.1339
 5226W        W 5226   4.576   9.614   8.439 -0.0828 -0.2812 -0.3275
 5227W        W 5227   3.496   2.706   5.705  0.0180  0.2680  0.3349
 5228W        W 5228   8.105   4.362   2.657  0.2040 -0.1305  0.1382
 5229W        W 5229   2.077   5.832  10.262 -0.0371  0.4369  0.2367
 5230W        W 5230   5.783   3.346  10.294  0.0235  0.1233  0.1655
 5231W        W 5231   7.718   7.990  10.104  0.2356  0.2074  0.3182
 5232W        W 5232   2.286   9.742   4.955  0.1017  0.0876  0.1900
 5233W        W 5233   4.115   1.571   7.620  0.0059 -0.0944  0.0006
 5234W        W 5234   4.847   3.843   2.969  0.1203 -0.1807 -0.0096
 5235W        W 5235   0.872   2.981   9.148 -0.0069  0.0569 -0.0948
 5236W        W 5236   2.605   8.409   6.194  0.3200 -0.1999  0.1279
 5237W        W 5237   9.466   8.927   6.744  0.0842 -0.3027  0.3509
 5238W        W 5238   7.968   2.327   9.242 -0.0813  0.2297 -0.0200
 5239W        W 5239  10.023   2.150   1.948  0.0210 -0.3566  0.1197
 5240W        W 5240   0.829   2.476   8.006 -0.2729  0.1273 -0.1927
 5241W        W 5241   8.617   7.955   3.944  0.0688 -0.1691  0.0639
 5242W        W 5242   8.269   6.840   6.047 -0.2557  0.1027 -0.1343
 5243W        W 5243   5.246   8.230   4.557  0.1411  0.1779  0.3984
 5244W        W 5244   3.490   4.914   5.077 -0.2025  0.0266  0.1492
 5245W        W 5245   5.039   6.681   9.525 -0.3252  0.1085  0.4438
 5246W        W 5246   9.754  10.248   4.610  0.1419  0.2192  0.1219
 5247W        W 5247  10.031   9.729   3.330  0.2464  0.2974 -0.1509
 5248W        W 5248   7.058   6.805   3.705  0.0996 -0.1295  0.2179
 5249W        W 5249   5.213   5.893   4.039  0.2573  0.2509 -0.0914
 5250W        W 5250   3.597  10.201   5.603  0.0704 -0.0992  0.4350
 5251W        W 5251   0.520   8.077   5.432  0.2784  0.1486 -0.1378
 5252W        W 5252   0.784   2.271   4.118 -0.0591  0.1011  0.0849
 5253W        W 5253   5.395   5.937   7.808 -0.2886 -0.0497 -0.0189
 5254W        W 5254   7.535   3.423   5.274  0.3353 -0.0646  0.3444
 5255W        W 5255   7.533   7.570   8.845 -0.3136  0.1619  0.0158
 5256W        W 5256   7.367   1.768   6.341  0.0110  0.0907  0.1820
 5257W        W 5257   2.183   9.906   5.997  0.2932 -0.0149 -0.1278
 5258W        W 5258   0.591  10.179   2.074  0.0046 -0.1751  0.0320
 5259W        W 5259   1.198   8.973   7.016  0.3043 -0.0352 -0.0012
 5260W        W 5260   2.902   7.974   0.251 -0.0345 -0.0132  0.1778
 5261W        W 5261   2.800   4.660  10.257 -0.0543  0.1841  0.1751
 5262W        W 5262   4.227   1.538   3.902  0.0640 -0.4268 -0.3927
 5263W        W 5263  10.217   5.847   6.937  0.1328  0.3648 -0.0953
 5264W        W 5264   3.679   5.437   7.030 -0.1625  0.3713  0.0932
 5265W        W 5265   2.693   8.251   1.135  0.0710 -0.0682 -0.0054
 5266W        W 5266   2.745   1.581   8.615  0.0266  0.0090  0.2776
 5267W        W 5267   7.296   3.667   6.246 -0.1566  0.4554 -0.0465
 5268W        W 5268   4.496   3.078   0.460  0.0251  0.1310 -0.4441
 5269W        W 5269   9.263   3.212   9.758 -0.1039  0.0610 -0.0905
 5270W        W 5270   4.013   4.154   8.596  0.0737 -0.0363  0.1753
 5271W        W 5271   0.752   8.438   8.079  0.0108  0.1449  0.2442
 5272W        W 5272   8.745   1.045   2.964 -0.0198 -0.3097  0.1450
 5273W        W 5273   7.481   2.717   6.372 -0.0559 -0.0357 -0.1076
 5274W        W 5274   4.160   9.266   3.558 -0.0352 -0.0949  0.2056
 5275W        W 5275   0.870   8.400   3.646  0.1783 -0.0766 -0.1659
 5276W        W 5276   8.288   2.888   1.474 -0.2009  0.1929  0.3434
 5277W        W 5277   3.253   6.910   2.699  0.1809  0.1630  0.2250
 5278W        W 5278   9.370   1.101   2.293 -0.3585 -0.0887 -0.2939
 5279W        W 5279   5.805   1.420   0.735 -0.0928  0.0478 -0.0130
 5280W        W 5280  10.227   2.577   5.299  0.0573  0.1800  0.0071
 5281W        W 5281   7.161   7.768   0.599 -0.3739 -0.0894  0.0117
 5282W        W 5282   6.617   1.646   3.677 -0.1591 -0.0654  0.0398
 5283W        W 5283   1.648   1.011   7.346 -0.1718  0.1043 -0.0481
 5284W        W 5284   1.649   7.398   1.001 -0.1030 -0.2607 -0.1446
 5285W        W 5285   8.524   4.244   6.683 -0.0901 -0.1440 -0.2675
 5286W        W 5286   5.138   1.031   5.372  0.0932  0.0851  0.0736
 5287W        W 5287   6.878   9.697   1.707  0.1266 -0.0609  0.2456
 5288W        W 5288   7.346   9.363   4.241  0.2211  0.0955  0.0105
 5289W        W 5289   8.119   4.922   6.450 -0.0914  0.1474  0.0736
 5290W        W 5290   1.903   5.970   9.723  0.1528 -0.1123 -0.1692
 5291W        W 5291   8.100   3.885   6.657 -0.0187 -0.1566  0.1080
 5292W        W 5292   7.856   4.573   1.142  0.1132  0.2197  0.1685
 5293W        W 5293  10.196   0.586  10.012 -0.1144  0.2255  0.2948
 5294W        W 5294   3.869   9.982   0.200  0.0070 -0.2778 -0.0147
 5295W        W 5295   7.539   9.820   4.163 -0.2252 -0.0753 -0.0746
 5296W        W 5296   0.656   9.205   6.772 -0.2795  0.1600 -0.2730
 5297W        W 5297   3.330   1.040   6.254 -0.1494 -0.0513  0.2447
 5298W        W 5298   3.606   7.773   2.529  0.1200 -0.0196  0.0019
 5299W        W 5299  10.279   2.860   2.740 -0.0072  0.1715 -0.2480
 5300W        W 5300   3.442   6.756   3.173  0.0650 -0.1496 -0.0053
 5301W        W 5301   1.353   4.094  10.156  0.1247  0.1542  0.0226
 5302W        W 5302   8.271  10.035   6.426  0.1658 -0.1432  0.0469
 5303W        W 5303   7.665   5.849   0.686  0.1938  0.0287 -0.2725
 5304W        W 5304   1.269   9.499   1.952 -0.0433  0.2199 -0.0632
 5305W        W 5305   7.901   4.554   4.974  0.1706 -0.2167 -0.1984
 5306W        W 5306   7.027   1.430   9.984  0.1721  0.1122  0.0717
 5307W        W 5307   2.764   5.192   1.048  0.0406  0.5179 -0.1924
 5308W        W 5308   8.747   7.041   2.957 -0.1054  0.0479 -0.2346
 5309W        W 5309   0.101   9.751   3.606 -0.3225  0.0691  0.2775
 5310W        W 5310   0.140   6.833   4.492  0.3994 -0.1352  0.1107
 5311W        W 5311   1.049   9.657   8.329 -0.1730 -0.0225 -0.1839
 5312W        W 5312   7.777   9.474   4.489 -0.2091  0.3183  0.0219
 5313W        W 5313   1.273   7.731   6.782  0.1049  0.0650  0.2533
 5314W        W 5314   4.725   2.483   5.061  0.0512 -0.2783  0.0177
 5315W        W 5315   0.242   3.181   8.810 -0.1070 -0.3237 -0.1759
 5316W        W 5316   9.082   4.169   3.066  0.1382  0.2097  0.3553
 5317W        W 5317   9.615   0.395   8.764  0.0739 -0.0697  0.1185
 5318W        W 5318   9.904   5.186   8.065 -0.0983  0.0091 -0.1964
 5319W        W 5319   5.537   5.068   7.654  0.1048 -0.0409 -0.3321
 5320W        W 5320   9.263   1.646   2.645 -0.0342  0.0694  0.0698
 5321W        W 5321   7.291   0.180   0.147  0.0248  0.0725 -0.1787
 5322W        W 5322   8.282  10.097   1.532 -0.0237 -0.0140  0.0934
 5323W        W 5323   3.321   7.329   2.930 -0.2441  0.1949  0.1071
 5324W        W 5324   1.105   8.499   6.198 -0.1477  0.0869  0.1190
 5325W        W 5325   5.601   5.200   1.735 -0.0743  0.0109  0.2948
 5326W        W 5326   0.331   6.619   0.683 -0.2151 -0.2023  0.0108
 5327W        W 5327   1.082   3.450   8.926  0.0150 -0.1388 -0.0151
 5328W        W 5328   6.513   1.433   0.314 -0.1213  0.1329 -0.0153
 5329W        W 5329   0.582   6.839   8.980  0.0421  0.1878  0.1385
 5330W        W 5330   4.619   6.976   7.606 -0.2749 -0.0224 -0.0481
 5331W        W 5331   0.972   6.133   8.845  0.2789  0.2766  0.1757
 5332W        W 5332   1.334   8.328   9.975  0.1519  0.2274  0.0790
 5333W        W 5333   3.945   0.027   3.290  0.0748 -0.1140 -0.0894
 5334W        W 5334   5.093   8.352   3.868  0.2552 -0.3561 -0.1036
 5335W        W 5335   3.420   9.482   6.538  0.1235 -0.4913  0.0354
 5336W        W 5336   2.516   3.032   9.717 -0.2318  0.0828  0.0142
 5337W        W 5337   1.560   6.536   0.116  0.5701 -0.0342 -0.3901
 5338W        W 5338   0.439   0.571  10.143  0.2883 -0.3049 -0.0388
 5339W        W 5339   0.143   8.083   9.962 -0.1404  0.0434 -0.1979
 5340W        W 5340   4.983   4.401   1.582  0.0446 -0.1116  0.0767
 5341W        W 5341   2.878   6.265   7.491 -0.0461  0.0877 -0.0536
 5342W        W 5342  10.073   8.940  10.064  0.2387  0.0119 -0.3643
 5343W        W 5343   9.745   4.686   3.790 -0.4652 -0.0006  0.1631
 5344W        W 5344   2.492   2.710   6.385 -0.5027 -0.0145  0.1093
 5345W        W 5345   0.596   0.954   7.428 -0.1697 -0.1542  0.1338
 5346W        W 5346   0.155   2.461   1.973  0.2878 -0.1024 -0.0822
 5347W        W 5347   4.236   4.051   3.190 -0.1236  0.0656  0.0998
 5348W        W 5348   8.903   3.459   6.758  0.2217  0.4388  0.0033
 5349W        W 5349   4.246   8.448   9.521 -0.1077  0.2868  0.1233
 5350W        W 5350   9.993   6.354   3.514  0.2779 -0.0723  0.2407
 5351W        W 5351   8.451   4.057   3.962  0.2092  0.3593 -0.0467
 5352W        W 5352   1.900   3.430   6.301  0.0729  0.1369  0.0831
 5353W        W 5353   3.815   8.861   5.030 -0.0461 -0.0443  0.0408
 5354W        W 5354   8.675   0.063   0.207  0.0442  0.1835 -0.0992
 5355W        W 5355   2.484   0.604   0.867  0.2428  0.0694 -0.0924
 5356W        W 5356   6.064   5.355   8.186 -0.0202  0.0972  0.0396
 5357W        W 5357   2.241   8.488   5.879 -0.1413 -0.2975 -0.0944
 5358W        W 5358   5.187   8.809   5.517  0.2843  0.0694  0.1474
 5359W        W 5359   6.157   6.134   6.388  0.2356  0.0077  0.1496
 5360W        W 5360   3.511   8.250   2.809 -0.3409  0.2589 -0.0870
 5361W        W 5361   9.291  10.005   3.761  0.3869  0.0308  0.2119
 5362W        W 5362   5.016   7.491   7.508  0.1565 -0.0002 -0.1101
 5363W        W 5363   5.658   2.587   6.738 -0.2698 -0.0992  0.2418
 5364W        W 5364   9.245   9.463   9.936 -0.1486  0.2682 -0.0378
 5365W        W 5365   2.229   8.594   0.886 -0.1684  0.2510  0.0705
 5366W        W 5366   4.046   0.243   9.923 -0.1275  0.0706  0.0801
 5367W        W 5367   0.019   0.814   4.891  0.0000  0.1522  0.2749
 5368W        W 5368   1.749   5.069   7.418 -0.2191 -0.4562 -0.0281
 5369W        W 5369   1.418   1.881   9.701  0.3263  0.0683 -0.0161
 5370W        W 5370   0.969  10.068   0.827 -0.3249  0.1118 -0.3529
 5371W        W 5371   2.007   2.540   8.276  0.1046 -0.3187  0.1467
 5372W        W 5372   1.253   8.465   0.531 -0.1672  0.3151  0.1896
 5373W        W 5373   4.504   9.057   9.317 -0.1371 -0.2445 -0.1869
 5374W        W 5374   6.251   8.929   8.815  0.1071 -0.1086 -0.0212
 5375W        W 5375   8.992   8.016   9.575  0.0290 -0.1026  0.4704
 5376W        W 5376   8.747   6.444   9.298 -0.1417  0.0415  0.5150
 5377W        W 5377   8.490   9.913   8.860  0.0403 -0.0209 -0.0082
 5378W        W 5378   9.693   4.001   4.307  0.1058  0.2170 -0.0342
 5379W        W 5379   9.131   0.763   2.709 -0.1549 -0.0855  0.0398
 5380W        W 5380   6.776   3.420   0.893  0.3372  0.2580 -0.1750
 5381W        W 5381   8.187  10.073   4.081  0.2221  0.2831  0.1734
 5382W        W 5382   6.870   4.667   7.069 -0.2060  0.1613  0.0475
 5383W        W 5383   1.712   0.933   4.499 -0.3177  0.1154 -0.0393
 5384W        W 5384   3.333   0.256   3.289 -0.3622  0.1282  0.2487
 5385W        W 5385   6.041  10.173   7.538 -0.1710  0.0913  0.0850
 5386W        W 5386   4.843   3.697   4.293 -0.2393 -0.2761  0.0075
 5387W        W 5387   7.809   0.463   9.637 -0.0794 -0.1886 -0.1572
 5388W        W 5388   9.700   1.242   6.762 -0.2291  0.1522 -0.0128
 5389W        W 5389   7.990   0.882   0.077  0.0230 -0.2126 -0.1256
 5390W        W 5390   1.278   0.628   1.784 -0.4852  0.1411 -0.0373
 5391W        W 5391   9.514   6.013   2.352 -0.0186 -0.0455 -0.1959
 5392W        W 5392   4.141   9.426   9.295  0.0302  0.0088  0.0836
 5393W        W 5393   9.132   8.007   3.714  0.2458  0.0377  0.0386
 5394W        W 5394   1.082   1.272   9.436  0.0857 -0.1105 -0.0079
 5395W        W 5395   8.276   2.146   3.466 -0.0227  0.1929  0.4131
 5396W        W 5396   3.117   4.510   5.971 -0.1137  0.2933 -0.1041
 5397W        W 5397  10.047   1.437   5.451  0.1528  0.0386  0.1845
 5398W        W 5398   7.139   2.027   0.173 -0.0485 -0.1481 -0.3500
 5399W        W 5399   2.440   7.612   4.102 -0.3656  0.0447  0.0848
 5400W        W 5400   3.734   0.604   1.629  0.1213  0.0255 -0.0374
 5401W        W 5401   5.540   7.119   5.492  0.2917 -0.2977 -0.2594
 5402W        W 5402   3.824   3.656   1.253 -0.0447 -0.1747  0.1630
 5403W        W 5403   0.171   8.871   5.850  0.2467  0.1759 -0.0463
 5404W        W 5404   2.276   9.752   1.341 -0.3013  0.3170  0.4039
 5405W        W 5405   5.883   8.561   9.133  0.0560 -0.1724  0.0951
 5406W        W 5406   8.581   1.610   1.897 -0.3489 -0.0704 -0.2494
 5407W        W 5407   1.554   3.416   3.341 -0.0940  0.3184 -0.1654
 5408W        W 5408   1.952   9.023   8.585 -0.0187  0.1455  0.0623
 5409W        W 5409   1.571   8.877   2.689 -0.0367  0.3403 -0.0287
 5410W        W 5410   9.771   7.466   0.409  0.2718 -0.1195 -0.1335
 5411W        W 5411   9.262   1.717   5.338  0.1569 -0.3494  0.1054
 5412W        W 5412   5.771   1.907   7.445 -0.2333  0.0696 -0.2627
 5413W        W 5413   5.815   2.664   3.677 -0.0895 -0.0644  0.1513
 5414W        W 5414   9.477   1.050   3.741  0.2247 -0.2777 -0.0375
 5415W        W 5415  10.144   0.911   5.389 -0.0277 -0.1870 -0.1534
 5416W        W 5416   5.931   2.919   5.126  0.2697 -0.1583  0.0904
 5417W        W 5417   1.956   6.570   3.163 -0.0461 -0.0428 -0.0409
 5418W        W 5418   1.181  10.026   0.031 -0.0913  0.0207 -0.2604
 5419W        W 5419   2.996   6.168   3.822  0.3125 -0.2373  0.1709
 5420W        W 5420   6.892   7.462   7.758 -0.0664 -0.3032  0.4225
 5421W        W 5421   6.630   9.118   6.084  0.0871 -0.1780 -0.0253
 5422W        W 5422  10.305   3.311   2.004  0.0664 -0.1919  0.0819
 5423W        W 5423   2.776   8.817   1.846 -0.1057  0.5127 -0.0767
 5424W        W 5424   4.870   9.513   9.820 -0.1524 -0.1432 -0.1835
 5425W        W 5425   0.324   2.374   0.375 -0.1311 -0.0006  0.0688
 5426W        W 5426   3.757   8.919   5.578 -0.0568  0.1418  0.0004
 5427W        W 5427   3.889  10.253   5.156 -0.3174  0.3186  0.0679
 5428W        W 5428   9.870   0.880   5.778  0.0324  0.3316 -0.0752
 5429W        W 5429   6.096   0.555   1.322  0.1808  0.4202 -0.0114
 5430W        W 5430   6.815   0.325   9.205 -0.2519  0.1072  0.0320
 5431W        W 5431   0.735   3.004   3.565  0.2699  0.1743 -0.1286
 5432W        W 5432   7.392   6.706   5.728  0.1215 -0.0274  0.2806
 5433W        W 5433   9.873   5.035  10.178  0.1871  0.1898 -0.0214
 5434W        W 5434   0.015   0.081   2.974  0.1463 -0.0610 -0.2355
 5435W        W 5435   1.280   9.221  10.250  0.2243 -0.0721  0.1870
 5436W        W 5436   4.725   0.484   4.277  0.1328 -0.1792  0.3386
 5437W        W 5437   1.642   9.297   4.519  0.2481  0.0230  0.0858
 5438W        W 5438   8.206   4.318   8.084 -0.0174  0.0618  0.1064
 5439W        W 5439   5.636   2.463  10.283 -0.2022  0.0084 -0.2067
 5440W        W 5440   5.071   1.771   6.524 -0.3008  0.0540 -0.3556
 5441W        W 5441   0.537   8.683   4.369  0.2952  0.0723 -0.3540
 5442W        W 5442   0.650   1.039  10.314  0.0905 -0.2305 -0.2406
 5443W        W 5443   3.581   3.868   2.686  0.1155  0.3069 -0.1503
 5444W        W 5444   9.192   2.037   4.271 -0.0895 -0.1390  0.1060
 5445W        W 5445   0.854   3.081   2.939 -0.1468  0.2501 -0.1996
 5446W        W 5446   8.050   5.146   2.256  0.0580  0.1570  0.0748
 5447W        W 5447   5.359   1.089   2.541 -0.0700  0.1864 -0.0756
 5448W        W 5448   2.803   5.690   9.541 -0.1538  0.0413 -0.1222
 5449W        W 5449   1.595   0.479   3.615 -0.2611  0.0250 -0.2094
 5450W        W 5450   8.218   5.700  10.279  0.0842 -0.1302 -0.1440
 5451W        W 5451   2.542   5.399   5.691 -0.2276 -0.2771 -0.0853
 5452W        W 5452   3.450   1.889   8.290 -0.0476  0.1833 -0.1437
 5453W        W 5453   6.981   1.260   6.193 -0.2024  0.0658  0.2636
 5454W        W 5454   9.407   0.391   1.036  0.0643  0.0245  0.2209
 5455W        W 5455   8.009   3.261   0.588 -0.0682  0.1688  0.0261
 5456W        W 5456   1.858   6.530   6.293  0.1247 -0.2254  0.1144
 5457W        W 5457   2.255   9.598   8.876 -0.0441  0.2046 -0.1270
 5458W        W 5458   8.896   4.562   5.764 -0.1094 -0.0551  0.5042
 5459W        W 5459   2.940   0.965   0.381 -0.0455  0.0308  0.0457
 5460W        W 5460   8.222   0.799   8.681  0.1044 -0.1245  0.3844
 5461W        W 5461   3.457   5.410   5.314 -0.1607 -0.1060  0.0468
 5462W        W 5462   1.920   1.733   7.596  0.1047  0.0698  0.1453
 5463W        W 5463   9.529   5.611   2.628 -0.2110  0.0819 -0.2214
 5464W        W 5464   4.796   1.380   6.413 -0.1518  0.0005  0.0299
 5465W        W 5465   3.665   7.500   8.423 -0.3346 -0.0008  0.2265
 5466W        W 5466   5.552   8.917   5.081  0.0098 -0.3591  0.3190
 5467W        W 5467   3.159   4.156   5.613  0.2516  0.1318  0.1317
 5468W        W 5468   2.604   7.754   2.764 -0.2300  0.0737  0.0137
 5469W        W 5469   7.316   6.960   4.795  0.1371  0.2125  0.2431
 5470W        W 5470  10.096   3.918   7.833 -0.1026 -0.0468  0.0537
 5471W        W 5471   4.410   7.613   4.679  0.2118 -0.2882 -0.1071
 5472W        W 5472   5.442   7.216   4.436  0.0167  0.2995 -0.2794
 5473W        W 5473   4.095   6.942   0.717 -0.0803  0.1006 -0.2288
 5474W        W 5474   3.739   3.932   3.370  0.0200 -0.3780 -0.0380
 5475W        W 5475   3.690  10.255   2.495 -0.2599  0.2556  0.3096
 5476W        W 5476   5.589   9.972   9.350  0.1932 -0.3493  0.2469
 5477W        W 5477  10.180   0.224   0.348 -0.1425 -0.2248 -0.1780
 5478W        W 5478   5.713   8.587   6.936  0.0750  0.1794 -0.0817
 5479W        W 5479   7.484   5.760   8.291 -0.3460  0.2469 -0.1698
 5480W        W 5480   0.158   0.266   9.180 -0.1490  0.0725  0.0537
 5481W        W 5481   1.225   3.782   4.134 -0.1565  0.0204  0.1901
 5482W        W 5482   2.350   0.895   9.035  0.0454 -0.1512  0.2121
 5483W        W 5483   3.236   3.304   4.025  0.3246 -0.2018 -0.0933
 5484W        W 5484   7.050   8.932   1.596  0.1042 -0.1099  0.1836
 5485W        W 5485   9.274   8.179   3.252  0.0878 -0.2112  0.4093
 5486W        W 5486   0.855   7.067   1.044  0.2189 -0.0509 -0.0812
 5487W        W 5487   2.647   4.189   9.807  0.2791  0.1769  0.1016
 5488W        W 5488  10.226   9.375   9.911 -0.0440 -0.1069  0.3133
 5489W        W 5489   8.038   6.740   7.135  0.0095 -0.1023  0.0070
 5490W        W 5490   4.150   5.777   8.929  0.1210  0.3238 -0.1608
 5491W        W 5491   5.821   9.022   2.205 -0.1393  0.1366 -0.0959
 5492W        W 5492   2.352   6.050   9.848  0.2164 -0.2066  0.2779
 5493W        W 5493   3.425   9.491   2.392 -0.0445 -0.0934 -0.2249
 5494W        W 5494   8.760   7.368   1.203 -0.2974 -0.0199 -0.2922
 5495W        W 5495   4.549   2.354   4.158 -0.2115 -0.1088  0.3319
 5496W        W 5496   3.298   1.352   2.883 -0.0036 -0.0160  0.1476
 5497W        W 5497   9.016   1.398   9.474  0.1180  0.1138 -0.0812
 5498W        W 5498   3.525   8.719   3.487 -0.0976 -0.1170  0.1680
 5499W        W 5499  10.091   9.115   8.089 -0.0834  0.2096  0.1096
 5500W        W 5500   8.152  10.040   7.578  0.0905 -0.0281 -0.2486
 5501W        W 5501   5.404   6.910   3.404 -0.3504 -0.1584 -0.2274
 5502W        W 5502   5.120   0.466   3.791  0.1119 -0.2828 -0.1988
 5503W        W 5503   2.889   6.161   9.824  0.2837 -0.0646 -0.0576
 5504W        W 5504   9.449   4.809   6.467 -0.1497 -0.2152 -0.0817
 5505W        W 5505  10.142   1.638   1.076  0.0432  0.3112  0.0548
 5506W        W 5506   0.671   0.153   9.509 -0.1035 -0.2565  0.0224
 5507W        W 5507   5.119   5.580   0.949 -0.1403 -0.1420  0.0802
 5508W        W 5508   6.660   8.868   5.619  0.2417  0.0346  0.0951
 5509W        W 5509   3.093   2.666   8.088 -0.1277 -0.0311  0.1691
 5510W        W 5510   4.659   6.517   1.514  0.0566 -0.2043 -0.4144
 5511W        W 5511   7.124   3.157   4.103 -0.0842 -0.3548  0.3769
 5512W        W 5512   7.584   0.294   3.140 -0.2651  0.1139  0.0163
 5513W        W 5513   7.257   4.239   2.731 -0.0879 -0.1172 -0.1259
 5514W        W 5514   4.713   1.583   0.421 -0.1656  0.0701  0.2678
 5515W        W 5515   8.995   6.555   7.568 -0.4718  0.0594 -0.0786
 5516W        W 5516   1.458   3.334   4.158 -0.3768  0.1041  0.3114
 5517W        W 5517   0.792   2.243   7.352 -0.2052  0.0347  0.0569
 5518W        W 5518   3.017   8.630   6.568  0.0172 -0.1533  0.1971
 5519W        W 5519   0.911   9.028   2.063 -0.0272  0.1318 -0.0493
 5520W        W 5520   6.231   9.650   7.789  0.1200  0.3438  0.0740
 5521W        W 5521   8.382   9.508   8.245  0.0320  0.0812  0.0131
 5522W        W 5522   9.133   7.016   7.964  0.4366 -0.1484 -0.0314
 5523W        W 5523   2.486   9.678   9.340 -0.0720 -0.1079 -0.0570
 5524W        W 5524   1.530   5.117   6.359  0.0392  0.0101  0.1620
 5525W        W 5525   1.085   0.105   9.189  0.0409  0.1505  0.0716
 5526W        W 5526   1.832   5.164   8.911  0.0578  0.1433  0.0689
 5527W        W 5527   2.501   1.704   6.657  0.1606  0.1403 -0.1461
 5528W        W 5528   7.346   4.901   9.294  0.0741 -0.1539  0.0103
 5529W        W 5529   7.647   6.618   1.844 -0.1244 -0.0908  0.1276
 5530W        W 5530   7.466  10.307   1.874 -0.3376  0.2260  0.1420
 5531W        W 5531   1.289   7.086   0.878  0.0636 -0.0237 -0.0741
 5532W        W 5532   8.058   5.247   9.114 -0.1136  0.2626  0.2341
 5533W        W 5533   7.639   9.976   2.247  0.1693  0.1756  0.1109
 5534W        W 5534   2.784   7.177   4.266 -0.2707  0.0264  0.1028
 5535W        W 5535   8.373   2.210  10.287  0.2348 -0.0722 -0.0096
 5536W        W 5536   6.977   4.613   9.071  0.0275  0.3450 -0.0127
 5537W        W 5537   3.110   9.635  10.125  0.1451  0.1007 -0.5510
 5538W        W 5538   1.124   9.087   2.608 -0.3469  0.0230  0.0592
 5539W        W 5539   5.014   7.891   2.881  0.0159 -0.0590 -0.0535
 5540W        W 5540   1.096   6.306   0.902 -0.1754 -0.1205  0.0806
 5541W        W 5541   8.982   4.685   8.366 -0.2294  0.3796  0.2028
 5542W        W 5542   1.354   3.975   8.981  0.1626  0.2955 -0.1762
 5543W        W 5543   2.200   2.913   9.343 -0.2561 -0.1661  0.2077
 5544W        W 5544   0.108   1.691   6.840  0.0196  0.0124 -0.0482
 5545W        W 5545   2.108   3.959   4.209  0.0673  0.0179  0.2925
 5546W        W 5546   3.427   0.623   5.329 -0.2862 -0.0481  0.1008
 5547W        W 5547   2.061   7.256   0.277  0.1039  0.0290 -0.3912
 5548W        W 5548  10.126   5.013   4.016  0.2669  0.1688 -0.0812
 5549W        W 5549   3.312   4.553   4.755  0.2412 -0.0896  0.2174
 5550W        W 5550   2.305   1.836   3.191  0.1668  0.0983 -0.1956
 5551W        W 5551   3.001   9.007   7.443 -0.2427 -0.4299  0.2122
 5552W        W 5552   1.922   5.800   3.124 -0.1649  0.0593 -0.1470
 5553W        W 5553   8.490   8.813   4.588 -0.1364  0.2459 -0.3069
 5554W        W 5554   7.232   5.391   8.531  0.0931  0.0621 -0.3222
 5555W        W 5555   3.094   5.161   5.114  0.0998 -0.2142 -0.3095
 5556W        W 5556   7.571   8.789   1.074  0.0973 -0.1120  0.0772
 5557W        W 5557   0.993   5.393   1.162  0.3749  0.1771  0.0775
 5558W        W 5558   8.495   3.600   4.117  0.1533  0.0590  0.0619
 5559W        W 5559   2.337   4.828   3.936  0.1818  0.2295  0.0420
 5560W        W 5560   1.324   0.093   8.039  0.0102  0.0780 -0.0073
 5561W        W 5561   3.399   0.473   8.110 -0.3518  0.1164 -0.1548
 5562W        W 5562   8.503   9.641   1.760 -0.1156  0.4116  0.2297
 5563W        W 5563   4.483   4.752   0.769  0.3027  0.2428 -0.2114
 5564W        W 5564   9.898   5.308   4.341  0.0030 -0.1698  0.2472
 5565W        W 5565   1.447   1.013   9.726  0.2454  0.1779  0.1630
 5566W        W 5566   8.107   0.917   9.540  0.0935  0.0790  0.0126
 5567W        W 5567   3.136   9.486   5.247 -0.2204 -0.2671 -0.0440
 5568W        W 5568   1.786   6.502   7.486 -0.1129 -0.1261  0.0371
 5569W        W 5569   6.491   7.034   5.257  0.0548  0.2177 -0.2099
 5570W        W 5570   8.910   4.307   7.537  0.0317 -0.2118  0.1543
 5571W        W 5571   6.653   4.352   2.373 -0.1900 -0.0205 -0.4543
 5572W        W 5572   9.004   0.017   5.192 -0.0885  0.1719  0.0929
 5573W        W 5573   8.355   2.903   4.977 -0.0869  0.1264 -0.0969
 5574W        W 5574   5.638   8.239   2.635 -0.1967 -0.0068  0.0086
 5575W        W 5575   4.779   4.507   6.270  0.0043 -0.0952  0.1164
 5576W        W 5576   8.846   0.309   9.122  0.1175 -0.0925 -0.2494
 5577W        W 5577   9.824   6.420   8.378 -0.1372 -0.0715 -0.2631
 5578W        W 5578   6.789   5.022  10.239 -0.2569 -0.0396 -0.2662
 5579W        W 5579   0.964   1.027   3.814  0.2490  0.1401 -0.0803
 5580W        W 5580   6.330   9.543   2.293  0.2840  0.0752 -0.1871
 5581W        W 5581   7.636   4.790   5.390 -0.2050 -0.2071 -0.0801
 5582W        W 5582   1.315   8.396   3.366 -0.2208 -0.0987 -0.1538
 5583W        W 5583   6.380  10.250   2.721 -0.0655  0.2411 -0.4108
 5584W        W 5584   2.300   9.129   0.111  0.0017  0.2563  0.0883
 5585W        W 5585   8.085   1.874   1.949 -0.2126  0.2022 -0.2807
 5586W        W 5586   8.989   4.751   3.704  0.0694  0.1306 -0.0859
 5587W        W 5587   7.317   5.962   3.836  0.0694  0.2566  0.0330
 5588W        W 5588   2.266   5.873   7.203  0.0390 -0.0977  0.3241
 5589W        W 5589   0.984   6.496   7.430 -0.2790 -0.1704  0.0537
 5590W        W 5590   7.302   9.706   6.926  0.0594 -0.2715  0.0041
 5591W        W 5591   1.041   3.209   9.621  0.1625 -0.0543 -0.1292
 5592W        W 5592   5.933   0.983   4.983  0.2291  0.0698 -0.2413
 5593W        W 5593   0.706   4.073   3.413  0.0512  0.0671 -0.0094
 5594W        W 5594   4.838   4.734   8.501  0.1048 -0.4662 -0.0019
 5595W        W 5595   2.004   7.138   3.004  0.1455 -0.1501 -0.1094
 5596W        W 5596   3.645   4.363   8.936  0.1578  0.2653  0.2175
 5597W        W 5597   8.050   0.901   7.517  0.3500  0.0767 -0.2524
 5598W        W 5598   9.902   2.782   9.371 -0.0893  0.0136 -0.0197
 5599W        W 5599   6.163   2.271   2.244  0.2181  0.0012 -0.0961
 5600W        W 5600   7.383   7.900   2.444 -0.0617  0.3043  0.2301
 5601W        W 5601   8.407   2.458   4.799 -0.2601 -0.0156  0.0448
 5602W        W 5602   8.633   1.042   4.071  0.3847 -0.2295  0.0341
 5603W        W 5603   2.772  10.287   3.981  0.1216  0.0524  0.3664
 5604W        W 5604   6.788   0.487   2.931 -0.0878  0.0679  0.1410
 5605W        W 5605   6.635   3.431   9.617  0.4544  0.2816  0.1671
 5606W        W 5606   8.048   3.324   1.921  0.1093 -0.1576 -0.0427
 5607W        W 5607   1.015   9.239   5.685  0.0126 -0.1873 -0.3279
 5608W        W 5608   6.790   3.731   7.999 -0.2459 -0.0655 -0.0333
 5609W        W 5609   8.098   6.852   1.953  0.1197 -0.1779 -0.1182
 5610W        W 5610   8.013   2.892   7.836 -0.1471  0.0214 -0.0985
 5611W        W 5611  10.111  10.196   3.750 -0.2584  0.1410  0.1476
 5612W        W 5612   8.205   0.165   9.785 -0.1637 -0.1934 -0.0694
 5613W        W 5613   0.369   7.286   9.346 -0.4161  0.1043 -0.1586
 5614W        W 5614   4.431   3.596   0.535 -0.0553  0.0183 -0.3042
 5615W        W 5615   4.051   6.375   9.691 -0.0398  0.2202 -0.2737
 5616W        W 5616   2.264   1.313   3.574  0.0102  0.1709  0.4897
 5617W        W 5617   0.744   4.211   1.175  0.2621  0.0028 -0.2733
 5618W        W 5618   0.817   7.673   2.272  0.2071  0.1674  0.1862
 5619W        W 5619   3.145   5.388   9.807 -0.0731 -0.1728  0.1309
 5620W        W 5620   7.792   8.325   1.198  0.3187  0.2059 -0.1341
 5621W        W 5621   2.332   4.663   5.254 -0.0171  0.0535 -0.0205
 5622W        W 5622   8.298   5.449   0.416 -0.2109 -0.1571 -0.1879
 5623W        W 5623   1.947   7.297   3.930  0.0512  0.0707 -0.4676
 5624W        W 5624   7.676   5.642   5.524  0.1960 -0.1541  0.1364
 5625W        W 5625   1.685   6.454   9.826  0.0085 -0.0707 -0.1979
 5626W        W 5626   2.584   3.746   8.819 -0.1221  0.2729  0.3844
 5627W        W 5627   9.834   2.902   5.267 -0.3729 -0.4572  0.0322
 5628W        W 5628   1.394   9.261   8.454  0.3544 -0.1943  0.0425
 5629W        W 5629   4.591   2.952   2.575  0.0160 -0.3701  0.0793
 5630W        W 5630   6.679   4.596   6.301  0.3265 -0.0226 -0.1289
 5631W        W 5631   6.581   0.119   9.686 -0.2677 -0.4817  0.1914
 5632W        W 5632   9.612   8.291   7.739 -0.0151  0.1205  0.0750
 5633W        W 5633   7.993   2.597  10.337  0.1850 -0.4263 -0.0412
 5634W        W 5634   7.714   1.717   9.161 -0.1208  0.1966 -0.1046
 5635W        W 5635   0.942   0.471   9.917  0.1116  0.3125  0.0408
 5636W        W 5636   3.539   8.550   5.313  0.0015 -0.0846 -0.1896
 5637W        W 5637   4.402   3.368   0.065 -0.4016 -0.1753 -0.0260
 5638W        W 5638   6.674  10.271   0.960 -0.0784  0.0330 -0.1367
 5639W        W 5639   1.313   3.513   8.374 -0.0740 -0.1385  0.0064
 5640W        W 5640   5.808   6.973   4.101  0.0412 -0.0433  0.1125
 5641W        W 5641   2.397   0.051   2.475  0.0568 -0.3371 -0.2826
 5642W        W 5642   8.948   0.574   0.997 -0.0625 -0.2761 -0.1947
 5643W        W 5643   0.885   1.744   6.392  0.1705 -0.0336 -0.0580
 5644W        W 5644   3.976   6.074   0.900  0.1559  0.0987  0.2551
 5645W        W 5645   6.114   7.853   4.992  0.0776 -0.1226  0.0469
 5646W        W 5646   1.532   8.474   1.503 -0.2855  0.1688  0.0363
 5647W        W 5647   6.704   3.311   1.659 -0.1226  0.0239 -0.1549
 5648W        W 5648   2.626   9.413   5.061  0.1830 -0.0898  0.0132
 5649W        W 5649   4.016   7.069   4.958 -0.2655  0.2724 -0.0194
 5650W        W 5650   9.974  10.230   6.828  0.1163 -0.2204 -0.1436
 5651W        W 5651  10.159   1.314   7.117 -0.2143 -0.0096  0.2332
 5652W        W 5652   2.353   4.056   1.449 -0.0047  0.0355 -0.4599
 5653W        W 5653   6.232   9.380   2.787 -0.0942 -0.1987  0.0841
 5654W        W 5654   3.993   1.336   8.804  0.4190 -0.2291 -0.0363
 5655W        W 5655   4.091   0.888   0.569 -0.1342  0.2593  0.0699
 5656W        W 5656   3.979   5.885   4.125  0.3038  0.1243  0.0059
 5657W        W 5657   7.685   8.891   9.702 -0.1837 -0.4402 -0.0591
 5658W        W 5658   6.680   6.889   3.200 -0.0988  0.0885  0.1070
 5659W        W 5659   6.084   7.549   9.675 -0.1754 -0.0375  0.2889
 5660W        W 5660   8.140   0.503  10.176 -0.2698 -0.5028 -0.1028
 5661W        W 5661   9.710   4.415   0.658  0.0751 -0.3455  0.0237
 5662W        W 5662   2.392   6.766   5.115 -0.2750  0.1006 -0.0882
 5663W        W 5663   0.972   4.019   7.864  0.3325  0.0904  0.1643
 5664W        W 5664   7.253   5.890   5.472  0.0922  0.1490 -0.1865
 5665W        W 5665   8.428   7.888   9.552  0.0493  0.1454  0.2060
 5666W        W 5666   6.640   7.181   0.892  0.1130  0.2163 -0.3834
 5667W        W 5667   2.259  10.109   0.985  0.1177  0.0327 -0.1496
 5668W        W 5668   9.061   6.328   8.119  0.2244 -0.1451  0.1935
 5669W        W 5669   9.423   6.811   7.589  0.0169  0.0847  0.0305
 5670W        W 5670   3.114   5.311   0.032 -0.0587 -0.1056 -0.0204
 5671W        W 5671   2.535   1.427  10.002 -0.0593  0.1390  0.1879
 5672W        W 5672   0.464   9.602   7.512  0.2830  0.0042 -0.0639
 5673W        W 5673   1.427   5.489   1.034 -0.1289  0.0546  0.0433
 5674W        W 5674   4.350   1.367   1.486 -0.0398 -0.0739  0.0282
 5675W        W 5675   1.147   1.285   3.374 -0.2783 -0.2947 -0.1125
 5676W        W 5676   6.617   7.774   8.294  0.1962  0.0016  0.0872
 5677W        W 5677   6.230   7.514   8.128 -0.1125 -0.1250 -0.0148
 5678W        W 5678   0.137   9.024   6.786  0.1227 -0.1348 -0.0202
 5679W        W 5679   5.857   9.866   3.379  0.0549 -0.2482 -0.0443
 5680W        W 5680   8.043   9.089   7.516  0.0932 -0.4813  0.1962
 5681W        W 5681   9.864   7.968   7.231 -0.1316 -0.2111 -0.0541
 5682W        W 5682   9.414   7.485   8.415 -0.1294 -0.0906  0.2109
 5683W        W 5683   5.322   4.935   1.016  0.1436  0.2175 -0.1097
 5684W        W 5684   2.838   1.164   2.913  0.1643 -0.1219 -0.2305
 5685W        W 5685   8.828   4.958  10.166  0.1535 -0.0929  0.1156
 5686W        W 5686   4.036   6.219  10.166  0.0180 -0.3360 -0.0655
 5687W        W 5687   9.670   3.783   8.216 -0.2857 -0.3132  0.1292
 5688W        W 5688   6.800   6.532   9.270 -0.1119 -0.1124 -0.0942
 5689W        W 5689   8.010   8.976   1.786 -0.1985  0.0244 -0.1792
 5690W        W 5690   2.952   7.104   2.340  0.0643 -0.1627 -0.2668
 5691W        W 5691   2.855   7.322   0.789  0.0266 -0.2950  0.0076
 5692W        W 5692   9.737   2.060   7.303 -0.1100  0.0826  0.1607
 5693W        W 5693   5.362  10.101   3.859  0.1099  0.1616 -0.0492
 5694W        W 5694   7.518   1.107   6.300  0.0840 -0.2084  0.0479
 5695W        W 5695   4.555   3.570   3.880  0.0923  0.4000  0.2006
 5696W        W 5696   4.372   1.335   0.049  0.2281 -0.1434 -0.1529
 5697W        W 5697   2.178   2.148   7.287  0.2316 -0.0463  0.1563
 5698W        W 5698   0.342   6.529   8.633  0.1687 -0.3051  0.1219
 5699W        W 5699   4.721   1.308   7.430 -0.1939  0.2690 -0.0362
 5700W        W 5700   6.463   5.018   7.253 -0.2375 -0.0277 -0.1931
 5701W        W 5701   7.869   2.335   8.743 -0.2937  0.0220  0.1606
 5702W        W 5702   2.015   9.288   2.467 -0.4054 -0.0939 -0.1513
 5703W        W 5703   2.088   6.043   4.631 -0.0653 -0.0893 -0.2923
 5704W        W 5704   3.267   2.994   4.621  0.1826  0.2223 -0.1314
 5705W        W 5705   6.628   1.679   9.813 -0.2240  0.1159  0.0566
 5706W        W 5706   4.700   1.187   9.994  0.0658  0.0841  0.1200
 5707W        W 5707   3.835   4.246   0.346  0.0443 -0.1962 -0.0299
 5708W        W 5708   4.354   6.797   1.103 -0.0774 -0.2767 -0.3200
 5709W        W 5709   7.801   1.762   0.043  0.1116  0.0496  0.0456
 5710W        W 5710   0.906   9.611  10.253 -0.3310  0.1878 -0.1222
 5711W        W 5711   0.246   0.641   5.339 -0.2605 -0.0055  0.1573
 5712W        W 5712   1.676   8.772   3.597  0.2020  0.1148 -0.1514
 5713W        W 5713   7.469   0.824   9.529 -0.2533 -0.1657 -0.2600
 5714W        W 5714   8.927   1.488   1.525  0.1629  0.0294  0.0713
 5715W        W 5715   2.014   0.654  10.317 -0.0278  0.0729 -0.3006
 5716W        W 5716   1.873  10.009   5.055  0.0057  0.0571 -0.0734
 5717W        W 5717   3.497   8.192   9.799 -0.3464  0.2562  0.0569
 5718W        W 5718   8.362   5.834   6.216  0.1289 -0.0763 -0.0695
 5719W        W 5719   0.035   0.022   2.503 -0.0442  0.1522 -0.0536
 5720W        W 5720   0.237   9.301   3.164 -0.0583 -0.0795 -0.1908
 5721W        W 5721   3.665   8.112   5.625  0.1138 -0.0170 -0.0924
 5722W        W 5722   5.566   5.831   1.773  0.1246  0.0842 -0.1749
 5723W        W 5723   7.490   8.392   7.968 -0.4883 -0.0219  0.3798
 5724W        W 5724   1.521   6.903   3.076 -0.1902  0.3516  0.1851
 5725W        W 5725   5.265   4.747   8.270 -0.1840  0.1122 -0.2809
 5726W        W 5726   3.764   6.824   1.185  0.1697  0.4623 -0.0897
 5727W        W 5727   2.086   7.426   3.475 -0.0822 -0.4487 -0.1917
 5728W        W 5728   7.300   5.497   7.179 -0.1482  0.1272  0.2850
 5729W        W 5729   2.286   3.988   6.522 -0.0954  0.3624  0.0872
 5730W        W 5730   2.718   0.281   6.465 -0.0516 -0.1502 -0.0627
 5731W        W 5731   9.960   0.655   0.153  0.0404  0.2828  0.2853
 5732W        W 5732   5.809   5.799   7.198 -0.2019  0.4202  0.0342
 5733W        W 5733   0.903   9.751   5.600 -0.2337  0.0112 -0.0028
 5734W        W 5734   9.355   5.060   7.137 -0.1073  0.0628  0.2190
 5735W        W 5735   3.104   4.367   9.990 -0.3179  0.1342  0.0737
 5736W        W 5736   9.924   8.159  10.052  0.1133 -0.0030  0.1889
 5737W        W 5737   0.914   4.448   3.660  0.1528 -0.2642 -0.2197
 5738W        W 5738   5.054   5.133   1.822 -0.4728  0.1720 -0.0789
 5739W        W 5739   4.435   2.569   8.216  0.0074  0.2577  0.1640
 5740W        W 5740   6.971   8.943   5.154 -0.0519  0.3004 -0.2128
 5741W        W 5741   8.435   0.828   1.022  0.1554  0.1206 -0.1793
 5742W        W 5742   8.859   9.383   7.486  0.1006  0.1492 -0.1122
 5743W        W 5743   1.376   9.596   5.801 -0.3606 -0.3121  0.0181
 5744W        W 5744   0.640   4.634   4.119  0.0706  0.0857  0.0356
 5745W        W 5745   4.988   2.814   3.108  0.3407 -0.0264 -0.0265
 5746W        W 5746   4.142   9.314   8.624 -0.1389  0.0853  0.0318
 5747W        W 5747   5.029   2.011   2.740  0.1222 -0.1238 -0.3404
 5748W        W 5748   9.378   4.062   7.837 -0.0073  0.0081 -0.0366
 5749W        W 5749   7.661   8.992   4.706  0.1314 -0.1083 -0.1188
 5750W        W 5750   8.598   9.096   5.571 -0.3721 -0.3508  0.1374
 5751W        W 5751   4.505   2.097   2.675 -0.1389  0.2921 -0.1829
 5752W        W 5752   7.402   4.408   4.915 -0.0841 -0.2130 -0.1006
 5753W        W 5753   0.167   1.309   3.773 -0.1422  0.2326  0.0745
 5754W        W 5754   4.898   4.987   5.537  0.2987  0.0694 -0.1751
 5755W        W 5755   2.034   4.365   4.933  0.2183  0.2021 -0.1911
 5756W        W 5756   1.741   1.305   7.777 -0.4272 -0.0308  0.1339
 5757W        W 5757   1.896   1.162   4.886 -0.2063 -0.0808 -0.1865
 5758W        W 5758   2.739   3.865   0.491 -0.0159  0.1268  0.0981
 5759W        W 5759   7.383   0.746   2.193  0.0448 -0.1628  0.0787
 5760W        W 5760   3.051   8.464   2.143  0.0494  0.2126  0.1542
 5761W        W 5761   7.818   7.904   1.467 -0.0879  0.1014 -0.1214
 5762W        W 5762   0.972   4.099   1.883 -0.0504 -0.0515 -0.0647
 5763W        W 5763   8.983   2.001   0.176 -0.2253 -0.1027 -0.0688
 5764W        W 5764   4.327   7.955   7.037  0.0798  0.0453  0.2138
 5765W        W 5765   3.437   9.343   2.846 -0.2001 -0.3110 -0.1893
 5766W        W 5766   6.824   1.790   4.141  0.0336  0.0314 -0.4125
 5767W        W 5767   4.639   5.658   1.178  0.1658 -0.3205  0.4978
 5768W        W 5768   0.450   9.785   9.327 -0.0051  0.3058  0.1958
 5769W        W 5769   0.578   8.134   2.570 -0.2188 -0.1408 -0.2043
 5770W        W 5770   4.697   2.054   4.729  0.0420 -0.1334  0.1882
 5771W        W 5771   1.925   4.292   0.690 -0.1912  0.0414 -0.4101
 5772W        W 5772   8.163   0.011   4.561  0.1432  0.1049  0.0936
 5773W        W 5773   5.205   8.833   6.820  0.3848 -0.1814 -0.2397
 5774W        W 5774   7.983   8.241   6.059  0.1685 -0.2183 -0.0570
 5775W        W 5775   6.665   9.261   0.003 -0.1238 -0.1555  0.1165
 5776W        W 5776   6.116   2.638   9.946  0.0114 -0.1519  0.0873
 5777W        W 5777   7.050  10.144   4.085 -0.3111 -0.0956 -0.1516
 5778W        W 5778   5.855   8.459   4.410  0.0616 -0.1243  0.1970
 5779W        W 5779  10.160   4.062   6.028  0.2052 -0.1818 -0.0125
 5780W        W 5780   9.879   6.883   5.174 -0.1476 -0.0974 -0.0250
 5781W        W 5781   4.329   1.844  10.306  0.0595  0.0506 -0.1191
 5782W        W 5782   6.147   6.530   8.622 -0.0920 -0.0301 -0.2173
 5783W        W 5783   3.122   2.257   5.764 -0.0975 -0.1333  0.0762
 5784W        W 5784   7.936   4.343   5.904 -0.0424  0.2644  0.0924
 5785W        W 5785   6.341   7.737   3.565 -0.2720 -0.0997 -0.0065
 5786W        W 5786   5.684   7.789   9.501 -0.0547 -0.3447  0.1297
 5787W        W 5787   0.101   2.374   8.008 -0.0737 -0.1733  0.3205
 5788W        W 5788   6.574   1.357   7.297  0.4796  0.1196  0.1595
 5789W        W 5789   0.598   8.330   1.172  0.1243 -0.1782  0.0094
 5790W        W 5790   2.234  10.160   8.893  0.2993 -0.1699 -0.0703
 5791W        W 5791  10.080   0.164   9.704 -0.2591  0.4663  0.2007
 5792W        W 5792   1.911   6.946   5.009 -0.1570  0.0004 -0.1665
 5793W        W 5793   0.940   8.971   4.498  0.1131  0.1695 -0.2250
 5794W        W 5794   2.896   0.754   6.442 -0.1638  0.1159  0.2524
 5795W        W 5795   7.651   2.275   2.478 -0.0105  0.0871  0.5018
 5796W        W 5796   8.575   2.412   3.049  0.2552  0.0657 -0.0105
 5797W        W 5797   3.877   1.896   3.219  0.1036  0.1893 -0.1286
 5798W        W 5798   2.191   8.248   4.220 -0.0270 -0.1790 -0.2305
 5799W        W 5799   7.753   5.890   6.951 -0.2347  0.1457 -0.2278
 5800W        W 5800   9.395   4.489   7.542  0.0782 -0.1548  0.0553
 5801W        W 5801   2.606   2.979   3.446 -0.0297 -0.1092  0.0667
 5802W        W 5802   7.083   0.934  10.016 -0.1490 -0.0121  0.0870
 5803W        W 5803   5.858   4.080   2.761  0.0473  0.2475 -0.2528
 5804W        W 5804   6.149   6.195   7.321 -0.0342  0.0401 -0.0726
 5805W        W 5805   8.104   9.886   8.092 -0.1184 -0.0876 -0.0125
 5806W        W 5806   4.793   9.030   1.540 -0.1048  0.0703 -0.2438
 5807W        W 5807   1.094   9.855   2.878 -0.3458 -0.0829 -0.0063
 5808W        W 5808   4.131   7.528   3.161  0.2314  0.0332  0.0069
 5809W        W 5809   9.407   5.051   3.921 -0.0245 -0.3486 -0.0458
 5810W        W 5810   0.873   2.560   1.155  0.1003  0.2426  0.1000
 5811W        W 5811   9.025   2.304   9.428  0.1317  0.1015 -0.3746
 5812W        W 5812   2.877   7.028   1.262 -0.0606 -0.2401 -0.1881
 5813W        W 5813   7.829   4.280   8.722 -0.1008 -0.2630  0.1554
 5814W        W 5814   9.596   1.782   1.951  0.0455 -0.2603  0.1054
 5815W        W 5815   0.356   7.616  10.296 -0.1114 -0.0337  0.2159
 5816W        W 5816   1.057   5.677   8.544  0.2353 -0.1651 -0.0684
 5817W        W 5817   8.433   5.139   5.448 -0.0034  0.1282  0.0397
 5818W        W 5818   0.395   0.115   8.045 -0.0628 -0.1876 -0.0321
 5819W        W 5819   9.776   9.831   9.439  0.1773  0.0692 -0.0059
 5820W        W 5820   4.340   1.983   1.470 -0.1716 -0.0273 -0.0796
 5821W        W 5821   4.938   4.977   6.043 -0.4596 -0.0766 -0.4099
 5822W        W 5822   6.683   9.257   8.257 -0.0274 -0.1095  0.1714
 5823W        W 5823   1.008   9.353   1.555  0.0019 -0.0521 -0.2696
 5824W        W 5824   8.612   3.047   4.432  0.1101 -0.0871 -0.0796
 5825W        W 5825   1.587   3.411   7.649  0.1155 -0.2069 -0.1881
 5826W        W 5826   9.711   9.317   7.234  0.1236  0.0977 -0.3918
 5827W        W 5827   2.731  10.035   1.169  0.4639 -0.1343 -0.3444
 5828W        W 5828   6.795   5.795   8.844  0.3672  0.0564 -0.1725
 5829W        W 5829   7.807   5.229   4.178 -0.0112 -0.0823  0.2731
 5830W        W 5830   1.594   3.803   4.959  0.2088 -0.1898 -0.1264
 5831W        W 5831   3.899   3.826   4.871 -0.0798  0.2095 -0.0804
 5832W        W 5832   9.935  10.206   0.610  0.0063 -0.0012  0.1989
 5833W        W 5833   5.028   4.899   0.252 -0.1033  0.0560 -0.2174
 5834W        W 5834   3.723   4.112   5.522  0.3701 -0.0699  0.1277
 5835W        W 5835   1.482   4.648   3.016  0.3262 -0.1784 -0.3844
 5836W        W 5836   9.446   1.238   1.340 -0.2651 -0.4283 -0.2679
 5837W        W 5837   4.453   8.652   4.501 -0.1487 -0.0520  0.2457
 5838W        W 5838   8.631   3.351   8.304 -0.0091  0.0365  0.2696
 5839W        W 5839   3.536   8.642   9.117  0.0150  0.0376 -0.3728
 5840W        W 5840  10.077   2.587   6.576 -0.1092  0.0098 -0.1423
 5841W        W 5841   8.555   4.911   8.211  0.1965  0.0348  0.0774
 5842W        W 5842   3.947   0.571   7.243 -0.0063 -0.1599  0.0912
 5843W        W 5843   9.732   1.781   3.281  0.1380 -0.0660  0.1554
 5844W        W 5844   2.484   7.361   1.723  0.2318  0.1331 -0.2828
 5845W        W 5845   1.263   2.990   8.841  0.2143 -0.1119 -0.0060
 5846W        W 5846   3.407   2.867   4.124  0.0344  0.0207  0.1273
 5847W        W 5847   6.594   4.729   9.554  0.0428 -0.2287  0.0720
 5848W        W 5848   6.684   3.565   6.768  0.1507  0.2005 -0.0868
 5849W        W 5849   2.678   4.872   5.714  0.2566 -0.0603  0.0010
 5850W        W 5850   8.439   8.463   3.071  0.0982 -0.0131  0.2953
 5851W        W 5851   8.615   9.839   3.911 -0.0236  0.1190  0.3092
 5852W        W 5852   2.033   1.059   6.339 -0.0397 -0.0899 -0.5238
 5853W        W 5853   1.761   8.939   5.087  0.0895 -0.0050  0.1547
 5854W        W 5854   6.319   6.591   5.544 -0.3167  0.0722 -0.2604
 5855W        W 5855   1.418   0.959   3.670 -0.2048  0.2563 -0.4966
 5856W        W 5856   1.903   4.877   5.176 -0.1410  0.0787 -0.0625
 5857W        W 5857   4.383   6.764   0.226 -0.0360  0.0002  0.0842
 5858W        W 5858   7.849   3.572   9.414  0.1322 -0.3399 -0.0984
 5859W        W 5859   7.446  10.289   4.763  0.0712  0.3211  0.0861
 5860W        W 5860   8.988   0.162   6.854  0.1220  0.1957  0.2023
 5861W        W 5861   7.506   2.259   1.786 -0.0985  0.2468  0.1367
 5862W        W 5862   8.223   8.794   2.280  0.2267 -0.2117  0.2181
 5863W        W 5863   8.810   8.266   7.017  0.3686 -0.0801  0.1082
 5864W        W 5864   4.786   6.611   5.419  0.0757 -0.1357 -0.1717
 5865W        W 5865   7.503   1.465   4.973 -0.0492 -0.0936  0.0195
 5866W        W 5866   1.190   1.188   7.229  0.1884 -0.0960 -0.3271
 5867W        W 5867   7.298   5.493   0.872  0.1294  0.0160 -0.0664
 5868W        W 5868   7.011   6.424   7.651 -0.0086  0.1875  0.1301
 5869W        W 5869   0.662   2.163   2.617  0.0285 -0.0512 -0.3544
 5870W        W 5870   6.246   2.618   1.020  0.2247 -0.2472  0.0895
 5871W        W 5871   3.375   2.694   6.236 -0.0377  0.3784  0.0875
 5872W        W 5872   0.069   8.156   4.802 -0.0005  0.1407 -0.0367
 5873W        W 5873   1.717   7.303   5.873  0.1845  0.1296 -0.1064
 5874W        W 5874   3.252   2.968   7.712  0.2808 -0.1157 -0.0608
 5875W        W 5875   2.710   0.086   9.150 -0.1012  0.0026  0.0364
 5876W        W 5876   2.154   4.427   2.561 -0.0492 -0.0731 -0.0763
 5877W        W 5877   5.947   7.315   7.214  0.0825 -0.1924  0.1068
 5878W        W 5878   9.116   0.909  10.299 -0.1206  0.0252  0.1082
 5879W        W 5879   6.236   2.877   2.234  0.1349 -0.0815  0.3536
 5880W        W 5880   9.190   7.789  10.277  0.0916 -0.1439  0.1370
 5881W        W 5881   6.890   5.400   9.886  0.1255  0.0433 -0.0429
 5882W        W 5882   0.908   1.312   0.457  0.1358  0.1233 -0.0550
 5883W        W 5883   4.571   1.245   3.198  0.0500 -0.0986 -0.0677
 5884W        W 5884   9.264   4.122   7.157 -0.0651  0.1906  0.1450
 5885W        W 5885   6.750   6.773   4.918  0.2722  0.0824  0.2205
 5886W        W 5886   6.473   3.745   2.318 -0.0701  0.0070  0.1335
 5887W        W 5887   0.134   0.037   7.583  0.1264  0.2691 -0.0865
 5888W        W 5888  10.056   1.080   9.559 -0.0208  0.1698 -0.0282
 5889W        W 5889   4.327   9.572   4.490 -0.1509  0.2234 -0.0888
 5890W        W 5890   7.348   9.857   1.613  0.2146  0.0229  0.0688
 5891W        W 5891   1.377   5.456   7.484  0.2211  0.0838  0.0381
 5892W        W 5892   8.527   5.060   4.613  0.1978  0.0550  0.0023
 5893W        W 5893   7.918   4.944   7.278 -0.0839 -0.1476  0.1698
 5894W        W 5894   4.241   0.688   2.608 -0.0009  0.1122 -0.3175
 5895W        W 5895  10.327   3.351   7.037 -0.0433 -0.0925  0.1013
 5896W        W 5896   2.883   1.126   8.776  0.0026  0.0537  0.2109
 5897W        W 5897   3.241   5.954   7.774  0.0050 -0.1069  0.3485
 5898W        W 5898   0.745   9.546   1.899 -0.1936 -0.1574  0.0084
 5899W        W 5899   9.729   7.683   9.265 -0.0484  0.4322  0.0253
 5900W        W 5900   8.639   6.074   2.088  0.0019  0.4901 -0.1410
 5901W        W 5901   4.187   6.994  10.185 -0.0894 -0.2037 -0.0224
 5902W        W 5902   0.466   4.924   8.235 -0.2030 -0.0956 -0.2046
 5903W        W 5903   7.670   8.498   8.412  0.2616 -0.4486  0.0761
 5904W        W 5904   4.646   7.313   9.405  0.1327  0.1477 -0.3178
 5905W        W 5905   0.944   4.274   6.653  0.2648 -0.0406 -0.2276
 5906W        W 5906   0.697   8.819   3.396 -0.0522 -0.1182  0.0644
 5907W        W 5907   8.084   9.103   4.502 -0.0765 -0.2189 -0.2860
 5908W        W 5908   2.719   8.597   4.076  0.0291  0.0534  0.1009
 5909W        W 5909   9.794   7.444   2.033 -0.0669 -0.0503  0.1479
 5910W        W 5910   0.956   2.567   4.946 -0.0215 -0.0852 -0.0621
 5911W        W 5911  10.119   0.184   4.107  0.0102 -0.2005 -0.1216
 5912W        W 5912   5.210   0.694   4.557 -0.0715  0.1928 -0.0464
 5913W        W 5913   9.157   9.991   9.817 -0.1037 -0.0041  0.0731
 5914W        W 5914   8.744   6.957   0.312  0.3981 -0.2039 -0.3601
 5915W        W 5915   1.998   7.196   1.249 -0.1033 -0.0094  0.2449
 5916W        W 5916   6.957   0.581   4.677 -0.0537  0.4507 -0.3062
 5917W        W 5917   6.777   4.499   5.812  0.1559 -0.1014  0.0027
 5918W        W 5918   4.778   8.327   4.314  0.1933 -0.1562  0.3037
 5919W        W 5919   6.698   8.800  10.241 -0.2108  0.0342 -0.2021
 5920W        W 5920   0.531   1.638   8.501 -0.0748 -0.0535  0.1231
 5921W        W 5921   7.388   8.080   1.513  0.1538 -0.2531  0.0098
 5922W        W 5922   0.911   7.183   8.955 -0.0640  0.1476  0.2116
 5923W        W 5923   5.880   0.659   7.377 -0.0450 -0.2942  0.0022
 5924W        W 5924   1.099   2.061   8.093  0.2580  0.0302 -0.0332
 5925W        W 5925   8.460   7.449   4.296  0.1205 -0.2388  0.0799
 5926W        W 5926   2.807   9.463   9.033 -0.3456  0.1191 -0.1004
 5927W        W 5927   4.763   9.363   4.799 -0.2395  0.0990 -0.3350
 5928W        W 5928   4.307   7.416   5.160 -0.0332  0.1164  0.0975
 5929W        W 5929   1.077   8.542   1.921  0.1329  0.2084 -0.0409
 5930W        W 5930   4.026   7.693   0.329  0.0909 -0.0402  0.0970
 5931W        W 5931   2.610   8.347   5.071 -0.2199 -0.1947  0.0673
 5932W        W 5932   3.509   1.954   9.685  0.0260  0.0310  0.0551
 5933W        W 5933   9.931   3.538   4.414 -0.0064 -0.1410  0.4056
 5934W        W 5934   0.979   8.346   4.286 -0.0189  0.3658 -0.3040
 5935W        W 5935   3.079   2.209   6.290 -0.0520  0.3900 -0.1450
 5936W        W 5936   0.224   0.929   9.860 -0.0371 -0.0431 -0.2326
 5937W        W 5937   6.487   0.060   7.630 -0.1604 -0.4687 -0.0452
 5938W        W 5938   1.844   5.306   4.504  0.0985 -0.1899 -0.2691
 5939W        W 5939   8.686   3.048   2.696 -0.0317  0.3963 -0.0568
 5940W        W 5940   1.614   8.263   5.953 -0.0504 -0.1212 -0.3013
 5941W        W 5941   9.333   7.091   1.567 -0.2722 -0.0552  0.4185
 5942W        W 5942   0.646   6.076   3.894 -0.1105 -0.1278  0.2781
 5943W        W 5943   7.038   9.546   9.624 -0.2770  0.2814  0.1860
 5944W        W 5944   3.423   7.492   4.402  0.2304  0.2485  0.0322
 5945W        W 5945   6.904   6.038   0.144  0.4685 -0.0143  0.0588
 5946W        W 5946   9.737   1.933   9.926 -0.3305  0.0611  0.2209
 5947W        W 5947   7.349   3.988   4.566 -0.1460 -0.2147  0.0742
 5948W        W 5948   8.216   5.113   3.160  0.0426 -0.1173  0.0035
 5949W        W 5949   6.923   4.038   9.835 -0.0004  0.3318 -0.2711
 5950W        W 5950   5.979   4.051   1.503 -0.2954 -0.0024 -0.0669
 5951W        W 5951   2.737   3.648   6.365 -0.0573 -0.2721  0.0922
 5952W        W 5952   2.216   3.501   6.666 -0.2047 -0.0201 -0.0631
 5953W        W 5953   6.722   2.878   1.948  0.1651 -0.3427  0.2673
 5954W        W 5954   0.819   9.130  10.082  0.0233 -0.0905  0.1852
 5955W        W 5955   7.828   5.858   7.515 -0.1889 -0.0243 -0.2053
 5956W        W 5956   3.666   2.563   1.488  0.0163 -0.1472  0.0067
 5957W        W 5957   0.397   3.356   1.038 -0.0652 -0.0174 -0.1903
 5958W        W 5958   4.954  10.056   4.149  0.0393  0.2616  0.0114
 5959W        W 5959   5.727   9.820   3.880 -0.1879 -0.0395 -0.3718
 5960W        W 5960   7.038   4.771   1.484  0.1286 -0.0210 -0.3088
 5961W        W 5961   2.416   5.950   8.901  0.0927 -0.3078  0.1864
 5962W        W 5962   2.944   4.035   6.058  0.1164  0.0486 -0.0871
 5963W        W 5963   6.380   4.991   5.854  0.0043 -0.0201 -0.4095
 5964W        W 5964   8.953   7.818   8.478  0.0008 -0.0325 -0.2580
 5965W        W 5965   2.670   4.408   5.630 -0.6163 -0.0032  0.0071
 5966W        W 5966   2.172   1.787   2.261  0.4230  0.0229 -0.1271
 5967W        W 5967   0.887   4.974   0.089  0.1610  0.4781  0.2218
 5968W        W 5968   9.889   6.975   9.115 -0.0560 -0.0952  0.2257
 5969W        W 5969   1.089   7.205   3.204  0.0529 -0.0439  0.0295
 5970W        W 5970   1.245   8.582   7.317 -0.1128 -0.1168 -0.4239
 5971W        W 5971   7.496   1.256  10.046 -0.1463  0.1402  0.0661
 5972W        W 5972   4.187   3.123   4.681 -0.0192 -0.2756  0.0446
 5973W        W 5973   3.805   7.186   2.918 -0.2738  0.0712  0.1062
 5974W        W 5974   1.780   2.967   4.559 -0.1917 -0.0454 -0.2361
 5975W        W 5975   5.559   5.144   8.881 -0.0065  0.1298  0.1911
 5976W        W 5976   4.489   2.229   8.922  0.0211  0.0880 -0.2310
 5977W        W 5977   3.080  10.096   7.540  0.0279  0.0581  0.0760
 5978W        W 5978   0.767   8.980   8.857 -0.0854  0.0691 -0.1165
 5979W        W 5979   4.606   1.388   4.620 -0.3544 -0.1004  0.0774
 5980W        W 5980   9.132   7.470   7.052  0.0417 -0.1369 -0.1127
 5981W        W 5981   4.824   2.255   1.806 -0.2048 -0.1061 -0.1457
 5982W        W 5982   6.233   6.956   6.786  0.2436  0.1243  0.0156
 5983W        W 5983   2.774   2.150   7.693  0.3497 -0.1360  0.0404
 5984W        W 5984   5.846   6.021   4.411  0.2598  0.0278 -0.2010
 5985W        W 5985   8.570   3.787   8.959 -0.0671 -0.2202  0.0106
 5986W        W 5986   3.418   2.111   4.607  0.1523  0.1225 -0.0235
 5987W        W 5987   8.311   4.460   1.372  0.2733 -0.1631 -0.1549
 5988W        W 5988   9.505   8.958   5.620 -0.0078  0.3255  0.1193
 5989W        W 5989   8.177   5.339   9.578  0.2798 -0.0254 -0.1880
 5990W        W 5990  10.236   9.775   5.176 -0.0013  0.1407 -0.2143
 5991W        W 5991   9.152   5.641   7.221  0.2897 -0.3443 -0.0267
 5992W        W 5992   8.335   9.119   1.372  0.0492  0.1406 -0.4036
 5993W        W 5993   1.213   4.428   7.035  0.0678  0.0067  0.1309
 5994W        W 5994   6.351   2.303   0.390  0.1792  0.1757 -0.4491
 5995W        W 5995   5.933   0.518   3.132 -0.1546  0.0759  0.1105
 5996W        W 5996   5.516   8.145   7.160  0.1115 -0.1027 -0.1957
 5997W        W 5997   6.970   1.874   0.980 -0.0033  0.1806 -0.1466
 5998W        W 5998   6.126   8.787   5.528  0.1722  0.0263 -0.1044
 5999W        W 5999   2.701   4.225   1.150  0.2680  0.0387  0.5351
 6000W        W 6000   9.333   3.766   9.662  0.1812 -0.1247  0.0649
 6001W        W 6001   2.841   0.994   2.339 -0.0397  0.4495 -0.0197
 6002W        W 6002   2.006   1.587   8.106 -0.0376  0.0258 -0.2495
 6003W        W 6003   0.955   4.519  10.156 -0.0222  0.1615  0.1813
 6004W        W 6004   0.044   7.978   8.617 -0.1298 -0.1163  0.6321
 6005W        W 6005   6.500  10.079   6.659 -0.0840  0.4545 -0.2672
 6006W        W 6006   5.972   6.166   3.570  0.1253  0.0952  0.4458
 6007W        W 6007   7.966   2.075  10.009  0.1141  0.2237 -0.1772
 6008W        W 6008   8.487   1.833   0.286  0.0428 -0.0595  0.1313
 6009W        W 6009   5.639   9.519   3.051  0.2569 -0.1597 -0.0486
 6010W        W 6010   0.340   5.612   8.315  0.1507 -0.0103 -0.0894
 6011W        W 6011   3.690   7.761   3.024 -0.2202 -0.1475 -0.1758
 6012W        W 6012   8.705   3.944   7.269 -0.0932 -0.2401 -0.0814
 6013W        W 6013   0.497   6.453   1.140  0.2781  0.0765  0.0088
 6014W        W 6014   2.688   5.923   0.271  0.2053 -0.2524 -0.0518
 6015W        W 6015   9.303   2.645   8.030  0.2967 -0.4633 -0.1810
 6016W        W 6016   0.757   6.671   6.340  0.0438 -0.0936 -0.2892
 6017W        W 6017   9.195   1.490   1.982  0.5292 -0.0359 -0.2296
 6018W        W 6018   5.557   6.824   1.742  0.0921 -0.6354 -0.0723
 6019W        W 6019   2.970   5.592   4.833  0.0426  0.1216 -0.2653
 6020W        W 6020   8.899   0.865   4.903  0.0023 -0.1101  0.1099
 6021W        W 6021   9.591   2.844   9.930  0.1144 -0.1227  0.0996
 6022W        W 6022   7.908   7.446   4.314  0.2630 -0.1980 -0.6579
 6023W        W 6023   3.967   0.221   6.847  0.0442 -0.0227  0.1825
 6024W        W 6024   1.923   2.363   0.995 -0.0417 -0.2404  0.1584
 6025W        W 6025   2.567   9.102   3.351 -0.3081 -0.0705  0.0927
 6026W        W 6026   1.020   9.924   3.507 -0.0378 -0.1581  0.1037
 6027W        W 6027   7.284   9.196   3.757  0.0841 -0.0917 -0.2177
 6028W        W 6028   8.273   1.930   4.816  0.0179 -0.1389  0.0314
 6029W        W 6029   2.271   2.688   3.231 -0.5579  0.3207  0.1018
 6030W        W 6030   3.385   9.849   2.820  0.1725 -0.0943  0.1525
 6031W        W 6031   1.056   6.992   3.694 -0.0464  0.2754  0.2091
 6032W        W 6032   2.943   6.076   8.662 -0.1907 -0.2455  0.0407
 6033W        W 6033   3.922   9.323   4.598  0.1176 -0.3601 -0.0752
 6034W        W 6034   0.105   5.235   8.708  0.0519 -0.5100 -0.0482
 6035W        W 6035   4.225   6.182   9.188  0.0213  0.1527  0.0806
 6036W        W 6036   7.493   8.789   3.603  0.0057  0.2411 -0.3389
 6037W        W 6037   2.143  10.140   6.995  0.2113 -0.2634  0.1645
 6038W        W 6038   0.345   9.831   1.276  0.0419  0.2495  0.0466
 6039W        W 6039   3.660   9.434   8.198 -0.0033  0.3252  0.3245
 6040W        W 6040   6.203   8.488   9.520 -0.1718  0.3320 -0.1253
 6041W        W 6041   8.667   1.404  10.243  0.3847 -0.6248 -0.1828
 6042W        W 6042   2.651   2.369   9.176 -0.0178  0.0612  0.1331
 6043W        W 6043   5.426   5.507   4.386  0.2987 -0.0564  0.1870
 6044W        W 6044   5.122   9.036  10.011 -0.3395 -0.0881 -0.2535
 6045W        W 6045   6.294   1.594   1.294 -0.0501 -0.2130  0.1172
 6046W        W 6046   5.028   9.437   8.963 -0.1143 -0.0264 -0.0575
 6047W        W 6047   5.039   4.856  10.117 -0.2018 -0.0613 -0.0828
 6048W        W 6048   8.091   9.672   2.064  0.0896  0.1765 -0.1459
 6049W        W 6049   3.179  10.247   7.989  0.0555 -0.2864  0.0121
 6050W        W 6050   1.924   3.468   5.162 -0.1089  0.1038  0.0527
 6051W        W 6051   2.676  10.210   9.595  0.1300  0.0284  0.0678
 6052W        W 6052   2.523   1.779   5.696 -0.0628 -0.3509 -0.0214
 6053W        W 6053   7.358   1.925   5.020  0.0047  0.1379  0.0917
 6054W        W 6054   5.393   7.599   0.325  0.2431  0.1880 -0.1104
 6055W        W 6055   2.129   9.063   3.795 -0.0591 -0.4764 -0.1934
 6056W        W 6056  10.273   3.661   4.755 -0.2188  0.2500  0.1427
 6057W        W 6057   4.580   2.229   7.255  0.0645 -0.0211 -0.1762
 6058W        W 6058   2.514   4.230   2.871  0.3901 -0.1483  0.0838
 6059W        W 6059   1.279   5.069   5.899 -0.1577 -0.0754 -0.0288
 6060W        W 6060   2.983   2.734   6.484  0.1176 -0.2379 -0.2198
 6061W        W 6061   5.634   9.150   5.521  0.1220  0.0215  0.0388
 6062W        W 6062   3.296   5.935   3.440 -0.0347  0.0043 -0.0588
 6063W        W 6063   8.810  10.178   0.708 -0.2350 -0.2129 -0.2418
 6064W        W 6064   2.303   8.073   0.724 -0.0982  0.3827 -0.2396
 6065W        W 6065   6.458   0.641   6.533  0.0881 -0.0928  0.2272
 6066W        W 6066   2.012   1.007   9.368  0.1066  0.1966 -0.0100
 6067W        W 6067   1.357   4.814   9.433 -0.0397 -0.1461  0.0967
 6068W        W 6068  10.293   7.292   8.782 -0.0472  0.0760 -0.1549
 6069W        W 6069   1.053   5.140   8.905 -0.1853  0.0689  0.1795
 6070W        W 6070   9.797   0.192   6.433  0.4122  0.0760  0.2247
 6071W        W 6071   3.662   4.239   4.594  0.0491 -0.2971 -0.0331
 6072W        W 6072   9.150   8.647   2.608  0.0438 -0.2333 -0.0320
 6073W        W 6073   9.038   5.271   6.184 -0.1143 -0.0515 -0.0609
 6074W        W 6074   5.412   2.282   9.841 -0.2739 -0.2485 -0.0539
 6075W        W 6075   4.586   6.723   7.114  0.0774  0.2037  0.0553
 6076W        W 6076  10.311   3.015   6.490 -0.3607  0.1593 -0.2431
 6077W        W 6077   7.279   3.386  10.307 -0.1466 -0.0289 -0.0713
 6078W        W 6078   5.498  10.300   1.901 -0.2762 -0.0389 -0.4414
 6079W        W 6079   0.762   9.988   1.543 -0.0027  0.3693 -0.0734
 6080W        W 6080   6.470   9.986   9.622 -0.0919 -0.0490 -0.0547
 6081W        W 6081   5.125   1.394   3.535 -0.2188  0.0962 -0.3065
 6082W        W 6082   2.520   7.080   8.011  0.0071 -0.0527 -0.0200
 6083W        W 6083   4.564   7.817   2.642  0.3669 -0.1225  0.3288
 6084W        W 6084   5.847   8.415   8.021 -0.1688 -0.3075  0.1080
 6085W        W 6085   4.301   9.897  10.285  0.1108  0.3945 -0.2222
 6086W        W 6086   7.925   9.287  10.025 -0.2327 -0.0948 -0.0411
 6087W        W 6087   6.924   6.966   6.984 -0.3109 -0.0559 -0.1120
 6088W        W 6088   1.288   0.949   7.702 -0.1317 -0.0352  0.0577
 6089W        W 6089   7.703   8.999   8.377  0.1547 -0.1138 -0.0184
 6090W        W 6090   6.666   2.816   0.518 -0.0146 -0.0760 -0.1721
 6091W        W 6091   8.249   1.839   7.299 -0.1747 -0.0191  0.0676
 6092W        W 6092   8.167   2.729   5.461  0.1572  0.0010 -0.1428
 6093W        W 6093   4.317   4.682   5.213  0.0424  0.1709 -0.0358
 6094W        W 6094   8.359   3.226   5.869  0.2176 -0.2494  0.2349
 6095W        W 6095   2.088   7.299  10.097 -0.2504  0.1725  0.2438
 6096W        W 6096   0.756   2.266   6.797  0.1010 -0.1574 -0.1279
 6097W        W 6097   8.030   5.064   5.023  0.0192 -0.0337 -0.0149
 6098W        W 6098   5.775   8.072   8.659 -0.0268 -0.3524 -0.0572
 6099W        W 6099   2.568   6.661   6.277 -0.1323 -0.0430  0.2606
 6100W        W 6100   3.027   2.699   9.382 -0.0501  0.0026 -0.2021
 6101W        W 6101   0.546   1.868   4.902 -0.0438  0.3092  0.0464
 6102W        W 6102   2.739   6.727   2.536  0.0768  0.2162  0.1135
 6103W        W 6103   6.622   0.708   9.015  0.1367  0.3303  0.3132
 6104W        W 6104   7.206   4.445   9.956  0.0945 -0.2265  0.1051
 6105W        W 6105  10.037   7.157   7.609  0.0485  0.1375 -0.0069
 6106W        W 6106   2.324   6.751   8.834  0.3841  0.1459  0.0568
 6107W        W 6107   7.510   0.513   3.964 -0.3247  0.2065  0.1484
 6108W        W 6108   4.554   9.389   7.878 -0.0296  0.0159 -0.2573
 6109W        W 6109   4.806   2.523   2.713  0.1472  0.1783  0.1580
 6110W        W 6110   9.552   9.031   8.066  0.1004 -0.3280  0.1743
 6111W        W 6111   0.451   8.925   6.342  0.0907  0.0059  0.0757
 6112W        W 6112   4.945   7.880   4.171 -0.0392 -0.3554  0.2912
 6113W        W 6113   9.962   7.928   2.119  0.0176 -0.0290 -0.1690
 6114W        W 6114   9.227  10.299   6.367 -0.0335  0.0195 -0.1053
 6115W        W 6115   3.988   2.869   3.406 -0.0518  0.1797 -0.1673
 6116W        W 6116   3.810   3.749   5.903 -0.0461  0.0748  0.1506
 6117W        W 6117   9.790   5.983   3.233  0.0448  0.1163  0.0023
 6118W        W 6118   5.166   9.919   9.042  0.1957  0.0805 -0.0186
 6119W        W 6119   1.575   3.473   8.993 -0.2657 -0.0923  0.3205
 6120W        W 6120   2.144   4.937   6.969 -0.0961 -0.0161 -0.2156
 6121W        W 6121   7.238   7.789   3.288 -0.1670 -0.1221 -0.0772
 6122W        W 6122   6.830   1.377   2.817 -0.0313  0.2142 -0.2563
 6123W        W 6123   2.754   9.628   7.517  0.0148 -0.0527 -0.1081
 6124W        W 6124   8.430   1.294   1.357 -0.0504  0.0316  0.1160
 6125W        W 6125   5.588   0.310   3.921 -0.1613  0.0656 -0.2482
 6126W        W 6126   7.436   0.646   8.670  0.3141  0.2899 -0.0763
 6127W        W 6127   8.718   8.122   1.870 -0.2870 -0.0291  0.3374
 6128W        W 6128   0.895   0.530   6.821 -0.2767 -0.5499 -0.1874
 6129W        W 6129   7.371   6.773   7.668  0.0123  0.0454 -0.1669
 6130W        W 6130   0.512   9.302   5.791  0.0493 -0.0787  0.0011
 6131W        W 6131   5.598   7.383   9.275  0.0921 -0.1063  0.3121
 6132W        W 6132   5.991   2.792   2.913  0.0333  0.0227 -0.1794
 6133W        W 6133   7.801   7.673   7.346  0.1191 -0.1555  0.1740
 6134W        W 6134   1.165   1.206   0.012 -0.0697  0.0814  0.0076
 6135W        W 6135   9.066   6.595   0.353 -0.1125 -0.1219 -0.1554
 6136W        W 6136   7.441  10.204  10.053  0.1937 -0.0993 -0.0320
 6137W        W 6137   1.136   7.287   2.204 -0.0819 -0.0790 -0.1744
 6138W        W 6138   7.901   4.867   5.879 -0.0786 -0.1415 -0.0714
 6139W        W 6139   0.555   3.813   5.907  0.3404  0.2462 -0.1825
 6140W        W 6140   4.185   5.752   6.194  0.2272 -0.2904  0.0608
 6141W        W 6141   9.068   0.840   7.459 -0.0351 -0.2366  0.1407
 6142W        W 6142   8.020   7.420   0.373  0.0323 -0.0316 -0.4091
 6143W        W 6143   9.208   2.968   2.813 -0.0811  0.0718 -0.0927
 6144W        W 6144   5.636   0.133   5.000  0.2050 -0.0316 -0.1839
 6145W        W 6145   1.006   8.674  10.160 -0.1989 -0.1345 -0.0706
 6146W        W 6146   7.360   5.170  10.175 -0.2175 -0.1771 -0.2896
 6147W        W 6147   3.860   5.515   2.290 -0.3425 -0.1532 -0.2380
 6148W        W 6148   4.923   7.710   8.110  0.1711 -0.0012 -0.0803
 6149W        W 6149   6.843   3.660   7.238  0.1267  0.2870 -0.1176
 6150W        W 6150   2.431   3.226   6.236  0.4688  0.0890 -0.2801
 6151W        W 6151   0.716   8.724   2.532  0.0315 -0.0896  0.1249
 6152W        W 6152   9.579   8.455   1.747 -0.0610 -0.2251  0.0084
 6153W        W 6153   7.131   8.129   5.757 -0.0670  0.0961  0.3266
 6154W        W 6154   7.606   4.496  10.254  0.0679  0.1844  0.3103
 6155W        W 6155  10.233   1.799   9.173 -0.0710 -0.0680 -0.0535
 6156W        W 6156   4.739   2.427   8.556  0.0191  0.2093  0.2140
 6157W        W 6157   8.127   9.319   9.498  0.2534 -0.0923 -0.0962
 6158W        W 6158   2.198   8.036   7.110 -0.2294 -0.1729 -0.0693
 6159W        W 6159   0.574   8.889   5.504  0.1965 -0.2784  0.1592
 6160W        W 6160   8.169   4.148   7.099  0.1640  0.0274 -0.3763
 6161W        W 6161   6.515   9.394   6.935 -0.3178 -0.2055  0.0591
 6162W        W 6162   8.666   7.396   7.169 -0.0970 -0.1463  0.0114
 6163W        W 6163   3.786  10.109   7.028 -0.2474 -0.1438 -0.1108
 6164W        W 6164   8.244   0.469   5.253 -0.1622  0.0051 -0.0548
 6165W        W 6165   3.224   3.113   2.152  0.0356 -0.0657  0.1528
 6166W        W 6166   5.510   6.880   9.295 -0.0192  0.1359 -0.1438
 6167W        W 6167   7.462   0.203   7.385 -0.3594 -0.2078  0.0139
 6168W        W 6168   3.053   9.967   8.405  0.0643  0.0306  0.1128
 6169W        W 6169   8.473   4.753   2.946  0.0079 -0.3418  0.1524
 6170W        W 6170   4.931   1.333   1.266  0.0450  0.2760 -0.1818
 6171W        W 6171   3.928   5.038   5.788  0.2425 -0.0570 -0.0366
 6172W        W 6172   6.520   9.849   8.782  0.2526 -0.1021 -0.1219
 6173W        W 6173   6.392  10.263   9.223  0.1697  0.4447  0.1131
 6174W        W 6174   5.390   3.471   3.725  0.0216 -0.1067 -0.0183
 6175W        W 6175   7.191   3.894  10.249  0.0665  0.4243  0.1557
 6176W        W 6176   0.826   8.235   9.894  0.2587  0.0484 -0.0615
 6177W        W 6177   7.816   0.312   1.611 -0.0984 -0.3027 -0.0538
 6178W        W 6178   1.089   8.326   1.351  0.2585 -0.4376  0.0533
 6179W        W 6179   6.455   2.738   2.670  0.1418  0.1609 -0.2174
 6180W        W 6180   2.878   3.284   8.846 -0.2717 -0.0666  0.2574
 6181W        W 6181   8.191   4.665   6.950  0.3815 -0.1825  0.1037
 6182W        W 6182   5.956  10.078   1.866 -0.0014  0.2535  0.1520
 6183W        W 6183   4.863   1.465   6.888 -0.1669  0.0027  0.0641
 6184W        W 6184   9.024   6.147   6.303  0.2059  0.1579  0.1560
 6185W        W 6185   5.687   5.576   6.324 -0.1381  0.0967 -0.1824
 6186W        W 6186   4.393   8.967   8.841 -0.0375  0.0006  0.2749
 6187W        W 6187   1.800   8.524   4.304  0.1574  0.1031  0.1899
 6188W        W 6188   4.267   7.044   9.180 -0.1573  0.0114 -0.0309
 6189W        W 6189   0.198   1.190   5.526  0.1590 -0.0135 -0.0777
 6190W        W 6190   6.721   5.027   0.776  0.5569  0.2337  0.0094
 6191W        W 6191   4.111   8.895   2.237  0.0322 -0.2541  0.0522
 6192W        W 6192   5.038   9.383  10.331  0.1266  0.1072 -0.0651
 6193W        W 6193   2.454   0.036   6.084 -0.0358 -0.3774 -0.2232
 6194W        W 6194   9.432   4.208   6.653 -0.0476  0.0563  0.1425
 6195W        W 6195   6.228   5.120   0.845  0.0140  0.0220  0.1505
 6196W        W 6196   8.902   1.676   0.569  0.0881  0.0226 -0.4142
 6197W        W 6197   4.592   4.503   4.386  0.2475 -0.1774  0.2244
 6198W        W 6198   4.366   4.388   8.218  0.0675  0.2944  0.3201
 6199W        W 6199   1.548   7.508   1.575  0.0353  0.0924 -0.0082
 6200W        W 6200   5.372   7.125   0.391 -0.0954  0.0706  0.2556
 6201W        W 6201   3.634   2.276   2.109 -0.0140 -0.0203 -0.2952
 6202W        W 6202   3.010   9.801   0.674  0.2132  0.0823  0.3145
 6203W        W 6203   7.900   8.214   3.038  0.4107  0.2198 -0.1029
 6204W        W 6204   2.449   1.238   9.483  0.0385 -0.1128  0.0523
 6205W        W 6205  10.314   7.856   4.404 -0.2819 -0.0046  0.4035
 6206W        W 6206   8.186   1.664   3.297 -0.0455  0.1882  0.1643
 6207W        W 6207   8.797   2.731   4.049 -0.3634 -0.0778  0.0120
 6208W        W 6208   9.810   3.149   4.142 -0.1102 -0.1714  0.0805
 6209W        W 6209   3.958   2.351   2.521  0.1979  0.0166  0.0597
 6210W        W 6210   6.797   9.270   1.348 -0.3534 -0.1338 -0.0496
 6211W        W 6211   1.717   1.683   8.912 -0.0713 -0.1951 -0.3075
 6212W        W 6212  10.343   0.320   6.564 -0.2859 -0.0863 -0.1982
 6213W        W 6213   4.787   4.338   2.209 -0.4034  0.1198 -0.0639
 6214W        W 6214   1.832   4.655   1.893  0.1950  0.0461  0.1810
 6215W        W 6215   7.782   2.912   8.655 -0.2539 -0.1296 -0.0574
 6216W        W 6216   3.723   9.157   3.795  0.0555 -0.0028 -0.3050
 6217W        W 6217   7.747   5.521   2.270  0.0249  0.0781 -0.2783
 6218W        W 6218   0.121   5.326   3.148  0.0512 -0.0845  0.2543
 6219W        W 6219   2.386   2.373   2.660 -0.0048  0.0783  0.0899
 6220W        W 6220   5.879   0.197   0.912  0.1317  0.0239 -0.0414
 6221W        W 6221   6.191   8.085   7.284  0.0094  0.1806  0.1656
 6222W        W 6222   1.469   7.275   4.164  0.2848  0.2849  0.0397
 6223W        W 6223   8.496   0.303   0.925 -0.0899 -0.1286 -0.2448
 6224W        W 6224   2.720   6.698   9.989  0.1526  0.1249 -0.0910
 6225W        W 6225   6.225   4.643   3.563  0.1963 -0.0391  0.0474
 6226W        W 6226   4.126   6.979   2.417  0.2607  0.2664 -0.2391
 6227W        W 6227   7.521   7.430   1.594 -0.2999  0.0600 -0.0892
 6228W        W 6228   4.122   8.067   2.950 -0.2866  0.0401  0.3998
 6229W        W 6229   6.236   5.307   1.310 -0.1797  0.1281  0.0476
 6230W        W 6230   5.624   5.719   3.482  0.0765 -0.1846  0.0906
 6231W        W 6231   5.240   6.712   4.830 -0.0239 -0.0034  0.1172
 6232W        W 6232   1.793   2.193   9.824 -0.2012  0.1103 -0.0030
 6233W        W 6233   2.148   8.621   5.169  0.0577  0.0311  0.0872
 6234W        W 6234   2.492   1.068   1.273  0.1942  0.0530 -0.0369
 6235W        W 6235   8.590  10.115   1.126  0.1625  0.0819 -0.0059
 6236W        W 6236   8.292   5.514   8.268  0.4751 -0.2323 -0.0049
 6237W        W 6237   5.199   5.474   6.009 -0.0336 -0.0905  0.1027
 6238W        W 6238   6.099   9.838   0.211  0.1481  0.1933  0.1004
 6239W        W 6239   0.970   6.467  10.249  0.3946 -0.3017 -0.0181
 6240W        W 6240  10.238   8.862   2.646  0.0913 -0.1701 -0.2694
 6241W        W 6241   3.652   2.594   0.828 -0.0450 -0.2623 -0.0714
 6242W        W 6242   2.624   9.585   1.833 -0.1181 -0.1778  0.0411
 6243W        W 6243   7.150   7.440   6.896 -0.2946 -0.0061 -0.2274
 6244W        W 6244   1.211   3.819   5.727 -0.2549 -0.0095 -0.1705
 6245W        W 6245   1.220   9.240   8.950  0.0480  0.3866  0.2107
 6246W        W 6246   0.100   9.506   6.915 -0.1455  0.1232  0.0710
 6247W        W 6247   3.135   6.421   6.718  0.0268 -0.1514 -0.2043
 6248W        W 6248   6.775   6.095   7.935  0.0025  0.0024  0.0540
 6249W        W 6249   2.988   3.992   1.572 -0.2119  0.5019  0.1145
 6250W        W 6250   7.667   1.772   1.693  0.0635  0.0964  0.0813
 6251W        W 6251   7.616   7.378   3.372  0.2897  0.0586  0.0520
 6252W        W 6252   4.116   1.130   7.946  0.2858 -0.0642  0.4525
 6253W        W 6253   9.809   5.541   4.880 -0.5715  0.1043  0.2855
 6254W        W 6254   1.191   0.028   9.678  0.0037  0.3036  0.2447
 6255W        W 6255   5.171   4.694   2.644 -0.3257  0.2015 -0.1009
 6256W        W 6256   8.105  10.343   7.122  0.1661 -0.2247 -0.1980
 6257W        W 6257   0.035   9.462   2.103 -0.1143  0.2321  0.1464
 6258W        W 6258   8.700   0.415   5.071 -0.0395 -0.1107  0.1212
 6259W        W 6259   0.812   1.583   8.096 -0.2565  0.2627  0.0445
 6260W        W 6260   9.660   5.066   9.146  0.2192 -0.1592 -0.0758
 6261W        W 6261   7.893   4.727   4.059  0.2380 -0.1046 -0.2165
 6262W        W 6262   0.074   8.937   9.598 -0.0027  0.3099 -0.1593
 6263W        W 6263   6.377   0.271   3.047  0.2221 -0.3109  0.0001
 6264W        W 6264   4.251   8.290   2.032 -0.0249 -0.1666 -0.0699
 6265W        W 6265   0.207   7.632   1.014  0.0371  0.4058 -0.1388
 6266W        W 6266   8.429   7.949   2.624 -0.1918 -0.1268 -0.0388
 6267W        W 6267   8.939   2.969   3.645  0.1222  0.1381 -0.0956
 6268W        W 6268   5.213  10.127   8.040 -0.1227  0.1988 -0.1922
 6269W        W 6269   8.483   3.043   3.851  0.0327 -0.0167 -0.0029
 6270W        W 6270   5.188   4.163   2.571 -0.1946  0.4279  0.0525
 6271W        W 6271  10.074   7.754   1.159 -0.1487  0.0115 -0.1211
 6272W        W 6272   1.587   1.518   7.319 -0.0344  0.2995 -0.2219
 6273W        W 6273   7.776   9.843   0.703 -0.0778  0.1303 -0.1830
 6274W        W 6274   2.457   7.333   1.216 -0.1755 -0.1594  0.0320
 6275W        W 6275   3.908   1.515  10.167  0.2536  0.0091  0.1165
 6276W        W 6276   6.588   5.484   1.610  0.1526 -0.0363 -0.0870
 6277W        W 6277   9.083   1.543   9.926  0.1517  0.0822 -0.1437
 6278W        W 6278   7.043   5.428   2.492 -0.0533  0.1133 -0.4454
 6279W        W 6279   3.735   2.364   3.037 -0.0221  0.0083  0.0791
 6280W        W 6280   6.160   6.569   4.026  0.0120  0.4793 -0.0767
 6281W        W 6281   6.044   4.416   1.139  0.0884 -0.3217 -0.1668
 6282W        W 6282   1.657   2.211   5.849 -0.0430  0.0818  0.0195
 6283W        W 6283   0.770   5.594   4.711 -0.0236  0.0092  0.2257
 6284W        W 6284   4.390   1.903   2.239  0.0505  0.0532  0.0517
 6285W        W 6285   5.348   4.053   0.856 -0.0330  0.2343  0.0850
 6286W        W 6286   2.789   7.073   2.860  0.1662  0.0063  0.0826
 6287W        W 6287   1.769   2.791   1.998  0.1571 -0.1616  0.0750
 6288W        W 6288   3.211   9.792   3.931  0.0397 -0.0431 -0.1756
 6289W        W 6289   5.404   4.870   5.274  0.0577  0.2606  0.0927
 6290W        W 6290   7.561   4.720   0.344 -0.1788  0.2009  0.0085
 6291W        W 6291   0.071   8.456   0.602  0.2554 -0.2308 -0.2577
 6292W        W 6292   3.203  10.187   3.599 -0.1613  0.1461  0.0979
 6293W        W 6293   7.658   2.596   9.618  0.0800  0.0000 -0.1654
 6294W        W 6294   9.298   3.473   9.289  0.1085  0.0063  0.0685
 6295W        W 6295   5.369   7.807   7.511  0.0011 -0.0388  0.2844
 6296W        W 6296  10.266   6.434   8.183  0.1696 -0.4729 -0.0009
 6297W        W 6297   4.749   0.253   2.781 -0.1859 -0.3810 -0.0995
 6298W        W 6298   4.531   1.189   3.683  0.3039 -0.0420 -0.1277
 6299W        W 6299   9.212   1.116   6.674 -0.0124  0.0645  0.0956
 6300W        W 6300   6.582   0.072   8.771  0.3298  0.1310  0.1996
 6301W        W 6301   3.914   4.531   7.864 -0.0355  0.2272 -0.2242
 6302W        W 6302   6.420   0.557   1.827  0.0495  0.2301  0.2106
 6303W        W 6303   6.348   9.423   4.203 -0.0489  0.2377 -0.2912
 6304W        W 6304   9.402   5.269   4.375  0.1177  0.1726 -0.2246
 6305W        W 6305   9.958   6.162   1.225 -0.3267 -0.0637 -0.1333
 6306W        W 6306   9.080   9.438   6.263  0.0560 -0.3343 -0.1256
 6307W        W 6307   6.543   2.908   4.903 -0.3108  0.0157 -0.3313
 6308W        W 6308   4.627   1.593   2.697  0.3791 -0.1222 -0.2521
 6309W        W 6309   9.934   3.656   9.961 -0.1500 -0.2019  0.2905
 6310W        W 6310  10.278   6.267   4.438 -0.0890 -0.0212  0.1849
 6311W        W 6311   1.879   2.097   2.522 -0.2466 -0.0107 -0.0516
 6312W        W 6312   7.842   0.902   2.374 -0.2637  0.0083 -0.0132
 6313W        W 6313   0.363   8.452   3.469 -0.2576  0.0730 -0.1970
 6314W        W 6314   1.519   5.158   4.015  0.0394 -0.2180  0.0159
 6315W        W 6315   3.667   9.915   5.974  0.2196  0.1204 -0.1728
 6316W        W 6316   9.287   6.220   5.526  0.1109 -0.0640 -0.1861
 6317W        W 6317   1.773  10.079   0.717 -0.0196 -0.0335 -0.0674
 6318W        W 6318   3.432   5.327   8.309 -0.0230  0.1318 -0.0587
 6319W        W 6319   6.765   5.499   0.938 -0.0800  0.1458  0.1317
 6320W        W 6320   5.070   2.684   1.734  0.0295 -0.0336 -0.0254
 6321W        W 6321   9.976   5.821   9.076  0.0353 -0.1216 -0.0255
 6322W        W 6322   2.986   1.552   5.795  0.3686 -0.0938  0.1331
 6323W        W 6323   6.851   6.505   5.400 -0.0403  0.1091  0.0349
 6324W        W 6324   2.885   4.319   0.677 -0.0368 -0.1633 -0.3308
 6325W        W 6325   3.502   3.667   3.713 -0.2175 -0.0968 -0.3881
 6326W        W 6326   3.519   6.070   8.734 -0.2774 -0.3506  0.0765
 6327W        W 6327  10.236   7.596   9.259 -0.1319  0.3532 -0.1429
 6328W        W 6328   5.652   5.681  10.126  0.2195 -0.2218  0.2572
 6329W        W 6329   5.657   1.445   7.266  0.1642 -0.1549  0.0138
 6330W        W 6330   9.327   1.829   9.564 -0.0994  0.2342 -0.0107
 6331W        W 6331   6.998   9.680   3.796 -0.2049 -0.4405 -0.1924
 6332W        W 6332   5.422   6.346   1.413 -0.0476  0.2150 -0.0285
 6333W        W 6333   6.015   3.157   6.107  0.1107 -0.1058  0.3741
 6334W        W 6334   4.820   8.783   4.069 -0.2266 -0.1368  0.0094
 6335W        W 6335   9.408   8.440   1.295 -0.1985 -0.1024 -0.2121
 6336W        W 6336   6.662   2.176   3.818  0.2178  0.2376  0.1459
 6337W        W 6337   4.960   4.480   4.757  0.0392  0.0022  0.0315
 6338W        W 6338   8.042   5.181   7.768 -0.3160 -0.3784 -0.1115
 6339W        W 6339   3.783   1.430   9.666 -0.0221  0.2060  0.1980
 6340W        W 6340   9.621   1.258   1.923 -0.0554  0.1342 -0.0729
 6341W        W 6341   5.700   8.067   1.390 -0.0523  0.1952 -0.0920
 6342W        W 6342   8.605   1.748   1.152 -0.0012 -0.0038 -0.0700
 6343W        W 6343   7.300   8.561   7.388  0.0310  0.0485 -0.1910
 6344W        W 6344   1.283   0.681   4.240 -0.0154 -0.3363 -0.0137
 6345W        W 6345   9.591   8.315   4.743  0.1962 -0.0686 -0.3037
 6346W        W 6346   3.823   7.042   6.252 -0.2167 -0.0766 -0.2936
 6347W        W 6347   0.782   1.136   7.854  0.1979  0.2033  0.2465
 6348W        W 6348   7.958   6.692   3.901  0.1946  0.1436  0.2842
 6349W        W 6349   7.644   7.655   0.092  0.3863 -0.1701  0.0352
 6350W        W 6350   7.768   3.750   0.075 -0.3121 -0.0437 -0.1551
 6351W        W 6351   3.621   9.092   9.557  0.0318  0.1810 -0.2823
 6352W        W 6352   3.546   7.261   3.998  0.0589 -0.0550  0.1612
 6353W        W 6353   9.114   9.138   3.597  0.0967  0.1972  0.4344
 6354W        W 6354   4.397   7.098   2.890  0.1070 -0.1113 -0.4174
 6355W        W 6355   8.323   1.913   7.788 -0.0501  0.1239  0.2616
 6356W        W 6356   0.177   7.839   1.439 -0.1906  0.2642  0.3253
 6357W        W 6357   5.997   0.613   2.384 -0.1010 -0.2308 -0.1936
 6358W        W 6358   5.777   6.400   9.037 -0.3453 -0.1340 -0.0596
 6359W        W 6359   0.294   5.452   4.427 -0.0040  0.1800  0.0944
 6360W        W 6360   6.621   3.260   3.496  0.0225 -0.2648 -0.1306
 6361W        W 6361   2.288   2.027   6.220 -0.1275  0.0281 -0.3930
 6362W        W 6362   8.766   1.316   0.914  0.3335 -0.1791 -0.0736
 6363W        W 6363   0.418  10.180   2.757 -0.1038  0.0102 -0.1610
 6364W        W 6364   5.163   4.417   0.137 -0.0068  0.2379 -0.0133
 6365W        W 6365   1.218   6.316   3.114  0.0972  0.0776 -0.1735
 6366W        W 6366   9.320   6.693   9.149  0.1343  0.0262  0.2663
 6367W        W 6367   7.126   6.236   5.754  0.1798 -0.1553 -0.1604
 6368W        W 6368   2.463   5.878   6.566 -0.0847 -0.0932  0.0691
 6369W        W 6369   3.948   1.753   6.731 -0.1933 -0.2163 -0.1116
 6370W        W 6370   5.498   9.176   0.974  0.2583  0.0400  0.2337
 6371W        W 6371   4.033   9.757   7.234 -0.0904 -0.1701  0.2907
 6372W        W 6372   4.975   4.284   8.321  0.0640  0.0846  0.1299
 6373W        W 6373   5.971   7.895   5.814  0.3981 -0.1785  0.0211
 6374W        W 6374   6.906   3.779   9.427  0.0462 -0.0953  0.0953
 6375W        W 6375   9.028   0.587   9.897 -0.2290 -0.1616 -0.2111
 6376W        W 6376   5.326   8.930   1.473  0.0851  0.3233  0.2432
 6377W        W 6377   7.317  10.025   6.086  0.1334 -0.0837 -0.0390
 6378W        W 6378   6.723   1.392   5.738 -0.1640 -0.2830 -0.0011
 6379W        W 6379   2.353   5.748   7.665  0.1333  0.1357  0.0577
 6380W        W 6380   0.959   8.820   0.282  0.1023 -0.0062  0.1954
 6381W        W 6381   8.749   7.240   2.037  0.1066 -0.1070  0.2799
 6382W        W 6382   7.427   0.071   1.355 -0.3146 -0.0528  0.0215
 6383W        W 6383   4.666   0.862   4.663 -0.0614 -0.0967 -0.0456
 6384W        W 6384   5.918   3.455   7.047  0.0483 -0.1990  0.2306
 6385W        W 6385   3.375   4.375   7.931  0.0732 -0.0514 -0.0825
 6386W        W 6386   7.055   1.864   9.084 -0.3554 -0.2044 -0.2510
 6387W        W 6387   2.913   2.140   1.192  0.0020 -0.0799  0.0256
 6388W        W 6388   6.562   2.441   6.569  0.4593  0.1425  0.0923
 6389W        W 6389   5.642   9.141   6.118 -0.3582  0.0991  0.3220
 6390W        W 6390   1.733   6.820   1.111 -0.0553 -0.1374 -0.0327
 6391W        W 6391   0.398   1.848   1.271 -0.3125 -0.0742  0.1270
 6392W        W 6392   1.363   7.752   0.788  0.1251 -0.2691  0.1944
 6393W        W 6393  10.204   5.127   0.768 -0.4516 -0.1183  0.0972
 6394W        W 6394   2.200   1.645   1.672  0.1559  0.1912  0.2765
 6395W        W 6395   0.762   1.401   7.286  0.0067 -0.0916 -0.0539
 6396W        W 6396   8.463   7.621   7.528  0.0002 -0.3438  0.1506
 6397W        W 6397   8.166   3.114   2.796  0.0254 -0.0686 -0.0646
 6398W        W 6398   4.226   3.002   7.027  0.1386 -0.1638 -0.0643
 6399W        W 6399   8.208   2.991   8.352 -0.0682  0.0336 -0.0266
 6400W        W 6400   8.214   8.834   9.737  0.0009  0.2512  0.1726
 6401W        W 6401   9.863   0.810   7.307  0.1212  0.1547  0.0551
 6402W        W 6402   0.740   6.407   5.885 -0.2424 -0.1989  0.2585
 6403W        W 6403   6.036   5.837   2.705 -0.1758 -0.1056  0.4164
 6404W        W 6404   7.808   6.565   1.325 -0.0090  0.3670 -0.1623
 6405W        W 6405   9.901  10.237   7.339  0.0072  0.1040 -0.1267
 6406W        W 6406   2.280   4.755   6.033  0.1058 -0.0124 -0.1291
 6407W        W 6407   1.272  10.128   3.855  0.1393  0.1527 -0.1452
 6408W        W 6408   5.041   2.060   1.283  0.2466 -0.1324  0.1368
 6409W        W 6409   9.414   7.569   8.934 -0.3920  0.2213 -0.1697
 6410W        W 6410   5.638   1.438   2.351  0.3531  0.2891  0.2794
 6411W        W 6411   2.640   5.409   2.583 -0.2685  0.1014  0.0053
 6412W        W 6412   2.988   8.480   0.199 -0.0592  0.1019 -0.1623
 6413W        W 6413   2.774   2.953   4.336 -0.1763  0.3794 -0.0986
 6414W        W 6414   4.396   2.887   1.378  0.1329  0.0481 -0.1235
 6415W        W 6415   2.718   5.747  10.025 -0.1427 -0.2734  0.2169
 6416W        W 6416   3.737   1.423   5.467  0.2116  0.0141 -0.0208
 6417W        W 6417   6.114   4.472   2.025 -0.4538  0.0525 -0.1070
 6418W        W 6418   1.194   0.311   5.519 -0.1960 -0.1614 -0.2256
 6419W        W 6419   8.593   9.111   6.707 -0.2605 -0.0197  0.3896
 6420W        W 6420   2.795   6.750   3.565 -0.1610  0.1357  0.2477
 6421W        W 6421   6.055   8.442   3.877  0.0699 -0.1798  0.1147
 6422W        W 6422   4.425   0.403   4.644 -0.2198  0.0267 -0.2716
 6423W        W 6423   7.983   5.486   3.402 -0.0965  0.1115 -0.2242
 6424W        W 6424   2.495   7.990   2.316 -0.6070 -0.2772  0.1202
 6425W        W 6425   7.798   4.064   1.647  0.1775 -0.2470 -0.1769
 6426W        W 6426   8.048   6.346   2.991  0.0866 -0.3298  0.0014
 6427W        W 6427   0.142   4.939   7.723  0.1503 -0.1302  0.0943
 6428W        W 6428   2.869   5.089   7.237  0.1155  0.1047  0.0495
 6429W        W 6429   1.668  10.295   3.567  0.2115  0.0160 -0.1745
 6430W        W 6430   0.216   2.995   3.679  0.3493 -0.1589 -0.0345
 6431W        W 6431   2.140   0.435   3.797  0.0051 -0.0609  0.1522
 6432W        W 6432   7.750   2.485   4.414 -0.0285  0.2133  0.2401
 6433W        W 6433   9.256   0.473   0.480 -0.2421 -0.3964  0.0400
 6434W        W 6434   6.198   8.418   6.679 -0.0695 -0.4908 -0.1217
 6435W        W 6435   2.948  10.068   3.037  0.0239  0.1571  0.2128
 6436W        W 6436   0.363   7.592   2.050 -0.0572 -0.1617  0.3171
 6437W        W 6437   8.937   3.618   6.242  0.1452  0.0858 -0.1520
 6438W        W 6438   1.173   6.647   9.463 -0.2816  0.2458 -0.1668
 6439W        W 6439   7.320   9.062   0.624 -0.2311 -0.0352  0.1984
 6440W        W 6440   2.796  10.039   2.121 -0.1798 -0.1539 -0.2570
 6441W        W 6441   6.098   4.522   2.625  0.0543  0.0799 -0.0764
 6442W        W 6442   1.471   6.698   0.621  0.0807 -0.2602 -0.1343
 6443W        W 6443   6.892   5.181   7.145 -0.1331  0.2862 -0.0908
 6444W        W 6444   1.527   4.664   2.270  0.0483  0.3288  0.0038
 6445W        W 6445   3.307   6.408   5.332  0.2890 -0.2207 -0.0735
 6446W        W 6446   7.027   4.057   2.213 -0.0404  0.0906 -0.2851
 6447W        W 6447   1.803   0.688   1.019 -0.2590 -0.1371  0.0558
 6448W        W 6448  10.297   2.408   0.018  0.1392  0.0361 -0.2634
 6449W        W 6449   7.141   1.890   1.738  0.2128  0.0561 -0.2485
 6450W        W 6450   3.493   0.111   4.372  0.1090 -0.1172 -0.2645
 6451W        W 6451   8.536   0.799   8.284 -0.1320 -0.3150  0.0526
 6452W        W 6452  10.065   4.476   8.519  0.0737 -0.0528  0.2245
 6453W        W 6453   5.587   7.212  10.280 -0.0292  0.4113 -0.0058
 6454W        W 6454   1.382   1.283   2.918 -0.2100  0.0415 -0.1508
 6455W        W 6455   2.140   3.140   5.834 -0.0036 -0.0822 -0.2530
 6456W        W 6456   1.803   6.121   0.305 -0.0350  0.2742 -0.0381
 6457W        W 6457   3.889   9.956   7.987 -0.0073 -0.5322 -0.1593
 6458W        W 6458   2.124   2.230   5.294  0.0194  0.4089  0.1510
 6459W        W 6459   8.501   0.770   7.399 -0.1645 -0.1317 -0.0955
 6460W        W 6460   9.945   2.859   0.812 -0.0403 -0.0447  0.0301
 6461W        W 6461   3.474   2.736   7.300  0.1578 -0.0467 -0.3044
 6462W        W 6462   8.156   8.398   2.639 -0.3042  0.1079 -0.3577
 6463W        W 6463   0.799   0.843   0.407  0.1019 -0.0202 -0.1079
 6464W        W 6464   5.587   7.325   1.684  0.3283 -0.1899  0.0262
 6465W        W 6465   5.978   2.781   4.185 -0.0547 -0.1644  0.3148
 6466W        W 6466   1.809   0.060   2.459 -0.0259  0.1907  0.0031
 6467W        W 6467   1.305   1.329   8.059 -0.0810  0.0347  0.2918
 6468W        W 6468   8.023   1.424   7.562  0.0407 -0.3170  0.2008
 6469W        W 6469   1.551  10.270  10.074  0.4480  0.1571 -0.0711
 6470W        W 6470   8.278   9.485   5.356 -0.1245 -0.1395 -0.1555
 6471W        W 6471   0.023   4.120   3.989 -0.0757  0.1275  0.1723
 6472W        W 6472   6.925   3.663   8.945  0.2285 -0.0003 -0.1318
 6473W        W 6473  10.108   8.019   9.533  0.1516  0.2368  0.0526
 6474W        W 6474   2.414   0.132   1.269  0.1415 -0.1898  0.0822
 6475W        W 6475   4.269   4.819   4.320  0.0784 -0.0230  0.2306
 6476W        W 6476  10.196   3.976   3.562  0.1339 -0.0182  0.2516
 6477W        W 6477   0.793   5.623   7.282 -0.0180 -0.2281  0.1097
 6478W        W 6478   8.177   8.177   9.921 -0.0112 -0.2789 -0.2205
 6479W        W 6479   9.502   0.895   7.739 -0.0295  0.3105  0.0272
 6480W        W 6480   4.224   4.709   3.246  0.4610  0.3148  0.0899
 6481W        W 6481   0.454   7.728   4.159  0.1095  0.0701 -0.0595
 6482W        W 6482   3.840   4.576   4.984 -0.1674  0.1326  0.1452
 6483W        W 6483   9.277   6.414   0.759  0.0070 -0.3179 -0.0755
 6484W        W 6484   1.179   2.113   4.358  0.1378 -0.2275  0.1729
 6485W        W 6485   7.138   0.695   0.437  0.1918 -0.1988  0.0555
 6486W        W 6486   5.077  10.115   2.201  0.1622  0.2340 -0.1216
 6487W        W 6487   9.194   5.768   1.080 -0.2685 -0.2826 -0.1461
 6488W        W 6488   5.458   3.612   0.608  0.2216 -0.3600 -0.1482
 6489W        W 6489   2.201   0.314   9.176  0.2161 -0.3537 -0.0035
 6490W        W 6490   3.309   1.335   9.905  0.0387 -0.0181  0.0644
 6491W        W 6491   9.061   5.902  10.060  0.3195  0.4247  0.0764
 6492W        W 6492   5.652   1.246   3.529 -0.0156 -0.2285  0.0569
 6493W        W 6493   3.015   1.101   1.265 -0.0485 -0.0675  0.0407
 6494W        W 6494   7.107   8.738   3.070  0.1563  0.1840 -0.2576
 6495W        W 6495   9.065   8.393   9.189  0.1250 -0.2599  0.2548
 6496W        W 6496   2.799   4.943   9.141 -0.0600 -0.1840  0.2107
 6497W        W 6497   5.622   0.642   2.685 -0.4708  0.2215  0.2003
 6498W        W 6498   1.848   1.453   5.301  0.0325 -0.0818  0.0520
 6499W        W 6499   5.796   8.291   7.547  0.4481 -0.1880  0.0576
 6500W        W 6500   4.680   9.112   6.601  0.2204 -0.0166 -0.1799
 6501W        W 6501   0.834   8.922   5.067  0.2197  0.2356  0.1561
 6502W        W 6502   2.244   6.625   8.303  0.1185 -0.1398 -0.1247
 6503W        W 6503   6.382   2.617   4.453 -0.0230  0.3850  0.0866
 6504W        W 6504   2.419   6.607   3.936  0.1691  0.1726  0.3221
 6505W        W 6505   8.560   0.325   7.034  0.0687 -0.0627 -0.0153
 6506W        W 6506   8.285   0.792   2.832 -0.2041 -0.0141 -0.4094
 6507W        W 6507   9.864   3.881   0.472  0.1382  0.1340 -0.0358
 6508W        W 6508   0.313   7.662   8.900 -0.2506  0.2077  0.1430
 6509W        W 6509   9.747   2.370  10.213  0.1398  0.0942  0.0365
 6510W        W 6510   7.682   9.102   1.437  0.0020 -0.2680  0.1777
 6511W        W 6511   9.263   0.935   1.811 -0.0641  0.1793  0.0714
 6512W        W 6512   6.891   7.630   2.386 -0.1985 -0.3071 -0.0944
 6513W        W 6513   1.213   4.007   4.662 -0.1629 -0.0207  0.0379
 6514W        W 6514   3.661  10.144   3.981 -0.0069  0.1737  0.1675
 6515W        W 6515   2.934   8.572   3.517  0.3124 -0.0201  0.1490
 6516W        W 6516   0.442   9.617   3.982  0.1568  0.0992  0.0254
 6517W        W 6517  10.206   7.244   2.817  0.0104  0.1650 -0.0633
 6518W        W 6518   6.385   5.733   7.848 -0.0835  0.0097  0.4158
 6519W        W 6519   2.597   3.664   1.693  0.1663 -0.0117  0.2466
 6520W        W 6520   3.191   4.914   1.872  0.2224 -0.0545  0.1722
 6521W        W 6521   8.989   6.130   6.810  0.1403  0.0481 -0.0957
 6522W        W 6522   9.982   4.833   6.796  0.2664 -0.1534  0.0506
 6523W        W 6523   2.640   3.379   5.553  0.0658  0.0920 -0.0852
 6524W        W 6524   6.590  10.084   3.138  0.0995  0.0401 -0.1157
 6525W        W 6525   1.208   0.164   6.235  0.1822  0.0767 -0.1759
 6526W        W 6526   1.245   4.316   3.299 -0.0318 -0.1840 -0.3103
 6527W        W 6527   7.870   0.259   8.282 -0.0912 -0.0403  0.0666
 6528W        W 6528   6.778   5.035   5.546  0.0142  0.2035 -0.1208
 6529W        W 6529   1.483   5.606   3.895 -0.2618 -0.0239 -0.2474
 6530W        W 6530   4.656   6.701   5.990  0.0825  0.0949 -0.0391
 6531W        W 6531   5.996   6.053   2.149 -0.1297  0.2748  0.1768
 6532W        W 6532   5.925   5.774   9.579 -0.2855  0.0934 -0.1433
 6533W        W 6533   6.147   8.037   0.160 -0.1558  0.2944  0.0778
 6534W        W 6534   7.264   3.857   8.140 -0.0224 -0.2244 -0.1608
 6535W        W 6535   2.536   9.907   8.554  0.2460  0.0190 -0.1509
 6536W        W 6536   8.331   7.727   3.618  0.0101  0.0157  0.1848
 6537W        W 6537   1.544   0.928  10.224 -0.0787  0.3689  0.2305
 6538W        W 6538   2.527   4.007   3.800  0.0612  0.0379  0.1138
 6539W        W 6539   3.285   7.929   4.405  0.1386  0.1063 -0.1545
 6540W        W 6540   0.535   8.745   0.666 -0.0011  0.1164 -0.0338
 6541W        W 6541   5.382   8.666   8.000 -0.0068 -0.1910  0.2317
 6542W        W 6542   3.628   2.838   5.229 -0.0877  0.1652 -0.3030
 6543W        W 6543  10.208   2.416   8.415 -0.1002 -0.3634  0.3041
 6544W        W 6544   7.301   4.638   6.759  0.0326 -0.0721 -0.0077
 6545W        W 6545   3.790   4.913   3.078 -0.3136  0.0142  0.1696
 6546W        W 6546   6.587   6.043   7.431 -0.0326 -0.3234  0.1617
 6547W        W 6547   5.224   9.819   0.047 -0.5357  0.0351 -0.1185
 6548W        W 6548   3.197   6.357   1.685 -0.0858 -0.0704  0.1270
 6549W        W 6549  10.131   6.510   5.412 -0.0831 -0.1887  0.0921
 6550W        W 6550   5.150   2.132   4.518 -0.2560  0.1530 -0.2439
 6551W        W 6551   7.966   6.103   6.105 -0.1256  0.1811 -0.2506
 6552W        W 6552   3.735   4.063   7.603 -0.0602 -0.0763  0.1548
 6553W        W 6553   8.306   1.192   2.432  0.2269 -0.1024  0.0335
 6554W        W 6554   7.606   0.190   6.924 -0.1062  0.1929 -0.1233
 6555W        W 6555   3.287   7.253   5.215 -0.0358 -0.0787 -0.0875
 6556W        W 6556   8.632   4.424   6.198 -0.0721 -0.3170 -0.0642
 6557W        W 6557   7.514   4.328   4.050 -0.1570 -0.0260  0.0167
 6558W        W 6558   6.792   3.082   9.960  0.0002  0.0156 -0.1845
 6559W        W 6559   5.560   0.626   4.825 -0.0250  0.2647 -0.3335
 6560W        W 6560   9.239   4.891   4.646  0.1619  0.2671 -0.0738
 6561W        W 6561   1.782   4.723   6.640  0.1425  0.0374  0.0603
 6562W        W 6562   9.840   0.798   3.465 -0.3733  0.0402 -0.0515
 6563W        W 6563  10.296   1.225   0.774 -0.0369 -0.0881 -0.1633
 6564W        W 6564   7.162   3.277   1.842  0.2240  0.0244  0.0905
 6565W        W 6565   6.082   0.615   6.092  0.0987  0.0616  0.0105
 6566W        W 6566   3.867   4.073   8.101  0.0826 -0.0503 -0.3607
 6567W        W 6567   1.943   2.087   8.408 -0.0736 -0.1992 -0.1642
 6568W        W 6568   6.100   1.602   3.214 -0.0488 -0.0723  0.1002
 6569W        W 6569   0.002   7.707   2.923  0.1478  0.1126 -0.1046
 6570W        W 6570   0.366   5.756   6.991  0.0158  0.1498  0.0389
 6571W        W 6571   7.489   7.770   2.003  0.3329 -0.2635 -0.1289
 6572W        W 6572   5.535   3.001   2.910  0.2380  0.0246  0.0466
 6573W        W 6573   3.815   8.371   4.876 -0.2065 -0.1091  0.0481
 6574W        W 6574   0.688   5.217   8.579  0.2421 -0.0039  0.2000
 6575W        W 6575   2.092   7.803   6.551 -0.0366 -0.1959 -0.3913
 6576W        W 6576   6.164   2.737   0.515 -0.0872 -0.0900  0.1302
 6577W        W 6577   9.761   7.374   1.446 -0.1880 -0.0858 -0.0799
 6578W        W 6578   5.863   8.197   3.103 -0.1073  0.1351  0.4928
 6579W        W 6579   2.959   2.092   9.561 -0.3848 -0.4152 -0.0666
 6580W        W 6580   0.893   3.442   9.995 -0.1505 -0.0202 -0.1691
 6581W        W 6581   8.832   4.257   4.931  0.0456 -0.1935  0.0026
 6582W        W 6582  10.196   9.155   7.200 -0.0807 -0.0891 -0.0760
 6583W        W 6583   9.176   7.327   4.754 -0.1587 -0.4814  0.1205
 6584W        W 6584   2.533   7.583   3.589 -0.1093 -0.2188  0.0369
 6585W        W 6585   5.283   4.350   9.910  0.0258  0.1247 -0.2032
 6586W        W 6586   0.902   2.433   8.510 -0.1788 -0.0789 -0.2859
 6587W        W 6587   7.437   0.693   4.487 -0.0513  0.2788 -0.0361
 6588W        W 6588   9.448   6.447   2.076  0.0941 -0.1806  0.2695
 6589W        W 6589   6.375   0.857   7.413  0.2185  0.1271  0.0929
 6590W        W 6590   5.902   6.503   5.855  0.0929 -0.0469 -0.2105
 6591W        W 6591   8.029   8.926   3.249 -0.4340  0.1107  0.0156
 6592W        W 6592   4.979   1.522   9.760  0.0382  0.6436  0.0648
 6593W        W 6593   1.552   8.576   0.027  0.0597  0.4745  0.2421
 6594W        W 6594   9.615   5.341   3.071 -0.1165 -0.1562 -0.2501
 6595W        W 6595   0.635   5.108   4.223 -0.0863 -0.0913 -0.1059
 6596W        W 6596   9.588   9.208  10.264  0.1801 -0.0428 -0.2733
 6597W        W 6597   8.080   7.458   6.126 -0.1525  0.3043  0.1446
 6598W        W 6598   2.693   1.036   0.790 -0.1743 -0.2168 -0.2355
 6599W        W 6599   7.163   8.236   9.320 -0.0156  0.1220 -0.1182
 6600W        W 6600  10.098   9.814   1.861  0.5237 -0.1217 -0.0916
 6601W        W 6601   6.596  10.243   3.896  0.2306 -0.1379 -0.0475
 6602W        W 6602   7.303   4.698   1.928 -0.1547 -0.2543 -0.0840
 6603W        W 6603   9.811   3.416   7.205 -0.1022 -0.1739 -0.2181
 6604W        W 6604   5.417   2.078   9.237  0.0334 -0.2852 -0.1396
 6605W        W 6605   0.729   0.363   4.048 -0.1167 -0.0583 -0.3908
 6606W        W 6606   3.611   6.039   4.479  0.2473  0.0298 -0.2489
 6607W        W 6607   5.217   8.306   5.704  0.1876 -0.0865  0.1503
 6608W        W 6608   2.992   4.648   5.329 -0.2223 -0.1490 -0.0486
 6609W        W 6609   4.144   9.490   8.155  0.1551 -0.2816 -0.2055
 6610W        W 6610   2.533   7.578   5.743 -0.2795  0.0234 -0.0137
 6611W        W 6611   4.002   8.963   3.108  0.3254 -0.2846 -0.1187
 6612W        W 6612   7.911   6.906   5.711  0.2192 -0.1732 -0.4631
 6613W        W 6613  10.218   4.599   5.947 -0.0592 -0.1631 -0.1182
 6614W        W 6614   7.325   1.351   9.525  0.1902 -0.0979  0.0158
 6615W        W 6615   0.323   0.283   0.190 -0.2740 -0.2204 -0.0521
 6616W        W 6616   6.102   0.112   6.425 -0.1062  0.0751 -0.0987
 6617W        W 6617   3.318   0.404   2.474 -0.2854 -0.1136  0.2370
 6618W        W 6618   2.994   0.723   5.458 -0.1259 -0.2000  0.1446
 6619W        W 6619   2.155   4.075   8.673 -0.0303 -0.0982  0.4473
 6620W        W 6620   9.697   8.853   5.097  0.1458 -0.0452  0.2407
 6621W        W 6621   2.343   5.520   4.831  0.0118 -0.3112 -0.0806
 6622W        W 6622   2.358   0.494   8.758  0.0941 -0.1220  0.1701
 6623W        W 6623   8.526   2.796   7.474  0.1900  0.1605 -0.2376
 6624W        W 6624   4.439   4.455   8.776  0.3083 -0.1257  0.1500
 6625W        W 6625   0.546   6.251   7.193 -0.0119 -0.0903 -0.2153
 6626W        W 6626   6.758   1.779  10.330  0.0789 -0.1650 -0.0663
 6627W        W 6627   8.418   9.144   4.059  0.3527 -0.1106 -0.1451
 6628W        W 6628   1.022   8.651   0.903  0.0972  0.1699 -0.1215
 6629W        W 6629   2.186  10.218   5.595 -0.1068  0.0526 -0.2549
 6630W        W 6630   8.279   7.272   2.568 -0.0448  0.0169 -0.1715
 6631W        W 6631   7.551   8.415   6.411 -0.0863  0.1591  0.0336
 6632W        W 6632   2.461   6.951   0.559  0.0836 -0.3444 -0.3772
 6633W        W 6633   9.610   5.829   5.689  0.1473  0.0446 -0.1279
 6634W        W 6634   9.216   9.999   2.408  0.0576 -0.0385  0.0571
 6635W        W 6635   9.948   5.974   8.086  0.2302  0.0078  0.1046
 6636W        W 6636   6.411   4.711   6.793  0.0968  0.0244  0.0601
 6637W        W 6637   0.556   1.226   9.329  0.1824 -0.0682  0.5187
 6638W        W 6638   0.817   7.676   8.580  0.1062  0.0827 -0.2570
 6639W        W 6639   5.055   7.688   6.119 -0.4081 -0.2164 -0.0743
 6640W        W 6640   1.298   0.459   1.300 -0.2985  0.2477  0.0330
 6641W        W 6641   4.028   8.383   9.996  0.2227 -0.2283 -0.1320
 6642W        W 6642   3.286   1.726   2.397 -0.1379 -0.0798 -0.1044
 6643W        W 6643   0.381   7.411   2.612  0.0704 -0.0183 -0.0516
 6644W        W 6644   3.071   0.461   6.851  0.2428 -0.0957  0.2607
 6645W        W 6645   8.482  10.280   5.237  0.0932  0.1342 -0.3641
 6646W        W 6646   6.984   5.749   9.535  0.0455 -0.0908  0.0598
 6647W        W 6647   2.944   3.845   9.195 -0.5820  0.1688  0.2156
 6648W        W 6648   8.150   0.525   7.885 -0.0519 -0.1870  0.1210
 6649W        W 6649   6.185   3.606   5.544  0.2727  0.1521  0.2631
 6650W        W 6650   5.623   1.408   5.749 -0.0090 -0.2546  0.0681
 6651W        W 6651   1.815   3.943   9.500 -0.0950  0.3770  0.1740
 6652W        W 6652   2.432   6.261   1.684  0.0498 -0.0224  0.1212
 6653W        W 6653   6.236   9.125   7.204  0.0760 -0.0303  0.1392
 6654W        W 6654   9.024   9.104   5.805  0.0409 -0.2078 -0.5046
 6655W        W 6655   2.590   2.476   5.032  0.2470 -0.1833  0.0158
 6656W        W 6656   5.786   7.224   8.818 -0.0247 -0.2777 -0.2236
 6657W        W 6657   8.925   9.797   2.072  0.0169 -0.0435  0.1864
 6658W        W 6658   9.117   1.779   3.801  0.2570 -0.0096 -0.0204
 6659W        W 6659   1.564   0.406   4.508  0.0506  0.2330  0.1323
 6660W        W 6660   4.238   3.330   8.778 -0.3015 -0.2704  0.0303
 6661W        W 6661   2.091   9.272   4.258 -0.1222 -0.0332  0.1677
 6662W        W 6662   1.755   7.797   6.000  0.0747 -0.1373  0.1561
 6663W        W 6663   2.219   1.230   2.009  0.1963 -0.1996  0.2415
 6664W        W 6664  10.020   8.453   5.093  0.3626  0.1263  0.0755
 6665W        W 6665   6.101   4.563   5.950 -0.0582 -0.0318 -0.1510
 6666W        W 6666   0.806   5.971   5.048  0.2782  0.1422 -0.1989
 6667W        W 6667   5.671   4.285   0.002  0.4674  0.0185  0.0074
 6668W        W 6668   0.646   6.865   7.683  0.3043 -0.0920 -0.0099
 6669W        W 6669   2.828   5.794   7.457 -0.2223  0.0370  0.0208
 6670W        W 6670   3.219   5.453   1.040  0.3691 -0.1961  0.4819
 6671W        W 6671   7.971   2.223   7.154 -0.3376  0.3669 -0.0388
 6672W        W 6672   7.986   0.582   6.885 -0.0961  0.1084 -0.2370
 6673W        W 6673   1.227   7.677   7.923 -0.2265  0.0838  0.0719
 6674W        W 6674   7.158   2.057   2.630  0.0026  0.0471 -0.2228
 6675W        W 6675   5.343   8.703   8.794 -0.1051  0.1672 -0.0780
 6676W        W 6676   1.829   6.245   7.917 -0.0260 -0.0604  0.0744
 6677W        W 6677   5.992   4.171   9.319 -0.1504 -0.2627  0.3324
 6678W        W 6678   3.851   0.547   0.925 -0.3302 -0.2158  0.1463
 6679W        W 6679   2.888   4.007   5.225 -0.0851 -0.3931 -0.0645
 6680W        W 6680   2.627   8.414   0.642 -0.3346  0.2187  0.4583
 6681W        W 6681   2.466   6.509   7.243 -0.0134 -0.1904 -0.2208
 6682W        W 6682   3.692   0.823   8.733 -0.2086 -0.1715  0.1871
 6683W        W 6683   7.396   3.846   8.712  0.1395 -0.1535  0.2732
 6684W        W 6684   5.609   9.453   3.558  0.0069 -0.0076  0.0067
 6685W        W 6685   4.321   5.442   4.808  0.0902  0.1021 -0.0241
 6686W        W 6686   2.613   9.290  10.017 -0.3354 -0.1957  0.1142
 6687W        W 6687   7.003   6.312   7.132  0.1825 -0.4239 -0.3879
 6688W        W 6688   3.215   7.431   8.604  0.0364  0.2532  0.0322
 6689W        W 6689  10.220   0.322   5.095  0.1527 -0.0253 -0.0512
 6690W        W 6690   8.329   4.245   4.785 -0.2065 -0.1488 -0.0600
 6691W        W 6691   4.487   6.272   6.913 -0.1524  0.0801  0.1303
 6692W        W 6692   3.452   5.410   2.072  0.3377 -0.3522  0.0485
 6693W        W 6693   8.728   3.887   1.848  0.0258  0.0673 -0.1770
 6694W        W 6694   8.564   1.588   4.235 -0.1949  0.2010  0.2495
 6695W        W 6695   6.277   0.193   5.254 -0.1647 -0.1989 -0.1420
 6696W        W 6696   7.085   5.883   6.322 -0.2978 -0.2466 -0.0245
 6697W        W 6697   9.441   7.024   7.149  0.2283  0.1012  0.4221
 6698W        W 6698   6.526   8.612   0.697 -0.3362  0.1390 -0.0536
 6699W        W 6699   6.777   8.350   4.663 -0.2027  0.0295  0.0126
 6700W        W 6700   6.819   4.926   7.596 -0.0091  0.1796 -0.1311
 6701W        W 6701   6.166   3.204   2.555  0.0794  0.2408  0.0599
 6702W        W 6702   9.880   1.710   6.924  0.0558 -0.1928  0.2246
 6703W        W 6703   5.192   2.233   5.918  0.0968 -0.0165 -0.3234
 6704W        W 6704   6.058  10.325   9.557  0.0371 -0.1517  0.1823
 6705W        W 6705   3.544   5.622   0.116 -0.0234  0.0905  0.1391
 6706W        W 6706   3.812   4.611   0.033  0.3315 -0.0819 -0.0871
 6707W        W 6707   2.705   1.465   2.176 -0.2859 -0.2624 -0.0747
 6708W        W 6708   0.005   1.196   8.922  0.0747  0.0871 -0.0619
 6709W        W 6709   3.435   1.238   5.129  0.0690 -0.0333 -0.1822
 6710W        W 6710   8.370   0.214   7.484  0.3489  0.1543 -0.0113
 6711W        W 6711   5.339   7.588  10.187  0.3013 -0.0341  0.0181
 6712W        W 6712   5.833   0.206   8.546  0.0181 -0.1500 -0.1836
 6713W        W 6713   4.276   3.828   8.938  0.4523 -0.0387 -0.0164
 6714W        W 6714   9.618   7.036   6.675  0.1251 -0.1344  0.0664
 6715W        W 6715   4.923   9.364   7.584 -0.1180 -0.1879  0.0497
 6716W        W 6716   4.867   8.454   8.688 -0.0720 -0.1780 -0.1015
 6717W        W 6717   9.946   8.473   7.406  0.2078 -0.1903  0.2346
 6718W        W 6718   7.276   0.209   4.330  0.1008  0.0060 -0.2755
 6719W        W 6719  10.274   3.688   5.693  0.1715  0.1339  0.0037
 6720W        W 6720   8.933   7.295   8.396  0.0428  0.0571  0.0368
 6721W        W 6721   4.306   8.698   7.969  0.4734 -0.0032  0.1316
 6722W        W 6722   9.750   1.269   3.275  0.0126  0.0251 -0.0261
 6723W        W 6723   1.326   0.848   6.872  0.0730  0.0555 -0.0394
 6724W        W 6724   9.550   1.537   4.564 -0.1296  0.1018 -0.1384
 6725W        W 6725   7.155   0.856   7.322 -0.1923  0.3136 -0.0878
 6726W        W 6726   6.083   3.035   8.910 -0.1440  0.0295 -0.0405
 6727W        W 6727   6.959   5.471   3.578  0.4082 -0.0899  0.0409
 6728W        W 6728   3.013   9.107   4.826 -0.2147 -0.2808 -0.4153
 6729W        W 6729   1.809   9.447   9.640  0.2296 -0.0471  0.0720
 6730W        W 6730   2.120   0.416   2.253 -0.0051 -0.0695  0.1882
 6731W        W 6731  10.077   0.838   0.621 -0.2335  0.0879  0.0826
 6732W        W 6732  10.095   9.332   2.476  0.1531  0.0950  0.4625
 6733W        W 6733   2.731   6.212   4.221  0.3011 -0.2144  0.0617
 6734W        W 6734   4.600   5.748   9.351  0.2518 -0.0447 -0.0015
 6735W        W 6735   0.854   1.383   5.196  0.0936 -0.0502 -0.0298
 6736W        W 6736   8.161   8.606   8.265 -0.0022 -0.0581  0.0951
 6737W        W 6737   7.011   4.167   7.203  0.1345  0.1263  0.0768
 6738W        W 6738   3.218   5.460   7.265 -0.1125 -0.0937 -0.1509
 6739W        W 6739   1.654   5.305   5.418  0.0974 -0.0186 -0.0570
 6740W        W 6740   8.427   6.793   7.525 -0.1666 -0.1486  0.0416
 6741W        W 6741   8.353   5.519   1.473 -0.2775  0.1285 -0.0050
 6742W        W 6742   6.724   4.085   7.603 -0.1388  0.0753  0.0049
 6743W        W 6743   5.170   3.856   3.396  0.0428 -0.1859  0.1396
 6744W        W 6744   5.201   7.144   6.706  0.3632 -0.2099 -0.0312
 6745W        W 6745   2.630   5.288   3.913  0.1035 -0.0919 -0.0397
 6746W        W 6746   6.100   8.320  10.088  0.1215 -0.2673  0.0683
 6747W        W 6747   5.225   4.849   3.149  0.2450  0.1868  0.1365
 6748W        W 6748   4.234   4.464   6.388  0.1220 -0.1365  0.4177
 6749W        W 6749   8.087   1.495   4.208  0.2664  0.0707 -0.0474
 6750W        W 6750   8.955   5.506   9.342  0.4464 -0.3908 -0.2372
 6751W        W 6751  10.165   9.316   5.027 -0.1975 -0.0747  0.0834
 6752W        W 6752   1.123   0.210   2.208  0.0310 -0.0577  0.2066
 6753W        W 6753   8.049   8.092   4.019 -0.0804  0.1459 -0.2880
 6754W        W 6754   6.272   7.149   8.513 -0.1807 -0.3840  0.1009
 6755W        W 6755   8.727  10.343   8.532 -0.0554 -0.0615 -0.1243
 6756W        W 6756   8.374   2.340   5.765  0.0358 -0.2455 -0.1362
 6757W        W 6757   9.345   3.976   3.833  0.0587 -0.2846  0.0854
 6758W        W 6758   2.961   2.145   2.707  0.0837 -0.1780 -0.1261
 6759W        W 6759   8.903   1.269   7.097 -0.3293  0.1005  0.0137
 6760W        W 6760   4.675   7.004   3.994 -0.2021  0.0294 -0.0958
 6761W        W 6761   9.781  10.146   6.038  0.3430  0.0832 -0.0647
 6762W        W 6762   3.416   4.454   0.651  0.3656 -0.0960  0.1269
 6763W        W 6763   2.528   8.218   3.520 -0.0574  0.1972  0.4485
 6764W        W 6764   5.346   2.274   1.819  0.1874 -0.2999 -0.1409
 6765W        W 6765   7.982   6.069   3.423  0.1996 -0.1055 -0.1342
 6766W        W 6766   6.959   3.512   2.289 -0.1859 -0.0724 -0.1113
 6767W        W 6767   6.199   3.689   2.760 -0.0598 -0.0057 -0.0609
 6768W        W 6768   2.167   8.410   4.689 -0.2440  0.2091 -0.1587
 6769W        W 6769   5.441   3.450   1.882  0.2804  0.0482  0.2092
 6770W        W 6770   2.802   6.826   7.489  0.1527 -0.1379  0.0057
 6771W        W 6771   5.117   8.668   5.011  0.0398 -0.3076 -0.0627
 6772W        W 6772   4.386   0.668   3.788  0.1368  0.0825 -0.2218
 6773W        W 6773   7.311   4.326   8.028  0.0428 -0.3812  0.0736
 6774W        W 6774   2.194   3.648   5.547  0.1307 -0.3628  0.0125
 6775W        W 6775   2.773   1.759   6.245 -0.2526  0.0774  0.0038
 6776W        W 6776   2.159   5.417   5.303  0.0021  0.0476 -0.0594
 6777W        W 6777  10.237   4.833   8.950  0.0701  0.0482  0.0651
 6778W        W 6778   9.235   9.048   7.290 -0.0493 -0.0165  0.3505
 6779W        W 6779   3.175   5.102   1.397  0.1916  0.1356  0.1596
 6780W        W 6780   6.261   7.346   2.347 -0.0950 -0.0999  0.0765
 6781W        W 6781   4.695   3.778   1.963  0.1695  0.0924 -0.1011
 6782W        W 6782   9.870  10.198   1.638 -0.0776 -0.0045 -0.2634
 6783W        W 6783  10.299   2.780   0.401  0.0693 -0.0462  0.0363
 6784W        W 6784   4.656   9.871   3.792 -0.0287  0.3233  0.1115
 6785W        W 6785   8.813   0.003   5.945 -0.0401  0.0926 -0.0837
 6786W        W 6786   2.579   5.064   6.748  0.0935  0.1064 -0.0550
 6787W        W 6787   0.509   5.106   5.444 -0.2452  0.3828 -0.0839
 6788W        W 6788   3.061   2.361   7.059 -0.0088  0.0981 -0.1716
 6789W        W 6789   2.722   9.805   4.038  0.0919  0.2529  0.1727
 6790W        W 6790   5.296   4.734   8.776 -0.1028  0.0461  0.0580
 6791W        W 6791   0.683   5.579   9.778 -0.2350 -0.0860 -0.2518
 6792W        W 6792   2.188  10.159   6.418  0.2072  0.1501  0.0036
 6793W        W 6793   6.700   2.531   7.043 -0.1728 -0.2614  0.1987
 6794W        W 6794   7.652  10.148   5.256 -0.2848 -0.1777  0.1953
 6795W        W 6795   9.277   7.073   8.704 -0.3317 -0.1944 -0.2343
 6796W        W 6796   2.920   9.777   9.595  0.0435  0.0775 -0.1876
 6797W        W 6797   8.074   9.737   8.573 -0.1786  0.0421 -0.0665
 6798W        W 6798   2.943   6.875   6.449 -0.0121 -0.0263 -0.3551
 6799W        W 6799   3.397   7.296   5.875 -0.0121  0.0812  0.1503
 6800W        W 6800   0.436   8.724   6.937 -0.0740  0.4605  0.2879
 6801W        W 6801   7.546   3.966   3.715  0.2002  0.3969 -0.2400
 6802W        W 6802   8.865   4.541   2.693  0.0808 -0.0713 -0.0016
 6803W        W 6803   7.976   2.481   6.486  0.0316  0.0467  0.4664
 6804W        W 6804   9.297   1.381   0.774  0.2283  0.1293 -0.3551
 6805W        W 6805   9.327   6.373   8.530  0.0203  0.0451  0.3932
 6806W        W 6806   6.608   9.312   3.448  0.1430  0.1161  0.0610
 6807W        W 6807   7.411   4.184   5.992 -0.0715  0.0230 -0.3402
 6808W        W 6808   3.225   1.460   8.521  0.1423  0.6194  0.1443
 6809W        W 6809   1.837   6.750   8.551  0.1479 -0.0577  0.0729
 6810W        W 6810   6.772   0.048   7.001 -0.0634 -0.0442  0.0303
 6811W        W 6811   0.519   4.171   4.202 -0.1277  0.3228  0.4018
 6812W        W 6812   5.039   0.651   3.088 -0.1949 -0.0467  0.0816
 6813W        W 6813   4.317   2.119   6.289 -0.1366  0.1268  0.2343
 6814W        W 6814   5.722   3.424   0.984  0.5101  0.0598  0.3021
 6815W        W 6815   8.204   7.684   5.356 -0.2484 -0.1654 -0.1281
 6816W        W 6816   0.261   1.341   1.213  0.1264 -0.2996 -0.0028
 6817W        W 6817   7.929   7.213   8.372  0.0164  0.0675  0.1545
 6818W        W 6818   6.510   8.622   6.119  0.1490  0.0689 -0.2038
 6819W        W 6819   1.599   1.834   7.946 -0.4371 -0.1859 -0.0517
 6820W        W 6820   0.988   8.777   4.012  0.1787 -0.0738  0.1131
 6821W        W 6821   4.206   3.916   0.213  0.4208  0.0407 -0.0012
 6822W        W 6822   0.221   1.985   5.303 -0.3371  0.2111  0.2557
 6823W        W 6823   8.308   1.392   3.808  0.1963  0.1797  0.0117
 6824W        W 6824   8.728   9.067   0.139  0.2851 -0.2957  0.3641
 6825W        W 6825   7.011   8.916   2.617 -0.0603  0.2089 -0.1858
 6826W        W 6826   1.397   1.160   4.084 -0.0146 -0.0841  0.0889
 6827W        W 6827   2.461   2.595  10.176  0.1775  0.3159 -0.0542
 6828W        W 6828   6.570   2.553   1.464  0.1046  0.1101  0.0448
 6829W        W 6829   9.353   1.921  10.193  0.0621 -0.1230 -0.2500
 6830W        W 6830   0.490   4.100   2.096 -0.0166  0.0638 -0.1139
 6831W        W 6831   3.162   1.472   3.358  0.0546  0.1334  0.0047
 6832W        W 6832   1.054   0.682   7.306 -0.1269  0.0968 -0.1099
 6833W        W 6833   1.623   5.625   9.951  0.1766 -0.2296 -0.0081
 6834W        W 6834   7.660   3.035   4.848  0.1503  0.0389  0.0976
 6835W        W 6835   2.549   2.816   0.301  0.1329 -0.0334 -0.1517
 6836W        W 6836   2.492   0.749   0.383  0.0677 -0.0622 -0.1083
 6837W        W 6837  10.249   5.806   0.600  0.3207  0.1245 -0.2677
 6838W        W 6838   1.564   4.354   9.258  0.2232 -0.1216  0.1989
 6839W        W 6839   2.540   8.639  10.181 -0.0665 -0.0418 -0.0690
 6840W        W 6840   3.745   4.259   2.996 -0.2678 -0.0505  0.1453
 6841W        W 6841  10.113   0.487   7.658  0.2007 -0.0065 -0.2898
 6842W        W 6842   0.721   0.380   2.028  0.3343 -0.0534  0.0371
 6843W        W 6843   4.751  10.343   4.535 -0.0579  0.4252  0.2267
 6844W        W 6844   6.336   2.044   3.446 -0.2592 -0.0177 -0.0438
 6845W        W 6845   3.863   1.019   7.521  0.1150  0.0945 -0.3745
 6846W        W 6846   9.603   0.161   0.187  0.2162  0.0021 -0.0590
 6847W        W 6847   9.761   6.506   6.628  0.0907  0.0880 -0.0215
 6848W        W 6848   1.366   7.154   9.237  0.0719 -0.0757  0.3679
 6849W        W 6849   7.552   6.429   4.762 -0.2656  0.0446  0.0364
 6850W        W 6850   7.637   7.841   4.288  0.0244 -0.0920  0.0948
 6851W        W 6851   4.271   1.609   6.347  0.4453  0.3893 -0.1718
 6852W        W 6852   7.483   5.611   1.353  0.0745  0.1165  0.1755
 6853W        W 6853   2.895   3.630   8.017  0.0793  0.1603 -0.0319
 6854W        W 6854   4.376   9.356   6.117 -0.2062 -0.1481 -0.4059
 6855W        W 6855   7.328   3.774   3.006 -0.1463 -0.2939  0.3208
 6856W        W 6856   1.004   9.067   0.703 -0.1484  0.1498  0.2494
 6857W        W 6857   3.758   5.276   4.883 -0.0425  0.0747  0.2587
 6858W        W 6858   4.866   8.017   6.799 -0.1295 -0.1955  0.0708
 6859W        W 6859   6.363   3.763   7.091  0.1884 -0.1258  0.2503
 6860W        W 6860   0.114   1.696   5.761 -0.4039 -0.0525  0.0675
 6861W        W 6861   8.650   4.543   7.892  0.0022  0.2357  0.0200
 6862W        W 6862   6.897   8.689   0.349 -0.0845  0.0982 -0.0019
 6863W        W 6863   4.030   8.664   6.319  0.0315  0.1839 -0.0761
 6864W        W 6864   5.995   2.079   5.187  0.4092  0.0644 -0.0539
 6865W        W 6865   6.250   9.641   7.282  0.0168 -0.1767 -0.1276
 6866W        W 6866   8.805   0.581   0.441  0.0924 -0.0455 -0.1722
 6867W        W 6867   3.115   8.929   9.315  0.0778  0.1713 -0.2584
 6868W        W 6868   3.865   1.238   0.268  0.0982  0.1126  0.1079
 6869W        W 6869   1.605   9.483   0.821 -0.1272  0.3271  0.0046
 6870W        W 6870   4.830   4.512   5.714  0.1465  0.1828  0.1589
 6871W        W 6871   5.623   9.515   0.126 -0.2291  0.0268  0.3918
 6872W        W 6872   5.142   4.816   7.765  0.1588  0.0405  0.1160
 6873W        W 6873   7.725   9.017   4.165  0.2111 -0.0492 -0.1854
 6874W        W 6874   3.429   4.109   0.025 -0.1683 -0.0577 -0.2425
 6875W        W 6875   4.527   6.187   9.721 -0.1903  0.2151  0.0521
 6876W        W 6876   7.217   9.462   5.350 -0.1295 -0.4705 -0.0260
 6877W        W 6877   1.742   0.145   7.807  0.0556  0.0712 -0.1107
 6878W        W 6878   6.119   2.625   8.155  0.1643  0.1286 -0.0291
 6879W        W 6879   9.172   1.829   7.396 -0.1893  0.1589 -0.0935
 6880W        W 6880   9.074   9.254   6.736 -0.0909  0.1956  0.1841
 6881W        W 6881   3.186   5.279   9.312 -0.3166 -0.0298 -0.3633
 6882W        W 6882   2.619   2.924   5.825  0.0810  0.0831  0.2286
 6883W        W 6883   1.715   2.950   9.057  0.1794 -0.0223  0.3015
 6884W        W 6884   0.227   4.254   5.073  0.2492 -0.0891  0.3234
 6885W        W 6885   5.595   8.977   3.143  0.2250  0.4546  0.0104
 6886W        W 6886   4.394   2.142   9.896  0.1577 -0.1736  0.3973
 6887W        W 6887   1.578   7.970   0.319  0.4935  0.0234  0.2152
 6888W        W 6888   0.438   4.330   6.646 -0.0099  0.0636  0.1890
 6889W        W 6889   9.541   6.762   3.486  0.0561 -0.1073  0.2267
 6890W        W 6890   0.163  10.235   5.123  0.0368 -0.0184 -0.2544
 6891W        W 6891   8.799   2.153   1.318  0.1019 -0.0260 -0.2358
 6892W        W 6892   5.416   3.903  10.130  0.3966  0.0448 -0.0554
 6893W        W 6893   5.305   6.346  10.112  0.2000 -0.0276  0.3964
 6894W        W 6894   4.016   1.894   2.730  0.0415  0.3258  0.3922
 6895W        W 6895   3.436   9.659   4.414  0.1464  0.0483 -0.1652
 6896W        W 6896   6.420   2.140   4.257 -0.0820  0.1179 -0.0475
 6897W        W 6897   9.843   4.472   4.662  0.3143 -0.2378  0.1130
 6898W        W 6898   9.745   4.956   4.781 -0.2828  0.1824  0.1944
 6899W        W 6899   2.676   9.899  10.029  0.1251  0.2141  0.3624
 6900W        W 6900   3.049   3.862   9.994  0.2516 -0.1213 -0.1907
 6901W        W 6901   2.054   7.618   5.583 -0.0446  0.0071 -0.0862
 6902W        W 6902   2.940   0.450   8.985  0.0588  0.0188  0.3557
 6903W        W 6903   3.940   6.003   1.513 -0.2293 -0.0406  0.0890
 6904W        W 6904   3.586   5.257  10.148  0.0990  0.1281 -0.2190
 6905W        W 6905   5.811   6.483   6.434  0.0660 -0.0804  0.1031
 6906W        W 6906   2.033   9.478   5.268  0.2155 -0.0571 -0.0236
 6907W        W 6907   9.271   0.773   1.336 -0.1712 -0.1150 -0.0556
 6908W        W 6908   7.767   5.459   0.124 -0.1814 -0.0295  0.0824
 6909W        W 6909   3.790   8.582   9.565  0.3387  0.2749 -0.0726
 6910W        W 6910   6.981   8.589   5.909  0.1510 -0.2673  0.0767
 6911W        W 6911   3.904   3.730   0.746 -0.0023 -0.1697  0.1541
 6912W        W 6912   7.568   9.972   7.871  0.0922 -0.0155 -0.1439
 6913W        W 6913   2.112   6.463   1.228  0.1745 -0.0705  0.0016
 6914W        W 6914   5.521   1.868   2.744  0.1937  0.0965 -0.1777
 6915W        W 6915   6.780   4.633   8.535 -0.1506  0.1118  0.0775
 6916W        W 6916   3.635   7.500  10.325  0.1851  0.0831 -0.3043
 6917W        W 6917   7.734   8.735   7.691  0.0268  0.4026 -0.0230
 6918W        W 6918   1.307   1.931   6.153 -0.0229  0.0631 -0.3952
 6919W        W 6919   0.609   2.805   5.272  0.1818  0.0387  0.0629
 6920W        W 6920   7.205   3.400   8.211  0.2828  0.3446 -0.2842
 6921W        W 6921   0.732   4.590   6.278  0.0207  0.4243 -0.0437
 6922W        W 6922   1.856   2.542   2.868  0.1597 -0.2404 -0.0055
 6923W        W 6923   6.100   8.561   7.206  0.0074  0.0688 -0.2024
 6924W        W 6924   7.980   6.954   1.009  0.0628  0.2292  0.0115
 6925W        W 6925  10.161   3.283   7.645  0.2737 -0.1115 -0.4247
 6926W        W 6926   2.678   2.447   5.591 -0.0227 -0.1308 -0.1962
 6927W        W 6927   8.913   6.356   9.875  0.1236 -0.0678  0.2145
 6928W        W 6928   0.601   9.722   6.007  0.1691  0.4158  0.0819
 6929W        W 6929   5.105   3.506   2.268  0.3777  0.1397  0.1622
 6930W        W 6930   9.075   7.137   3.418  0.1410  0.0522 -0.2168
 6931W        W 6931   6.338   5.052   5.267 -0.1684 -0.1584  0.2366
 6932W        W 6932   5.293   7.701   4.506  0.1494 -0.0631  0.0643
 6933W        W 6933   3.444   8.580   6.267 -0.2581  0.3567 -0.0128
 6934W        W 6934   7.425   2.133   8.322 -0.3533 -0.0141 -0.1325
 6935W        W 6935   4.255   8.592   5.001 -0.3102 -0.2047 -0.0039
 6936W        W 6936   2.764   1.916   8.992 -0.2104 -0.1486 -0.3559
 6937W        W 6937  10.017   3.157   4.895 -0.0971  0.1310  0.2166
 6938W        W 6938   3.742   7.621   5.914  0.0705  0.1342  0.0627
 6939W        W 6939   3.318   2.466   2.435  0.3479  0.1001  0.1148
 6940W        W 6940   4.135   4.779   1.193 -0.1070 -0.2587  0.0303
 6941W        W 6941   2.401   0.336   9.659  0.0898  0.0110 -0.0131
 6942W        W 6942   9.134   1.536   0.065 -0.1857 -0.3842 -0.5240
 6943W        W 6943   7.626   3.837   4.182 -0.0833 -0.0724 -0.2511
 6944W        W 6944   6.137   8.892   6.346  0.1583 -0.2127 -0.2741
 6945W        W 6945   8.343   7.211   6.466 -0.3290  0.3410 -0.0792
 6946W        W 6946   6.561   2.920   3.125 -0.2708 -0.0070 -0.0312
 6947W        W 6947   5.084   2.874   4.153 -0.2183 -0.1246  0.1625
 6948W        W 6948   6.191   0.448   7.716  0.0741  0.2942 -0.2881
 6949W        W 6949   4.384   4.952   5.629  0.0024 -0.0884 -0.0652
 6950W        W 6950   5.134   3.405   9.930 -0.3593  0.1454 -0.0487
 6951W        W 6951   1.901   3.293   9.420  0.3645  0.1276 -0.2109
 6952W        W 6952   5.037   4.792   7.237  0.1966 -0.1276 -0.1155
 6953W        W 6953   0.515   3.198   1.778 -0.1977  0.0721  0.0818
 6954W        W 6954   3.682   7.313   1.088 -0.3728 -0.0038 -0.0080
 6955W        W 6955   7.903   6.574   5.308 -0.2398  0.3654  0.1205
 6956W        W 6956   8.190   4.751   7.861 -0.0324 -0.0086  0.1268
 6957W        W 6957   5.212   0.546   9.438  0.0958 -0.1063  0.0750
 6958W        W 6958   6.986   5.949   8.408  0.0619  0.0576 -0.1502
 6959W        W 6959   0.442   2.975   4.327 -0.1829 -0.0463  0.2672
 6960W        W 6960   5.323   5.224   0.633  0.2274 -0.2020 -0.2322
 6961W        W 6961   9.038   5.945   7.833 -0.3451  0.1786  0.2000
 6962W        W 6962   8.593   5.469   2.965  0.1273  0.2569 -0.1964
 6963W        W 6963   9.096  10.039   7.149  0.0705 -0.3442  0.2665
 6964W        W 6964   8.446   8.371   9.542  0.0044 -0.0432  0.2249
 6965W        W 6965   0.026   1.433   2.448 -0.0362 -0.4547  0.1481
 6966W        W 6966   8.350   0.917   6.398  0.0304  0.2265  0.0793
 6967W        W 6967  10.129   0.508   6.097  0.0195 -0.0705  0.2619
 6968W        W 6968   2.213   3.545   8.404  0.0000 -0.2036 -0.3224
 6969W        W 6969   2.406   1.431   0.724  0.1999 -0.0485 -0.0329
 6970W        W 6970   8.759   5.665   1.865  0.0975  0.1375 -0.1816
 6971W        W 6971   7.962   0.119   0.202 -0.3396  0.0220  0.0283
 6972W        W 6972   7.567   3.437   2.155  0.4454 -0.0214  0.4440
 6973W        W 6973   1.325   8.924   4.814 -0.1927 -0.0011 -0.0480
 6974W        W 6974   4.184   5.554   1.410  0.0842 -0.1386 -0.0409
 6975W        W 6975   1.012   9.121   9.322  0.2132  0.0803  0.1851
 6976W        W 6976   8.722   9.502   6.982 -0.1504  0.0120  0.0480
 6977W        W 6977   5.565   6.735   8.680  0.2236  0.2744 -0.4069
 6978W        W 6978   9.523   2.311   1.724  0.2276  0.0542 -0.0225
 6979W        W 6979   9.234   2.040   4.876  0.0769  0.4402 -0.1946
 6980W        W 6980   2.970   7.396   5.619 -0.1236  0.0336 -0.0452
 6981W        W 6981   2.037  10.026   2.679 -0.1711  0.0451  0.1455
 6982W        W 6982   4.990   9.742   5.105 -0.2546  0.1206 -0.1438
 6983W        W 6983   9.739   1.303   7.360  0.0497  0.1054  0.0358
 6984W        W 6984   1.150   1.733   3.032 -0.0487 -0.1349 -0.0971
 6985W        W 6985   1.236   5.594   5.634  0.3140 -0.0593 -0.1555
 6986W        W 6986   8.960   5.994   8.506  0.0572  0.0337  0.2156
 6987W        W 6987   5.776   9.679   7.624 -0.1249 -0.2467  0.2119
 6988W        W 6988   0.154   4.440   7.686  0.1241 -0.3540 -0.1120
 6989W        W 6989   4.388   2.825   5.681  0.1454  0.2384 -0.2998
 6990W        W 6990   6.697   2.551   9.653  0.0083  0.1727 -0.1611
 6991W        W 6991   5.301   5.215   0.029  0.1452 -0.0562 -0.0200
 6992W        W 6992   1.354   8.745   5.796 -0.0036  0.0066 -0.1185
 6993W        W 6993   7.982   7.378   7.829  0.2029  0.2459 -0.2050
 6994W        W 6994   6.747   5.297   9.392 -0.0876  0.0908 -0.0093
 6995W        W 6995   6.175   2.811   6.880 -0.1370  0.1318  0.1571
 6996W        W 6996   8.183   7.006   5.267  0.0800 -0.1244  0.1303
 6997W        W 6997   0.231   4.530   2.155 -0.0488 -0.1910  0.1184
 6998W        W 6998   6.637   3.031   6.765 -0.0779 -0.0298  0.2174
 6999W        W 6999   4.239   9.789   3.252  0.0677 -0.2393  0.1115
 7000W        W 7000   9.731   9.251   4.765  0.0596  0.1505  0.1384
 7001W        W 7001   0.939   1.133   0.918  0.2219 -0.2320  0.3174
 7002W        W 7002   1.338   2.730   9.297 -0.2473 -0.0627 -0.0490
 7003W        W 7003   7.752   4.405   4.502 -0.0203 -0.0958 -0.0093
 7004W        W 7004   1.746   1.686   1.954 -0.0215 -0.2232 -0.0543
 7005W        W 7005   9.699   2.682   3.485 -0.0546  0.3485 -0.0361
 7006W        W 7006   4.365   4.320   7.680 -0.0237  0.0075 -0.4538
 7007W        W 7007   1.500   4.073   3.792 -0.0208 -0.3994 -0.0379
 7008W        W 7008   3.127   5.236   4.045  0.1707 -0.0883 -0.1594
 7009W        W 7009   4.904   2.002   4.074  0.0815 -0.0245  0.0537
 7010W        W 7010   6.209   3.733   1.829 -0.4596  0.1144  0.0532
 7011W        W 7011   1.944   7.807   8.307 -0.3833  0.2431 -0.3096
 7012W        W 7012   8.021   3.552   7.087  0.1856  0.1178  0.0561
 7013W        W 7013   4.465   7.416   7.317  0.1030 -0.1645 -0.0787
 7014W        W 7014   3.328   7.550   3.441 -0.1289 -0.2048  0.5180
 7015W        W 7015   5.210   6.271   0.294  0.0908 -0.1752  0.0947
 7016W        W 7016   1.180   3.743   7.546 -0.0170  0.2834  0.1316
 7017W        W 7017   8.819   9.188   1.067  0.0662  0.3349  0.0849
 7018W        W 7018   5.815   1.105   9.725 -0.0187 -0.1119 -0.0387
 7019W        W 7019  10.086   7.282   6.486  0.3617 -0.3961 -0.1132
 7020W        W 7020   3.636   0.117   6.022  0.2292  0.1202 -0.0560
 7021W        W 7021  10.110   1.137  10.087 -0.2416 -0.2425 -0.0027
 7022W        W 7022   2.772   0.161   0.926  0.2412 -0.0974  0.1236
 7023W        W 7023   0.625   7.109   3.392  0.1210  0.0294  0.0734
 7024W        W 7024   6.404   0.392   4.731 -0.1967 -0.0917  0.0087
 7025W        W 7025   8.658   4.193   9.285 -0.0961 -0.2667 -0.1118
 7026W        W 7026   4.477   2.527   0.479  0.2141  0.0556  0.0504
 7027W        W 7027   2.860   3.310   3.065  0.0308  0.1425  0.1454
 7028W        W 7028   9.756   3.217   3.427  0.1118 -0.1256  0.1714
 7029W        W 7029   6.473   2.140   5.266 -0.2120  0.1419 -0.1719
 7030W        W 7030   1.605   4.030   4.325  0.1868  0.1048  0.1740
 7031W        W 7031   1.706   5.870   1.109 -0.1785 -0.2423 -0.2749
 7032W        W 7032   3.902   2.850   5.903 -0.0156  0.0598 -0.1601
 7033W        W 7033   1.300   8.366   8.522  0.1379  0.0598 -0.0653
 7034W        W 7034   1.649   5.763   5.907  0.0209 -0.0244 -0.0599
 7035W        W 7035   6.603   5.424   6.064  0.1644 -0.0102 -0.2388
 7036W        W 7036   3.773   1.047   2.020 -0.1141  0.0702 -0.2724
 7037W        W 7037  10.228   7.313   1.369  0.2317 -0.2998  0.2052
 7038W        W 7038   1.348   0.400   7.631 -0.3262 -0.0349  0.1710
 7039W        W 7039   1.380   0.446   8.925  0.4274 -0.1655  0.0481
 7040W        W 7040   2.167   6.658   7.769  0.3525  0.1735 -0.1235
 7041W        W 7041   9.312   9.368   5.078 -0.2158 -0.2449  0.4017
 7042W        W 7042   9.669  10.067   2.093 -0.3013  0.1631 -0.1854
 7043W        W 7043   9.580   9.139   9.324  0.1290 -0.1677  0.0981
 7044W        W 7044   1.760   1.795   6.993  0.1115  0.2509  0.1677
 7045W        W 7045   7.499   3.294   8.614 -0.3002 -0.2317 -0.2003
 7046W        W 7046   9.880  10.072   9.889 -0.1170 -0.1054 -0.0708
 7047W        W 7047   2.567   8.596   3.156  0.1173 -0.0665  0.2982
 7048W        W 7048   2.078   7.621   8.798  0.2077 -0.1343 -0.2055
 7049W        W 7049   1.576   9.417   2.691  0.0179  0.1601 -0.0390
 7050W        W 7050   8.784   1.423   3.758  0.0509 -0.0029 -0.2195
 7051W        W 7051   0.238   0.145   3.885  0.1117 -0.2024  0.1402
 7052W        W 7052   4.147   4.743   0.401 -0.3798  0.1312  0.1248
 7053W        W 7053   0.518  10.221   7.284  0.0052 -0.0424  0.1132
 7054W        W 7054   4.091   7.209   1.365 -0.1374  0.1922 -0.2654
 7055W        W 7055   5.600   7.426   6.708  0.1307  0.4949  0.1032
 7056W        W 7056   2.921   8.226   4.426 -0.1559  0.3677  0.2457
 7057W        W 7057   7.633   0.457   5.880 -0.2209  0.0502  0.0974
 7058W        W 7058   6.453   0.400   2.553 -0.2233  0.0562 -0.1849
 7059W        W 7059   8.759   0.146   4.650 -0.0492  0.0960 -0.0950
 7060W        W 7060   0.792  10.340   0.436  0.0268  0.0979 -0.0145
 7061W        W 7061   3.510   0.265   1.325 -0.2356 -0.2521 -0.0861
 7062W        W 7062   4.575   4.060   8.509  0.0665 -0.1385  0.1426
 7063W        W 7063   3.899   1.433   7.122 -0.1914  0.0666  0.1543
 7064W        W 7064   5.322   3.115   0.952 -0.0539  0.0020  0.0244
 7065W        W 7065   6.675  10.000   7.556  0.0848  0.0670  0.1563
 7066W        W 7066   0.546   0.862   4.014 -0.1876 -0.0858 -0.0572
 7067W        W 7067   7.882   1.639   4.672 -0.3381  0.0013 -0.0160
 7068W        W 7068   9.212   5.419   7.695  0.2397  0.0424  0.1201
 7069W        W 7069   9.124   3.351   5.061 -0.0696 -0.0366 -0.1813
 7070W        W 7070   2.470   9.221   0.981  0.3192 -0.0674 -0.1278
 7071W        W 7071   5.359   7.535   2.735  0.0842 -0.2651 -0.3320
 7072W        W 7072   9.773   9.548   2.124  0.1214 -0.2976 -0.1480
 7073W        W 7073   6.930   7.266   4.040  0.0797 -0.0835  0.0883
 7074W        W 7074   0.437   9.916   9.893 -0.0554  0.0186  0.2184
 7075W        W 7075  10.139   3.765   7.345  0.1295 -0.2394 -0.0340
 7076W        W 7076   4.767   7.933   5.211  0.0257  0.0077 -0.3479
 7077W        W 7077   8.217   9.153   2.621 -0.1642 -0.2813  0.0569
 7078W        W 7078   2.654   5.550   7.051  0.0035  0.1095  0.0604
 7079W        W 7079   9.067   1.338   8.807 -0.0983 -0.3987 -0.0698
 7080W        W 7080   7.225   3.671   0.840 -0.1230 -0.0379 -0.1667
 7081W        W 7081   4.491   8.953   3.786  0.7628 -0.0169  0.0151
 7082W        W 7082   2.516   1.494   8.185 -0.2857 -0.0489  0.1264
 7083W        W 7083   7.713   4.179   8.159  0.0760 -0.2707  0.0197
 7084W        W 7084   8.802   7.913   1.315  0.0010 -0.0770 -0.1277
 7085W        W 7085   4.572   2.628   3.316 -0.2010 -0.0410  0.1111
 7086W        W 7086   8.039   2.267   1.683  0.2244 -0.1175  0.0561
 7087W        W 7087   8.408   3.298   9.576 -0.0751 -0.1098  0.1062
 7088W        W 7088   7.843   3.629   8.808 -0.0635  0.2376  0.1040
 7089W        W 7089   2.713   4.136   7.882  0.0077 -0.0625  0.2185
 7090W        W 7090   2.291   8.783   9.740  0.0502 -0.0307  0.0768
 7091W        W 7091   8.701   7.488   3.206 -0.0560 -0.0819 -0.1217
 7092W        W 7092   8.792   5.036   5.089 -0.3555  0.3637 -0.1105
 7093W        W 7093   8.920   9.668   3.550 -0.2522 -0.0995 -0.2851
 7094W        W 7094   0.278   9.390   6.483  0.1311 -0.1875  0.0757
 7095W        W 7095   5.728   5.415   6.830  0.0434  0.0968 -0.2844
 7096W        W 7096   3.753   7.161   3.442 -0.1378 -0.1392 -0.1753
 7097W        W 7097   6.097   4.872   8.230 -0.3988 -0.1613  0.0648
 7098W        W 7098   5.647   0.323   2.181 -0.0161 -0.0290 -0.0236
 7099W        W 7099   8.628   4.774   8.721 -0.1267 -0.2164  0.0554
 7100W        W 7100   0.882   8.099   3.244 -0.0012 -0.1277 -0.0153
 7101W        W 7101   3.882   3.923   6.359  0.0913  0.0051 -0.4055
 7102W        W 7102   8.124   2.582   9.837 -0.1064  0.0220 -0.0869
 7103W        W 7103   8.649   4.736   1.699 -0.2682 -0.0954 -0.2692
 7104W        W 7104   4.687   0.029   6.852  0.1596 -0.0013  0.2454
 7105W        W 7105   6.439   6.292   5.052  0.0093  0.0660  0.0266
 7106W        W 7106   7.828   0.728   9.150  0.0235  0.0056  0.0040
 7107W        W 7107   6.804   9.299   4.471 -0.0628 -0.2089  0.0252
 7108W        W 7108   4.389   5.433   5.434  0.3989 -0.1802  0.1585
 7109W        W 7109   9.684   9.147   3.652 -0.0534 -0.3975  0.0467
 7110W        W 7110   6.457   9.520   0.452 -0.0982 -0.1374 -0.0641
 7111W        W 7111   9.344   3.875   6.213  0.1220 -0.2939  0.1137
 7112W        W 7112   2.958   1.881   3.164  0.2345  0.0721  0.0068
 7113W        W 7113   2.568   7.474   4.679  0.1379 -0.0085  0.1401
 7114W        W 7114   7.295   1.535   0.054  0.0032  0.1883 -0.3026
 7115W        W 7115   7.859   5.381   0.626 -0.1275 -0.0013 -0.1658
 7116W        W 7116   7.790   1.263   9.309 -0.0349 -0.1170 -0.0939
 7117W        W 7117   2.430   9.214   2.076 -0.2471  0.0766  0.2565
 7118W        W 7118   3.330   7.349   2.036 -0.3194 -0.2347  0.1853
 7119W        W 7119   8.366   5.143   0.777  0.0724  0.0642  0.0246
 7120W        W 7120   6.982   6.671   0.003 -0.0500  0.3079  0.0474
 7121W        W 7121   5.210   1.149   7.125  0.0077  0.3751  0.1162
 7122W        W 7122   9.435   5.998   8.248 -0.0825  0.3095 -0.0595
 7123W        W 7123   3.404   5.023   7.121 -0.2755 -0.0844  0.0195
 7124W        W 7124   4.276   9.124   0.439 -0.0003 -0.3356  0.1130
 7125W        W 7125   3.975   8.558   2.759  0.0788 -0.1486 -0.1637
 7126W        W 7126   5.547   3.843   2.371 -0.0562 -0.0295 -0.0984
 7127W        W 7127   0.531   1.842   9.443  0.1665  0.0049  0.0827
 7128W        W 7128  10.208   3.430   0.639  0.2469  0.3341  0.1847
 7129W        W 7129   9.392   5.779   4.663 -0.0078 -0.0410 -0.1654
 7130W        W 7130   4.966   6.164   3.753 -0.0133 -0.2221 -0.0061
 7131W        W 7131   4.941   0.117   5.514 -0.1033  0.1052 -0.1468
 7132W        W 7132   9.428   0.875   3.191  0.0433  0.1472 -0.1748
 7133W        W 7133   8.738   6.953   8.772 -0.1707 -0.4713 -0.0441
 7134W        W 7134   5.595   6.988   1.275  0.0077  0.0005 -0.2359
 7135W        W 7135   0.901   3.893   2.506 -0.1708 -0.1020  0.3068
 7136W        W 7136   9.478   8.002   8.673  0.1511 -0.0051  0.0580
 7137W        W 7137   1.870   1.222   8.871 -0.1391 -0.0090  0.2658
 7138W        W 7138   6.380   6.344   1.435 -0.4874 -0.1931  0.0024
 7139W        W 7139   9.529   2.197   3.693  0.0508  0.3695  0.2335
 7140W        W 7140   9.336   1.525   7.062  0.1230 -0.0298  0.2825
 7141W        W 7141   1.380   4.936   1.686  0.0258 -0.1531  0.2265
 7142W        W 7142  10.200  10.202   6.397  0.3517  0.3597  0.3335
 7143W        W 7143   5.076   1.394   5.746 -0.0415 -0.0037  0.1887
 7144W        W 7144   6.317   7.638   7.191  0.0011  0.3765 -0.1470
 7145W        W 7145   8.710   6.320   4.929  0.2928 -0.1334  0.0423
 7146W        W 7146   2.037   2.744   5.041  0.0756  0.0427 -0.3809
 7147W        W 7147   6.919   1.929   6.507 -0.3154  0.4116  0.1358
 7148W        W 7148   2.851   2.355   1.641 -0.3008 -0.1902  0.1343
 7149W        W 7149   4.820   3.503   7.731  0.3847 -0.3130  0.2387
 7150W        W 7150   0.570   4.455   5.517 -0.3974 -0.2936 -0.0421
 7151W        W 7151  10.323   3.202   4.177  0.0303  0.0194 -0.0087
 7152W        W 7152   1.053   4.702   2.504 -0.1257  0.0957  0.0600
 7153W        W 7153   6.143   7.729   9.186 -0.1786  0.1528  0.0983
 7154W        W 7154   6.679   4.539  10.055 -0.0588 -0.2240  0.1007
 7155W        W 7155   9.942   6.936   3.708  0.1658 -0.2325  0.0187
 7156W        W 7156   0.662   5.010   0.980 -0.1814  0.3139  0.0680
 7157W        W 7157   0.592   5.940   8.572 -0.1769 -0.3245  0.0261
 7158W        W 7158   8.430   8.693   5.380  0.1951 -0.0824  0.0388
 7159W        W 7159   0.571   5.146   1.454  0.4355 -0.0811  0.2031
 7160W        W 7160   4.264   3.474   1.471 -0.0325  0.0207  0.0915
 7161W        W 7161   0.916   6.386   4.232 -0.0501 -0.1899  0.0841
 7162W        W 7162   2.243   2.205   5.765 -0.2571 -0.0245  0.3968
 7163W        W 7163   7.643   7.511   6.726 -0.1391  0.0251  0.0910
 7164W        W 7164   3.557   4.287   8.424 -0.1863 -0.1179  0.0110
 7165W        W 7165   5.141  10.312   8.599 -0.2185  0.4430  0.0854
 7166W        W 7166   1.545   5.681   8.764  0.3698 -0.0263 -0.1890
 7167W        W 7167   3.734   3.927   2.199  0.1873 -0.0421  0.1148
 7168W        W 7168   5.698   7.940   0.521  0.3144 -0.1158  0.2332
 7169W        W 7169   3.924   4.181  10.146  0.2142  0.0703  0.0521
 7170W        W 7170   4.686   0.302   5.122 -0.1498 -0.1076 -0.2156
 7171W        W 7171   1.656   3.310   0.784  0.3884 -0.0724 -0.1196
 7172W        W 7172   5.009   0.313   2.034 -0.1227  0.2018 -0.3071
 7173W        W 7173   4.732   8.907   0.633 -0.1274 -0.0551 -0.1336
 7174W        W 7174   3.208   3.705   3.248  0.0897  0.1377 -0.4094
 7175W        W 7175   6.537   2.290   3.069  0.0166 -0.1366  0.0219
 7176W        W 7176   7.106   9.656   1.199  0.0402 -0.1617 -0.0836
 7177W        W 7177   4.783   2.782   3.779 -0.2210  0.3098  0.0925
 7178W        W 7178   7.121   2.642   0.551  0.1905 -0.0192 -0.0294
 7179W        W 7179   7.691   6.171   8.981  0.0368  0.1062 -0.0234
 7180W        W 7180   7.692   0.522   0.229 -0.2590 -0.0621 -0.0248
 7181W        W 7181   5.971   1.733   5.743  0.0123 -0.0760  0.2826
 7182W        W 7182   4.164   2.672   4.459  0.1009  0.2200  0.1663
 7183W        W 7183   7.509   7.402   7.683 -0.1617  0.0551  0.0294
 7184W        W 7184   6.314   8.788   7.592 -0.4641 -0.0432  0.3708
 7185W        W 7185   0.421   5.853   0.276  0.1456  0.0735 -0.0577
 7186W        W 7186   3.551   5.926   2.087 -0.0929  0.0762  0.3007
 7187W        W 7187   7.024   8.464   1.841 -0.2127 -0.1723 -0.3939
 7188W        W 7188   2.109   9.579   0.857 -0.0119 -0.1398  0.1222
 7189W        W 7189   7.181   2.287   2.176 -0.0429  0.2112  0.0758
 7190W        W 7190   4.685   5.180   9.318  0.3239  0.2084  0.0508
 7191W        W 7191   9.066   0.666   2.233  0.1143 -0.1860  0.1124
 7192W        W 7192   3.496   8.568   0.407  0.1335 -0.0598  0.0573
 7193W        W 7193   5.623   0.126   6.580  0.5091 -0.3720  0.2172
 7194W        W 7194   2.068   5.698   6.182 -0.1931  0.0123  0.0457
 7195W        W 7195   3.034   9.919   6.650 -0.0732  0.1203 -0.2028
 7196W        W 7196   0.267   4.319   6.129  0.1536  0.3399  0.0014
 7197W        W 7197   2.670   2.368   3.093 -0.1544  0.1361  0.0198
 7198W        W 7198   0.870   2.781   5.697 -0.1025 -0.2005  0.0148
 7199W        W 7199   4.137   7.559  10.189 -0.2115 -0.0521 -0.1098
 7200W        W 7200  10.062   6.096   4.018  0.1007  0.0130 -0.1137
 7201W        W 7201   7.015   7.940   2.077  0.1861  0.1292 -0.2299
 7202W        W 7202   6.414   5.178   9.824 -0.1416 -0.1806 -0.1035
 7203W        W 7203   4.698   3.292   1.796 -0.0323 -0.0185 -0.1474
 7204W        W 7204   8.270   2.232   0.435 -0.0933 -0.0959  0.2277
 7205W        W 7205  10.311  10.131   5.892 -0.3730  0.1496  0.0635
 7206W        W 7206   0.749   4.986   7.226  0.2646 -0.0264  0.0130
 7207W        W 7207   7.075   7.257   1.351  0.4584 -0.2818  0.0542
 7208W        W 7208   3.386   6.856   6.704  0.0993  0.0923  0.3158
 7209W        W 7209   0.178   7.324   4.319 -0.1895 -0.2877 -0.1012
 7210W        W 7210   4.260   1.608   5.401 -0.0926  0.1690 -0.1534
 7211W        W 7211   0.845   3.294   8.468  0.1871 -0.3469  0.1237
 7212W        W 7212   6.639   6.955   9.618  0.0946  0.2158 -0.0798
 7213W        W 7213   2.147   1.672  10.340 -0.1031 -0.1369 -0.0724
 7214W        W 7214   6.557   5.886   2.977 -0.2937 -0.1489 -0.1129
 7215W        W 7215   2.236   9.576   9.778  0.2823 -0.0335  0.2388
 7216W        W 7216   5.961   3.252   4.279  0.1201  0.1489 -0.3270
 7217W        W 7217   2.909   1.456   7.663  0.2660 -0.1664  0.1393
 7218W        W 7218   5.529   8.619   3.800 -0.2133 -0.0244 -0.0512
 7219W        W 7219   4.209   2.145   6.895  0.1223  0.2562 -0.1137
 7220W        W 7220   5.481   4.276   8.643 -0.2515  0.1286 -0.0390
 7221W        W 7221   1.066   9.446   6.741 -0.0848 -0.0838 -0.1523
 7222W        W 7222   3.747   2.375   7.085 -0.3482 -0.1966 -0.0076
 7223W        W 7223   6.427  10.270   1.653 -0.0057 -0.1266 -0.2461
 7224W        W 7224   1.140   3.641   5.046 -0.2237  0.0595 -0.0243
 7225W        W 7225   6.496   3.288   7.198  0.2945 -0.0809  0.1379
 7226W        W 7226   2.906   9.105   5.416  0.1684 -0.1551 -0.2691
 7227W        W 7227   5.836   7.541   2.628  0.3794 -0.2345  0.3341
 7228W        W 7228   8.470   5.579   9.256 -0.1975  0.1505 -0.2340
 7229W        W 7229   2.726   5.076   4.679  0.0469 -0.1005  0.2571
 7230W        W 7230   6.427   0.206   8.148 -0.1428 -0.1119 -0.0422
 7231W        W 7231   4.488   6.473   7.611  0.1164 -0.2242  0.3182
 7232W        W 7232   2.301   3.571   9.759 -0.0510 -0.0724 -0.0288
 7233W        W 7233   9.451   0.916   4.934  0.2958 -0.2378 -0.0875
 7234W        W 7234   8.233  10.036   9.559  0.0801  0.1204  0.2390
 7235W        W 7235   5.834   6.514   4.393 -0.3675 -0.3296 -0.3106
 7236W        W 7236   3.335   5.960   0.826 -0.4463  0.2222  0.1694
 7237W        W 7237   2.273   6.201   7.599 -0.0627 -0.2465  0.0120
 7238W        W 7238   9.276   4.560   7.985  0.0685  0.2352  0.1455
 7239W        W 7239   6.631   8.410   7.438 -0.0944 -0.0034  0.0559
 7240W        W 7240   5.512   6.136   5.607 -0.1020 -0.3977  0.4215
 7241W        W 7241   1.356   7.325   0.451  0.1884  0.1171  0.1340
 7242W        W 7242   9.092   8.077   7.939 -0.0336 -0.2277 -0.2249
 7243W        W 7243   2.044   1.750   9.718 -0.0352 -0.1947 -0.0562
 7244W        W 7244   1.060   6.381   5.027 -0.0463  0.1159  0.1796
 7245W        W 7245   9.981   7.522   4.245  0.2980  0.2737 -0.2998
 7246W        W 7246   2.637   6.039   1.301 -0.4643  0.0362 -0.3235
 7247W        W 7247   3.307   1.006   2.541 -0.1795  0.2582 -0.0539
 7248W        W 7248   6.978   5.545   0.017  0.0206  0.3199 -0.4025
 7249W        W 7249   7.849   9.119   2.283 -0.0045 -0.0192 -0.1469
 7250W        W 7250   6.342   7.949   5.487  0.0544  0.2478 -0.0282
 7251W        W 7251   9.039   3.819   2.321 -0.1334  0.1274  0.1240
 7252W        W 7252   3.115   5.686   3.880 -0.0225  0.3210  0.0177
 7253W        W 7253   3.983  10.031   0.681  0.0708 -0.1231 -0.0172
 7254W        W 7254   1.016   8.145   2.330 -0.0649 -0.0109 -0.1013
 7255W        W 7255  10.259   2.345   7.549  0.3826  0.0096  0.1714
 7256W        W 7256   0.589   7.141   1.958 -0.1131  0.3242  0.1101
 7257W        W 7257   0.494   2.006   6.512 -0.2067  0.3437  0.1282
 7258W        W 7258   5.692   3.028   7.096  0.0545  0.2731 -0.1431
 7259W        W 7259   8.993   6.764   8.372  0.2179  0.0732  0.1785
 7260W        W 7260   3.964   6.062   5.782 -0.1871  0.1538  0.0971
 7261W        W 7261   1.521   9.269   3.636 -0.2119  0.0990  0.0150
 7262W        W 7262   1.120   8.840   8.242 -0.0759 -0.2796  0.0574
 7263W        W 7263   8.653   1.190   6.642 -0.0418 -0.3956 -0.0515
 7264W        W 7264   0.790   8.857   5.940  0.2558  0.1491  0.0077
 7265W        W 7265   5.087   7.160  10.141 -0.0899 -0.3445  0.2210
 7266W        W 7266   2.318   5.289   2.126 -0.5381  0.0030  0.3226
 7267W        W 7267   6.124   5.270   1.869 -0.0114 -0.2483  0.2131
 7268W        W 7268   7.062   7.423   8.265 -0.0631 -0.0365 -0.0866
 7269W        W 7269   0.061   7.942   7.530 -0.1618  0.0098  0.0604
 7270W        W 7270   3.766   1.018   4.479  0.0419  0.1256 -0.2016
 7271W        W 7271   9.790   5.976   5.226 -0.3342 -0.1312  0.0420
 7272W        W 7272   7.347   3.763   2.429  0.1956 -0.1054  0.2601
 7273W        W 7273   1.827   5.629   0.638  0.2508  0.2975 -0.0377
 7274W        W 7274   2.281   0.244   1.794  0.0453  0.2482 -0.3652
 7275W        W 7275   7.466   8.279   2.084  0.1025 -0.0190 -0.0203
 7276W        W 7276   5.244   4.536   2.023  0.0417 -0.0036 -0.0671
 7277W        W 7277   7.274   6.802   4.159 -0.0461  0.0756  0.2504
 7278W        W 7278   2.587   8.635   4.572 -0.1528  0.1996 -0.3404
 7279W        W 7279   0.503   1.170   2.593 -0.1504 -0.2389 -0.2521
 7280W        W 7280   7.496   6.580   6.573 -0.3242  0.0634  0.3141
 7281W        W 7281   3.673   0.583   7.658 -0.2874 -0.0859  0.0119
 7282W        W 7282   0.263   3.460   6.683 -0.1851  0.1682 -0.0835
 7283W        W 7283   7.408   7.462   3.802  0.3272  0.4484  0.0125
 7284W        W 7284   1.182   5.185   7.121 -0.2651  0.0156  0.1682
 7285W        W 7285   2.578   6.441   2.121 -0.0464 -0.2202 -0.0318
 7286W        W 7286   4.391   2.193   7.825  0.1061 -0.0560 -0.1086
 7287W        W 7287   0.317   4.584   9.238 -0.0656 -0.0791  0.1783
 7288W        W 7288   8.881   2.761   6.172  0.1722  0.0432  0.0470
 7289W        W 7289   7.145   7.356   2.028 -0.2412 -0.3520  0.0366
 7290W        W 7290   8.369   1.334   4.729  0.2828  0.2495  0.3252
 7291W        W 7291   3.229   4.162   3.017  0.0539  0.0023  0.2028
 7292W        W 7292   2.626   3.909   5.674 -0.0590 -0.0784 -0.1108
 7293W        W 7293   7.589   1.629   0.913  0.0303  0.0793 -0.1804
 7294W        W 7294   3.207   1.584   6.366 -0.1922 -0.1480 -0.1360
 7295W        W 7295   1.263   8.873   1.349  0.3158  0.1116  0.1597
 7296W        W 7296   2.292   6.175   6.212  0.1117  0.2893  0.0731
 7297W        W 7297   2.774   6.850   9.058  0.2391 -0.0411 -0.0992
 7298W        W 7298   5.372   3.908   2.955 -0.3029  0.0980 -0.3330
 7299W        W 7299   2.652   7.493   7.687  0.0378  0.3427 -0.0445
 7300W        W 7300   3.963   8.230   0.936 -0.0773  0.1409 -0.3421
 7301W        W 7301   0.050   8.766   4.325 -0.0802 -0.0629 -0.2835
 7302W        W 7302   9.953   7.049   3.208 -0.1139  0.1261  0.2034
 7303W        W 7303   2.472   2.966   8.404 -0.1430 -0.0325 -0.0308
 7304W        W 7304   2.381   9.212   6.587 -0.2285  0.4423 -0.0023
 7305W        W 7305   5.088   4.876   9.251 -0.2404  0.3148 -0.2398
 7306W        W 7306   9.881   8.653   8.069  0.0340 -0.4272  0.0297
 7307W        W 7307   5.171   7.746   3.760  0.0880  0.1630  0.1359
 7308W        W 7308   3.113   8.674   7.074  0.2518 -0.2431  0.1988
 7309W        W 7309   6.464   5.460   5.510 -0.1837 -0.2387 -0.2573
 7310W        W 7310   6.268   0.478   8.680 -0.2234  0.3754 -0.3954
 7311W        W 7311   3.297   9.782   5.673 -0.2901  0.0013  0.2718
 7312W        W 7312   8.037   8.602   9.331 -0.4228  0.1359  0.1420
 7313W        W 7313   3.562   8.303   2.296  0.1837 -0.0547 -0.0288
 7314W        W 7314   4.217   2.819   0.147 -0.2324 -0.0889  0.2306
 7315W        W 7315   6.108   7.487   4.305 -0.0971  0.0835  0.1346
 7316W        W 7316   7.069   5.693   1.899 -0.1440  0.2860  0.1373
 7317W        W 7317   9.743   7.043   4.163 -0.3842 -0.0882 -0.0954
 7318W        W 7318   3.137   4.543   8.632  0.1064  0.0796  0.0790
 7319W        W 7319   1.503   7.008   4.596  0.1546 -0.0014  0.0593
 7320W        W 7320   0.907   2.717   9.578 -0.1886  0.1675  0.1934
 7321W        W 7321   8.069   5.091   8.259 -0.0120 -0.0316  0.0557
 7322W        W 7322   4.144   6.753   5.929 -0.5178 -0.1537  0.0334
 7323W        W 7323   8.019   2.541   0.804 -0.0273 -0.1624 -0.0449
 7324W        W 7324   9.941   1.264   8.550  0.6032  0.1660  0.1463
 7325W        W 7325   5.761   7.231   7.709 -0.1249  0.1129 -0.2180
 7326W        W 7326   1.629   7.531   6.452  0.1458 -0.0986 -0.1307
 7327W        W 7327   8.264   7.929   3.131  0.0053 -0.0379 -0.3800
 7328W        W 7328   2.067   6.407   2.268 -0.1592  0.0762 -0.1150
 7329W        W 7329   5.106   3.069   9.049 -0.1807 -0.1275 -0.2306
 7330W        W 7330   5.198  10.153   4.658 -0.2879 -0.0137  0.2518
 7331W        W 7331   8.935   3.217   4.080 -0.1431  0.0736 -0.0648
 7332W        W 7332   1.271   0.281   3.299 -0.1842 -0.1473  0.1138
 7333W        W 7333   8.768   2.864   3.165  0.0525  0.0085  0.1333
 7334W        W 7334   4.596   9.145   4.384 -0.0731 -0.1580  0.1467
 7335W        W 7335   4.515   1.753   4.291 -0.0243 -0.0506  0.0518
 7336W        W 7336   4.075   6.647   6.540  0.0934 -0.4528 -0.0471
 7337W        W 7337   4.756   3.553   1.303 -0.0915 -0.1787 -0.0126
 7338W        W 7338   1.336   8.642   9.542  0.1667 -0.1306  0.1332
 7339W        W 7339   2.523   3.384   7.212 -0.0809 -0.1395  0.3217
 7340W        W 7340   7.552   9.612   4.948 -0.1168  0.0514 -0.1226
 7341W        W 7341   9.782   3.842   6.907  0.0283  0.0064 -0.1894
 7342W        W 7342   0.364   6.475   9.733 -0.1114  0.0118 -0.1419
 7343W        W 7343   2.352   4.776   9.295  0.2721 -0.1483 -0.2594
 7344W        W 7344  10.061   9.709   4.689 -0.0334  0.2258 -0.1590
 7345W        W 7345   8.847   5.402   0.648  0.1693 -0.1745 -0.1272
 7346W        W 7346   8.031   3.757   3.898 -0.2547 -0.0964  0.0017
 7347W        W 7347   1.324   1.684   0.066 -0.2213  0.2241 -0.0096
 7348W        W 7348   4.957   7.199   2.621  0.0228  0.1845  0.0547
 7349W        W 7349   0.998   2.070   5.076  0.2887 -0.1701 -0.1048
 7350W        W 7350   0.450   8.751   3.851  0.1475 -0.2204  0.0967
 7351W        W 7351   4.123   0.702   2.049  0.0786  0.3081  0.3113
 7352W        W 7352   4.538   8.452   0.720 -0.2186 -0.2441  0.1093
 7353W        W 7353   5.266   8.541   3.423 -0.0134  0.2320  0.1144
 7354W        W 7354   6.020   0.739   4.471 -0.1813  0.2794 -0.0266
 7355W        W 7355   7.851   0.012   7.791 -0.2814 -0.0206  0.1502
 7356W        W 7356   7.728   0.319   5.395  0.2162 -0.0261 -0.0755
 7357W        W 7357   6.028   1.334   0.213 -0.1387  0.0498  0.0711
 7358W        W 7358   1.393   3.799   7.980 -0.3473  0.0637  0.3787
 7359W        W 7359   5.699   3.824   0.210 -0.0439  0.2908 -0.1322
 7360W        W 7360   9.675   8.676   3.428 -0.1966 -0.1545 -0.0949
 7361W        W 7361   6.433   4.132   2.787  0.0987 -0.1342 -0.1061
 7362W        W 7362   6.792   1.544   9.389 -0.2098  0.3657 -0.2503
 7363W        W 7363   3.449   1.038   1.674  0.1185 -0.1278  0.2903
 7364W        W 7364   5.633   4.789   5.979  0.0213 -0.0645  0.1878
 7365W        W 7365   0.510   1.623   3.440 -0.0501 -0.1062 -0.1543
 7366W        W 7366   4.173   6.433   0.562 -0.0653 -0.0605 -0.1431
 7367W        W 7367   0.086   7.025   0.730  0.2257  0.0220 -0.2470
 7368W        W 7368   9.079   2.503   1.019 -0.0661  0.1843  0.1011
 7369W        W 7369   6.466   6.293   8.349  0.1296  0.0327  0.1704
 7370W        W 7370   4.641   7.897   1.400  0.2646  0.0143  0.0940
 7371W        W 7371   6.642   6.715   7.971 -0.1128  0.0161  0.1286
 7372W        W 7372   9.651   6.091  10.301 -0.0133 -0.0222 -0.2121
 7373W        W 7373   0.040   6.791   7.857 -0.2236 -0.2503 -0.0897
 7374W        W 7374   1.274   7.202   7.758 -0.2586  0.0216  0.3043
 7375W        W 7375   9.006   6.158   1.698  0.0695  0.0414 -0.3764
 7376W        W 7376   2.090   7.466   2.622  0.0432 -0.0148 -0.1541
 7377W        W 7377   0.144   1.444  10.206  0.1031 -0.1957 -0.0639
 7378W        W 7378   4.240   0.861   0.077 -0.0578  0.2476  0.3034
 7379W        W 7379   0.372   6.633   5.216 -0.2220 -0.3894 -0.2776
 7380W        W 7380   3.383   1.113   5.726 -0.0153  0.0660 -0.0737
 7381W        W 7381   7.408   3.851   9.635 -0.0557  0.1767  0.1230
 7382W        W 7382   1.711   5.265   6.967  0.1137  0.1513  0.1665
 7383W        W 7383   2.935   7.542   1.228 -0.0240 -0.2833 -0.1021
 7384W        W 7384   8.902   2.078   9.998 -0.1927 -0.0225  0.0424
 7385W        W 7385   5.775   9.425   8.529 -0.2814  0.1147 -0.1524
 7386W        W 7386   1.604   8.697   7.623 -0.1510  0.2580  0.0158
 7387W        W 7387   7.342   7.243   0.160  0.1731  0.0785  0.0640
 7388W        W 7388   5.270   2.576   3.567 -0.1904 -0.0900 -0.1317
 7389W        W 7389   3.750   4.746   4.494  0.0564  0.0549 -0.0964
 7390W        W 7390   6.038   0.635  10.159  0.0931  0.1472  0.1120
 7391W        W 7391   1.703   6.760   5.882 -0.1788  0.2551 -0.0207
 7392W        W 7392   3.397   6.816   1.689 -0.2634  0.1298  0.0171
 7393W        W 7393   5.210   1.237   3.094  0.1659  0.0042 -0.2191
 7394W        W 7394   7.789   7.803   0.594  0.0078 -0.1433 -0.0537
 7395W        W 7395   4.537   3.942   1.519  0.1827  0.1186 -0.3095
 7396W        W 7396   2.671  10.202   8.141 -0.2371 -0.0076 -0.0403
 7397W        W 7397   0.375   0.655   1.679  0.4723 -0.1971  0.2644
 7398W        W 7398   1.543   4.516   1.455 -0.0898  0.2552  0.0777
 7399W        W 7399   3.689   0.662   6.766  0.5045  0.0957  0.2196
 7400W        W 7400   2.279  10.171   9.964  0.1690  0.3183 -0.0532
 7401W        W 7401   2.742  10.313   6.849  0.2267  0.1519  0.0408
 7402W        W 7402   2.755   2.371   0.774 -0.1227 -0.1971  0.1539
 7403W        W 7403   5.719   1.747  10.301  0.1386 -0.4092  0.3310
 7404W        W 7404   3.995   5.576   5.200 -0.0782 -0.2641 -0.1282
 7405W        W 7405   1.518   4.315   8.058 -0.0032 -0.0216 -0.1751
 7406W        W 7406   9.384   9.506   5.627 -0.1728  0.0211 -0.0248
 7407W        W 7407   6.287   5.939   8.687  0.1663 -0.0262  0.0541
 7408W        W 7408   5.722   6.709   4.982  0.0477  0.3486  0.0714
 7409W        W 7409   4.248   2.277   3.183 -0.1399  0.3141  0.1417
 7410W        W 7410   1.847   7.161   7.709  0.0020 -0.0085 -0.0108
 7411W        W 7411   7.862   7.559   5.686  0.0103  0.2573 -0.0098
 7412W        W 7412   9.948   2.875  10.301 -0.1666 -0.0846 -0.1668
 7413W        W 7413   1.456   8.123   6.993 -0.1374 -0.2325 -0.0816
 7414W        W 7414   7.360   6.590   3.177 -0.1746  0.1473  0.0405
 7415W        W 7415   1.946   4.415   3.902 -0.0330 -0.1341  0.1577
 7416W        W 7416   0.021   9.293   1.516  0.3306 -0.3387 -0.1187
 7417W        W 7417   4.464   9.837   5.501 -0.1236 -0.0081  0.4437
 7418W        W 7418  10.217   5.741   5.057  0.2869 -0.3424 -0.1533
 7419W        W 7419   1.733   8.098   4.033  0.1394  0.0975  0.2332
 7420W        W 7420   8.975   5.386   4.717  0.1644  0.0524  0.2350
 7421W        W 7421   3.419   1.850   2.991  0.1863 -0.3053 -0.2419
 7422W        W 7422   7.196   6.052   4.613  0.0574  0.3203 -0.0269
 7423W        W 7423   0.794   3.756   5.455  0.3715 -0.0845  0.0455
 7424W        W 7424   3.561   4.648   1.170 -0.0381  0.1385  0.0640
 7425W        W 7425   7.336   2.539   0.097  0.3166 -0.1647 -0.2910
 7426W        W 7426   1.463   1.825   1.153  0.0797  0.0448 -0.0597
 7427W        W 7427   2.475   6.636   3.089 -0.0531 -0.1513 -0.0348
 7428W        W 7428   5.583   5.403   3.943  0.0873 -0.3994  0.0707
 7429W        W 7429   9.480   1.695   0.385 -0.1576 -0.0323  0.0410
 7430W        W 7430   7.670   6.615   6.063 -0.0031 -0.0823  0.1089
 7431W        W 7431   1.541   1.771   3.438 -0.0843 -0.0243  0.2021
 7432W        W 7432   3.744   3.730   0.237  0.1558  0.0658  0.0891
 7433W        W 7433   5.910   4.955   5.546  0.3840 -0.0764  0.2675
 7434W        W 7434   4.899   0.550   6.895  0.0177 -0.2648  0.1893
 7435W        W 7435   1.578   2.722   2.450 -0.0888 -0.1748  0.0550
 7436W        W 7436   8.943   4.138   8.044 -0.0932 -0.2491  0.0149
 7437W        W 7437   3.744   2.223   1.129  0.3096  0.3150  0.0889
 7438W        W 7438   5.774   7.309   8.256  0.2130  0.0874 -0.0509
 7439W        W 7439  10.245   3.916   5.169  0.1023 -0.0208 -0.2505
 7440W        W 7440   7.468  10.018   1.085  0.2746  0.0473  0.0400
 7441W        W 7441   3.737   6.442   8.339  0.2797 -0.1099  0.0778
 7442W        W 7442   2.961   3.732   3.830 -0.0579 -0.0667  0.1774
 7443W        W 7443   7.422   4.710   5.883  0.1229  0.0572 -0.2542
 7444W        W 7444   2.454   4.916   2.705 -0.0145 -0.1173 -0.3208
 7445W        W 7445   6.185   8.208   9.025  0.0827 -0.0115 -0.2385
 7446W        W 7446   5.112   8.868   7.519  0.3101  0.3836  0.3205
 7447W        W 7447   5.975   6.912   5.528  0.1140 -0.2054 -0.0852
 7448W        W 7448   8.322   7.248   5.664  0.2028  0.2196  0.0161
 7449W        W 7449   5.615   8.027   5.462 -0.1883  0.1374 -0.0444
 7450W        W 7450   8.784   5.773   1.378  0.2523  0.1714  0.1291
 7451W        W 7451   6.522   7.375   9.340  0.3923 -0.1078  0.1984
 7452W        W 7452   5.240   0.868   3.525 -0.0024  0.2714  0.4301
 7453W        W 7453   1.447   8.219   1.882  0.0557 -0.2857 -0.0109
 7454W        W 7454   9.194   7.396   7.557  0.1687  0.4374 -0.1095
 7455W        W 7455   4.842   2.639   2.244 -0.0516  0.0098  0.0148
 7456W        W 7456   3.054   9.301   9.677  0.5817 -0.0740 -0.3338
 7457W        W 7457   7.010   3.231   5.984  0.0154  0.2929 -0.1453
 7458W        W 7458   6.609   2.523   9.146  0.1173  0.0111 -0.1484
 7459W        W 7459   2.791   2.809   6.984 -0.4500  0.3183 -0.0983
 7460W        W 7460   3.866   7.692   4.120 -0.0617 -0.2781 -0.0515
 7461W        W 7461   8.261   7.863   4.436 -0.1531 -0.1894  0.0710
 7462W        W 7462   4.793   6.236   9.253 -0.1483 -0.0078 -0.0113
 7463W        W 7463   6.882   6.434   1.669  0.0925  0.3505 -0.2278
 7464W        W 7464  10.100   3.438   1.582 -0.2418 -0.0429 -0.1499
 7465W        W 7465   8.165  10.313   1.053 -0.2128  0.1099  0.2717
 7466W        W 7466   4.934   5.173   1.279  0.0601 -0.2623  0.3068
 7467W        W 7467   1.575   2.489   5.302 -0.1033  0.0920 -0.0924
 7468W        W 7468   6.395   4.286   6.995  0.1691  0.0844 -0.2192
 7469W        W 7469   4.744   7.008   9.799  0.0890  0.1149 -0.0306
 7470W        W 7470   4.191   1.362   0.625  0.3741  0.1163 -0.0411
 7471W        W 7471   9.026   2.090   8.117 -0.2072  0.0243  0.0290
 7472W        W 7472   4.983   5.416   4.083 -0.3465  0.0204 -0.1240
 7473W        W 7473   8.283   6.462   1.119 -0.0240 -0.0863  0.2896
 7474W        W 7474   5.662   4.753   8.017 -0.1508  0.0352  0.2556
 7475W        W 7475   6.227   8.210   1.473 -0.0417 -0.0081 -0.2644
 7476W        W 7476  10.041   4.348   5.106 -0.1248 -0.3442 -0.0243
 7477W        W 7477   7.719   2.223   0.171  0.3251  0.0770 -0.1580
 7478W        W 7478   0.211   3.499   1.475  0.1424 -0.2280  0.3121
 7479W        W 7479   6.675   8.478   1.475  0.1109  0.1078 -0.0713
 7480W        W 7480   0.914   5.154   9.401  0.1108 -0.2851 -0.1430
 7481W        W 7481   6.351   3.596   8.468 -0.3976  0.1645  0.2920
 7482W        W 7482   5.681   3.054   0.523 -0.2311  0.0105  0.0425
 7483W        W 7483  10.338   8.086   0.189  0.2572 -0.3342  0.2723
 7484W        W 7484   2.041   3.127   9.879 -0.2255  0.2055 -0.3512
 7485W        W 7485   6.574   7.295   1.529  0.2056  0.1188 -0.1202
 7486W        W 7486   5.393   3.931   6.268  0.2241 -0.2824  0.1517
 7487W        W 7487   7.944   9.569   7.729  0.3289 -0.3865  0.0712
 7488W        W 7488   7.312   9.617   6.404 -0.0390 -0.0056  0.1846
 7489W        W 7489   9.613   2.647   7.529 -0.2040  0.0196 -0.0977
 7490W        W 7490   7.569   4.161   7.637  0.0154 -0.0251 -0.1280
 7491W        W 7491   4.145   9.164   9.934  0.2779 -0.0721  0.1702
 7492W        W 7492   6.982   1.344   4.950 -0.0973 -0.2963  0.2755
 7493W        W 7493   6.481   1.814   5.749 -0.3724 -0.1572 -0.1729
 7494W        W 7494   1.700   4.929   2.632  0.1450 -0.0536 -0.1816
 7495W        W 7495   0.672   3.279   0.085 -0.2085 -0.0345  0.2073
 7496W        W 7496   3.375   8.784   1.936  0.1043  0.1012  0.0847
 7497W        W 7497   3.818   8.013   1.929 -0.0982  0.2802 -0.1490
 7498W        W 7498   1.757   0.018   8.299  0.0050 -0.0088  0.2577
 7499W        W 7499   3.861   9.683   6.749  0.0551  0.1835  0.0497
 7500W        W 7500   7.489   0.666   6.658 -0.1014 -0.2253  0.2496
 7501W        W 7501   7.186   6.307   0.479  0.1083 -0.1919 -0.0473
 7502W        W 7502   7.610   1.490   4.008  0.2948 -0.1784 -0.4017
 7503W        W 7503   0.837   1.783   5.459  0.0387 -0.4916 -0.0012
 7504W        W 7504   5.728   5.494   2.966 -0.0359 -0.1030 -0.0090
 7505W        W 7505   7.462   5.574   6.536  0.2976  0.0156  0.1209
 7506W        W 7506   6.412   9.891   5.708 -0.0126  0.0822  0.2191
 7507W        W 7507   4.751   5.320   3.346  0.4247 -0.1476  0.1340
 7508W        W 7508   5.053   8.835   0.182 -0.2212  0.1256 -0.1686
 7509W        W 7509   7.738   4.064   1.041 -0.1206 -0.4263 -0.0010
 7510W        W 7510   8.050   6.733  10.200 -0.0627  0.1419  0.0802
 7511W        W 7511   7.755   5.924   4.673 -0.0012  0.1159  0.1025
 7512W        W 7512   9.991   9.466   2.929 -0.3302  0.1248  0.1789
 7513W        W 7513   2.596   7.715   0.486  0.0944  0.3097 -0.1361
 7514W        W 7514   6.007   9.447   0.990 -0.1656  0.0504  0.1968
 7515W        W 7515  10.261   8.870   8.651  0.1980 -0.1882  0.0207
 7516W        W 7516   9.138   7.357   2.346  0.2440  0.0544 -0.0531
 7517W        W 7517   6.448   8.961   0.363  0.0913  0.1353  0.2107
 7518W        W 7518   6.580   8.330   3.787 -0.1424  0.0300  0.1006
 7519W        W 7519   3.613   2.833   3.008 -0.0448 -0.1387 -0.1625
 7520W        W 7520   4.208   3.095   3.831 -0.0114 -0.1937  0.1400
 7521W        W 7521   9.217   1.330   7.557  0.1102 -0.0377 -0.1912
 7522W        W 7522   5.133   1.689   7.842 -0.1314  0.0242 -0.2843
 7523W        W 7523   2.306   1.391   2.522  0.1079  0.2556  0.0918
 7524W        W 7524   0.202   5.691   5.519  0.3240 -0.0310  0.1611
 7525W        W 7525   6.623   8.110   2.579 -0.1662 -0.0434 -0.0090
 7526W        W 7526   0.636   1.623   0.848 -0.2914  0.3580  0.0003
 7527W        W 7527   5.663   6.446   3.274  0.0374 -0.0841 -0.1057
 7528W        W 7528   2.119   4.250   9.171  0.1544  0.0830  0.0916
 7529W        W 7529   2.023   0.299   4.861  0.2057 -0.1500 -0.2818
 7530W        W 7530   5.695   1.518   4.836  0.0769  0.0434 -0.1351
 7531W        W 7531   5.969   9.110   4.541  0.0353 -0.0461 -0.2520
 7532W        W 7532   7.943   3.389   5.599  0.0528  0.0352  0.1569
 7533W        W 7533   3.006   6.648   4.028  0.2607 -0.2064 -0.0246
 7534W        W 7534   1.094   8.338   2.773 -0.0835  0.1138 -0.1304
 7535W        W 7535   6.689   6.300   8.781  0.1211 -0.1311 -0.0348
 7536W        W 7536   9.014   4.929   0.789  0.0092  0.0984  0.2058
 7537W        W 7537   5.149   0.568   2.556  0.2672  0.2737  0.3347
 7538W        W 7538   6.541   4.501   7.495  0.1972 -0.0237 -0.2651
 7539W        W 7539   1.496   1.542   9.390 -0.1110  0.1773 -0.0435
 7540W        W 7540   1.626   8.556   4.757  0.1741  0.0135 -0.0116
 7541W        W 7541   6.561   3.692   5.892  0.1976 -0.2515  0.0279
 7542W        W 7542   5.455   8.418   8.429 -0.5550 -0.2409 -0.0318
 7543W        W 7543   5.584   9.692   6.783 -0.1382  0.0409 -0.0822
 7544W        W 7544   9.127   3.181   4.585 -0.0122 -0.2945  0.0597
 7545W        W 7545   1.969   9.689   6.930 -0.1007  0.1166  0.0853
 7546W        W 7546   0.228   6.956   2.241 -0.1594 -0.0016  0.0958
 7547W        W 7547   3.653   7.642   6.395 -0.3553 -0.2162  0.2935
 7548W        W 7548   1.067   3.345   0.837  0.3551 -0.2125 -0.2482
 7549W        W 7549   9.029   9.082   2.732 -0.1670  0.0397 -0.0770
 7550W        W 7550   0.523   8.081   0.033  0.1547  0.0845  0.4243
 7551W        W 7551   4.263   9.364   3.035  0.0862  0.1487 -0.2797
 7552W        W 7552   2.066   9.320   1.496 -0.4102  0.1885 -0.0206
 7553W        W 7553   8.024   9.305   5.830  0.1846  0.4442  0.2152
 7554W        W 7554   5.634   6.572   0.386  0.0686 -0.0802 -0.1237
 7555W        W 7555   2.691   1.804   4.571 -0.1243 -0.0409  0.2189
 7556W        W 7556   3.476   4.774   8.218 -0.4054  0.0475 -0.0227
 7557W        W 7557   0.843   9.145   3.756 -0.4560 -0.1142 -0.2933
 7558W        W 7558   4.468   4.308   3.962  0.0344 -0.5054 -0.0443
 7559W        W 7559   7.450   5.652   4.361 -0.1857 -0.1296  0.2709
 7560W        W 7560   9.691   9.840   2.551  0.1410 -0.0136 -0.0828
 7561W        W 7561   6.203   2.271   5.679  0.0096 -0.0554 -0.0738
 7562W        W 7562   4.370   9.401   2.537 -0.0708  0.0265  0.0349
 7563W        W 7563   2.644   1.780   0.083  0.0968 -0.2952 -0.2039
 7564W        W 7564   2.358   5.358   8.493  0.0808  0.4311  0.1460
 7565W        W 7565   3.177   7.835   2.934 -0.5242  0.0485 -0.2728
 7566W        W 7566   2.176   9.676   1.847 -0.1320 -0.0452  0.0263
 7567W        W 7567   1.318   5.569   6.162 -0.0688  0.0785 -0.3557
 7568W        W 7568   6.842   0.413   0.809 -0.0010 -0.0146  0.1516
 7569W        W 7569   2.525   9.840   2.774  0.1715 -0.1407  0.0524
 7570W        W 7570   3.706   9.994   9.395  0.0360 -0.3553 -0.1798
 7571W        W 7571   0.887   0.426   5.098  0.0143  0.1075  0.1034
 7572W        W 7572   9.653   6.599   3.937  0.0948  0.4956 -0.0647
 7573W        W 7573   2.329   3.548   3.914 -0.0068  0.3228 -0.0216
 7574W        W 7574   0.230   5.502   9.430  0.1385  0.2965 -0.0088
 7575W        W 7575   1.061   3.414   3.243  0.0082 -0.1082  0.0575
 7576W        W 7576   0.182   5.278   5.762  0.2229  0.4261  0.0583
 7577W        W 7577   9.318   8.971   4.029 -0.0409 -0.1287  0.1869
 7578W        W 7578   9.813   9.553   8.976 -0.1922 -0.1330  0.0364
 7579W        W 7579   4.361   7.690   3.547  0.0746 -0.3617  0.1734
 7580W        W 7580   0.921   2.946   0.369  0.1042  0.0332 -0.2791
 7581W        W 7581   4.247   3.438   5.044  0.1744  0.2523 -0.0335
 7582W        W 7582   3.974   5.011   5.269  0.0468  0.3199 -0.0252
 7583W        W 7583   1.032   5.148   5.443  0.0395 -0.2966  0.2727
 7584W        W 7584   4.601   6.599   6.553  0.2532  0.1066 -0.1917
 7585W        W 7585   2.769   5.455   6.490  0.1250  0.3747  0.0230
 7586W        W 7586   7.418   2.985   0.287 -0.0990  0.0356  0.0373
 7587W        W 7587   3.982   5.140   0.152 -0.0436 -0.2898  0.1115
 7588W        W 7588   9.586   6.825   1.096 -0.0887  0.2195  0.3759
 7589W        W 7589   1.571   4.209   2.782  0.2249 -0.2114 -0.0710
 7590W        W 7590   7.580   4.813   9.899 -0.0971 -0.3340  0.0830
 7591W        W 7591   1.448   7.249   6.844  0.2006  0.1210 -0.0318
 7592W        W 7592   6.734   1.091   1.848  0.1062 -0.0778 -0.0524
 7593W        W 7593   7.590   9.091   5.769 -0.0924  0.0837  0.1565
 7594W        W 7594   8.598   6.971   3.458 -0.0161  0.2942  0.3665
 7595W        W 7595   3.606   5.804   7.413 -0.1518 -0.2344 -0.0942
 7596W        W 7596   8.278   5.869   3.002  0.2475 -0.1656 -0.3015
 7597W        W 7597   4.912   2.749   0.403 -0.0384  0.0425 -0.1076
 7598W        W 7598   5.359   4.671   0.637  0.0463 -0.0329 -0.0429
 7599W        W 7599   8.248   8.293   4.722  0.0268  0.0654 -0.0729
 7600W        W 7600   9.583   1.733   4.030  0.2180  0.2266 -0.0005
 7601W        W 7601   8.673   0.619  10.282  0.2927  0.0810 -0.0361
 7602W        W 7602   0.874   1.218   6.194 -0.1542  0.2795  0.4469
 7603W        W 7603   3.559   2.085   2.594  0.3287 -0.2398  0.1140
 7604W        W 7604   4.339   5.973   0.593 -0.1272  0.2778 -0.1594
 7605W        W 7605   1.519   4.810   0.636  0.1067 -0.1590  0.1169
 7606W        W 7606   5.246   5.719   5.483  0.2234  0.1084 -0.3010
 7607W        W 7607   5.358   5.038   2.218 -0.2996 -0.0467 -0.0385
 7608W        W 7608   1.070   2.212   2.894 -0.0179  0.2031  0.1863
 7609W        W 7609   5.633   5.245   5.849  0.2292 -0.1183 -0.2459
 7610W        W 7610   6.671   2.103   8.918  0.0489 -0.2623  0.2727
 7611W        W 7611   3.542   0.670   5.830  0.0518  0.1513 -0.0286
 7612W        W 7612   2.380   5.538   0.188  0.1982  0.0088  0.4556
 7613W        W 7613   5.436   1.123   4.972 -0.1009 -0.1563  0.0376
 7614W        W 7614   2.868   2.849   1.907 -0.1678 -0.0705  0.2284
 7615W        W 7615   3.419   2.271  10.113 -0.0161 -0.1272  0.1528
 7616W        W 7616   1.177   4.281   0.681  0.0094 -0.4134  0.2328
 7617W        W 7617   4.882   3.369   2.695 -0.5086  0.1671 -0.0758
 7618W        W 7618   3.617   6.444   7.812 -0.2726  0.0942 -0.2735
 7619W        W 7619  10.038   6.743   0.483 -0.0673 -0.1664 -0.0745
 7620W        W 7620   4.901   9.499   6.178 -0.0006 -0.0492 -0.1734
 7621W        W 7621   2.800   6.707   1.675  0.1681 -0.3285 -0.1163
 7622W        W 7622   8.329   0.413   1.781  0.0499  0.0703 -0.2551
 7623W        W 7623   3.623   4.873   1.628 -0.1660  0.2357 -0.2591
 7624W        W 7624   9.726   1.512  10.301 -0.1970 -0.0512  0.2223
 7625W        W 7625   4.436   4.340   9.732  0.2813  0.1268  0.2340
 7626W        W 7626   1.157   2.002   7.571 -0.2120 -0.1257 -0.0764
 7627W        W 7627   2.185   0.846   7.329  0.2779  0.0398 -0.0023
 7628W        W 7628   2.589   6.778   4.417 -0.1097 -0.1410  0.0238
 7629W        W 7629   0.712   3.702   4.202  0.1374  0.0781  0.0439
 7630W        W 7630   9.439   7.730   2.236  0.0242 -0.0487 -0.1076
 7631W        W 7631   9.526   7.212   5.140 -0.0280 -0.3535 -0.1187
 7632W        W 7632   0.084  10.221  10.010  0.2732 -0.1388 -0.0015
 7633W        W 7633   2.719   5.461   9.103 -0.0593 -0.0798 -0.1610
 7634W        W 7634   7.078   6.853   2.816  0.1694  0.2382  0.1861
 7635W        W 7635   4.647   9.084   0.064 -0.0054 -0.4312  0.1519
 7636W        W 7636   6.671   1.220   6.670 -0.1184 -0.1764  0.2141
 7637W        W 7637   9.935   4.299   1.220 -0.1205  0.1681 -0.1560
 7638W        W 7638   9.116   6.908  10.274  0.0296  0.0824  0.1320
 7639W        W 7639   1.022   5.065   0.632 -0.0603 -0.3125 -0.1191
 7640W        W 7640   0.572   2.067   3.665 -0.0958  0.3818 -0.0546
 7641W        W 7641   9.904   4.573   5.543 -0.0794 -0.0816 -0.3370
 7642W        W 7642   0.902   5.106   9.965 -0.0548 -0.0076  0.0796
 7643W        W 7643   4.401   1.168   5.081  0.1695 -0.0013 -0.2100
 7644W        W 7644   0.269   3.928   3.188 -0.1950 -0.0278 -0.2539
 7645W        W 7645   6.839   6.062   2.249  0.4214  0.2123  0.1107
 7646W        W 7646   0.846   7.530   0.905 -0.0737  0.1313 -0.1611
 7647W        W 7647   6.810   4.211   8.126 -0.1243 -0.0241 -0.0029
 7648W        W 7648   8.912   3.577   4.496  0.4336 -0.0046  0.2019
 7649W        W 7649   8.378   7.944   8.629  0.0448 -0.2253  0.0483
 7650W        W 7650   6.390   3.954   9.950 -0.2408 -0.3831  0.0415
 7651W        W 7651   1.568   7.325   2.800  0.0443 -0.0517 -0.1399
 7652W        W 7652   5.019   2.512   7.259 -0.0158  0.1497 -0.2051
 7653W        W 7653   7.306   6.917   0.533 -0.0602 -0.0035 -0.0136
 7654W        W 7654   7.969   5.883   8.448 -0.2310 -0.1183  0.2842
 7655W        W 7655   2.254   8.813   1.328 -0.1753  0.1277  0.3647
 7656W        W 7656   7.896   6.822   4.839 -0.0466  0.1015 -0.3690
 7657W        W 7657   3.754   8.727   4.047 -0.0999  0.2621 -0.1783
 7658W        W 7658   3.103   7.567   2.518 -0.2993 -0.0066 -0.0474
 7659W        W 7659   1.089   4.909   3.995  0.3664  0.0655 -0.1128
 7660W        W 7660   3.691   1.807   7.376 -0.0890  0.2291  0.1022
 7661W        W 7661   8.616   3.758   5.781  0.2961  0.1312  0.0691
 7662W        W 7662   0.991   0.083   1.727  0.0041  0.2588  0.3564
 7663W        W 7663   9.055   6.032   9.099 -0.1948  0.1206 -0.0736
 7664W        W 7664   5.815   3.032   1.251  0.1658  0.1918 -0.2683
 7665W        W 7665   5.525   7.867   3.021  0.1193 -0.1956  0.2022
 7666W        W 7666   2.850   2.767   4.769  0.2235  0.0656  0.0335
 7667W        W 7667   6.708   5.115   1.251 -0.0631 -0.0871 -0.2054
 7668W        W 7668   8.783   9.992   6.274 -0.3689  0.0995 -0.0713
 7669W        W 7669   6.265   0.796   2.855 -0.0040 -0.0539  0.1526
 7670W        W 7670   3.406   1.603   0.269 -0.2524 -0.1677  0.3827
 7671W        W 7671   4.851   2.210   0.210 -0.0144 -0.0275  0.1650
 7672W        W 7672   0.169   4.705   4.020  0.2468  0.1271  0.0816
 7673W        W 7673   1.249   8.802   5.337 -0.1155 -0.0029 -0.1476
 7674W        W 7674   1.441   2.192   8.478  0.0585  0.0592  0.3232
 7675W        W 7675   0.745   6.295   5.396  0.0305  0.2481 -0.0762
 7676W        W 7676   7.610   9.548   1.272  0.1304  0.0071 -0.2405
 7677W        W 7677   5.516   4.453   1.153  0.0341 -0.0820  0.0043
 7678W        W 7678   7.907   5.624   5.098 -0.0739  0.2513 -0.1288
 7679W        W 7679   4.636   6.906   2.244  0.3020  0.0480 -0.1293
 7680W        W 7680   3.729   4.040   3.897  0.2196 -0.0036 -0.0670
 7681W        W 7681   8.360   2.314   7.440 -0.0750  0.4563  0.2124
 7682W        W 7682   0.247   5.856   2.848  0.3439 -0.1290 -0.0980
 7683W        W 7683   5.010   2.970   4.774  0.1143  0.1487  0.1133
 7684W        W 7684   8.395   7.214   1.577 -0.1243 -0.0811 -0.0927
 7685W        W 7685   8.104   6.030   1.254 -0.1860 -0.1690 -0.3416
 7686W        W 7686   7.506   6.036   9.938  0.0336  0.0753 -0.2737
 7687W        W 7687   5.202   8.630   9.762  0.0636  0.2283 -0.0837
 7688W        W 7688   5.387   2.087   7.745 -0.0903 -0.0486  0.0441
 7689W        W 7689   8.543   3.069   7.051 -0.1664  0.1015 -0.1433
 7690W        W 7690   1.776   4.909   8.484 -0.0696  0.1796  0.0847
 7691W        W 7691   2.193   4.064  10.069  0.0872 -0.0046 -0.3392
 7692W        W 7692   1.626   8.097   6.447 -0.1586 -0.1706 -0.4520
 7693W        W 7693   7.993   4.512   9.935  0.1721  0.0420 -0.0261
 7694W        W 7694   7.453   3.229   3.067  0.1510  0.0858  0.3036
 7695W        W 7695   1.881   4.908   1.431 -0.2069 -0.3564 -0.1046
 7696W        W 7696   3.307   0.194   1.938  0.1965 -0.1062 -0.1828
 7697W        W 7697   0.044   6.053   8.499  0.1740 -0.1339 -0.1458
 7698W        W 7698   7.000   3.244   8.682 -0.3993  0.0037 -0.1896
 7699W        W 7699  10.103   7.975   0.664  0.3715  0.0800  0.0352
 7700W        W 7700   9.491   0.130   5.392  0.1509 -0.1754  0.1082
 7701W        W 7701   8.453   4.836   7.321 -0.0941  0.1536 -0.2529
 7702W        W 7702   9.823   6.997   9.986  0.2949 -0.0317  0.1340
 7703W        W 7703   9.530   4.024   0.943  0.1535 -0.2973 -0.0346
 7704W        W 7704   3.480   3.639  10.150  0.3972 -0.0438 -0.0717
 7705W        W 7705   1.836   7.833   2.383  0.0209 -0.1328  0.0367
 7706W        W 7706   0.504   4.028   8.440  0.0178 -0.3182 -0.1206
 7707W        W 7707   6.237  10.170   3.503 -0.2960 -0.0009  0.2582
 7708W        W 7708   7.267   1.811   9.625  0.0422  0.1570 -0.1501
 7709W        W 7709   6.224   6.297   7.887 -0.0964  0.1879 -0.0751
 7710W        W 7710   2.280   5.123   1.234  0.0813  0.2355  0.0333
 7711W        W 7711   6.617   7.859   9.267 -0.2242 -0.1763 -0.0055
 7712W        W 7712   6.882   5.518   6.615 -0.0923  0.0042  0.1910
 7713W        W 7713   6.073   1.270   4.599 -0.1590 -0.0395 -0.0995
 7714W        W 7714   6.843   5.489   2.987 -0.1769 -0.1048  0.2821
 7715W        W 7715   0.771   9.544   9.773 -0.0188 -0.2413 -0.1772
 7716W        W 7716   7.848   3.857   2.094 -0.0515  0.1833 -0.4619
 7717W        W 7717   8.314   5.542   2.041 -0.0897 -0.0394  0.0439
 7718W        W 7718   1.017  10.065   6.038  0.3624  0.0980 -0.2833
 7719W        W 7719   8.157   7.514   6.884 -0.0260 -0.0885  0.0877
 7720W        W 7720   4.390   9.754   4.948  0.1419 -0.0264  0.0076
 7721W        W 7721   3.463   9.261   1.880 -0.2403  0.1183 -0.2742
 7722W        W 7722   8.773   4.646   4.527 -0.1306  0.0176 -0.1775
 7723W        W 7723  10.248   2.655   1.167 -0.3206 -0.0523 -0.0377
 7724W        W 7724   7.744   4.544   1.637 -0.2272  0.0480 -0.2204
 7725W        W 7725   7.739   4.006   2.669 -0.1490 -0.2043  0.1852
 7726W        W 7726   4.226   9.788   7.681 -0.1123 -0.1536  0.0648
 7727W        W 7727   4.684   4.827   8.961 -0.0101 -0.0950  0.2876
 7728W        W 7728   7.721   7.159   7.141  0.3167 -0.0485  0.0393
 7729W        W 7729   6.828   2.076   9.466  0.3478 -0.1044  0.0446
 7730W        W 7730   4.106   6.309   3.282 -0.2167 -0.0772  0.1732
 7731W        W 7731   1.690  10.285   7.279  0.2146 -0.1541  0.2852
 7732W        W 7732   3.767   1.788   2.258 -0.1065 -0.0500 -0.0059
 7733W        W 7733   0.392   9.838   2.289  0.0926  0.0464 -0.0399
 7734W        W 7734   7.110   7.183   3.191  0.1714  0.1296 -0.0134
 7735W        W 7735   9.142   2.755   4.397 -0.0815  0.4393  0.1163
 7736W        W 7736   2.423   0.294   0.164 -0.0473  0.0655  0.0515
 7737W        W 7737   6.102   9.098   3.177  0.1749  0.0902 -0.0279
 7738W        W 7738   2.016   8.400   3.766 -0.0469 -0.1197  0.1593
 7739W        W 7739   6.819   0.018   2.666 -0.3007 -0.1291  0.1288
 7740W        W 7740   6.807   6.819   1.358  0.0094  0.0739 -0.0514
 7741W        W 7741   7.663   2.706   9.133 -0.2915 -0.0187  0.0266
 7742W        W 7742   0.482   1.040   8.847 -0.0165 -0.3671  0.3079
 7743W        W 7743   6.002   5.492   8.647 -0.0511  0.0221  0.0116
 7744W        W 7744   7.578   8.571   3.115  0.0042  0.0407 -0.0655
 7745W        W 7745   4.409   1.578   9.849  0.2988  0.0466  0.0566
 7746W        W 7746   1.014   6.836   5.868  0.0394 -0.1592 -0.2806
 7747W        W 7747   1.905   7.390   4.653 -0.4701  0.0652  0.0154
 7748W        W 7748   2.425   4.392   3.521 -0.2007 -0.0718 -0.2174
 7749W        W 7749   3.588   4.549   2.081  0.3543  0.1086 -0.1264
 7750W        W 7750   6.308   5.883   6.961 -0.3355 -0.0691  0.3551
 7751W        W 7751   0.822   7.741  10.136 -0.1326 -0.4571  0.5023
 7752W        W 7752   7.929   6.954   6.696 -0.1694  0.2100  0.1975
 7753W        W 7753   7.593   6.050   5.114 -0.4198 -0.0165  0.2558
 7754W        W 7754   5.525   0.274   7.387  0.0453 -0.2839  0.1176
 7755W        W 7755   4.261   7.881   8.749  0.0924  0.0035 -0.2984
 7756W        W 7756   6.851   7.650   1.114  0.0274 -0.2468  0.1118
 7757W        W 7757   8.305   0.470   4.723  0.0484 -0.3509  0.2010
 7758W        W 7758   3.833   8.502   1.899 -0.3668  0.0392 -0.1655
 7759W        W 7759   4.069   8.716   3.578 -0.0941  0.0217  0.1303
 7760W        W 7760   0.546   3.268   5.080 -0.0644 -0.1603 -0.3356
 7761W        W 7761   6.462   6.224   3.439  0.1434 -0.0316  0.1937
 7762W        W 7762   7.705   4.940   1.959 -0.0266 -0.1004  0.1163
 7763W        W 7763   3.554   8.797   2.950  0.1189  0.2342  0.1390
 7764W        W 7764   1.713   9.213   7.524 -0.2634 -0.0298 -0.1727
 7765W        W 7765   7.979   5.912   2.032 -0.1135  0.2819 -0.0772
 7766W        W 7766   6.258   4.099   0.769  0.0445 -0.4268 -0.0684
 7767W        W 7767   0.860   7.833   9.571  0.0012  0.0252 -0.1564
 7768W        W 7768   1.878   5.365   0.115 -0.0717  0.3521  0.1653
 7769W        W 7769   9.412   6.744   5.271  0.3166  0.3033  0.0266
 7770W        W 7770   3.823   3.025   4.250 -0.1306 -0.0304  0.0524
 7771W        W 7771   2.799   1.570   7.081 -0.0216  0.1199 -0.3062
 7772W        W 7772   2.842   9.496   3.597  0.1673  0.1010 -0.5603
 7773W        W 7773   4.863   9.271   3.773 -0.0275 -0.0799 -0.2362
 7774W        W 7774   8.823   8.915   3.269  0.1851  0.0961 -0.2902
 7775W        W 7775   5.867   2.496   5.348  0.2349  0.1234 -0.1660
 7776W        W 7776   2.988   3.155   7.261  0.3358  0.1959  0.1190
 7777W        W 7777   2.088   9.613   2.895 -0.1290  0.3553 -0.1098
 7778W        W 7778   5.694   6.322   0.978  0.2457 -0.2696 -0.0626
 7779W        W 7779   2.608   4.117   7.430 -0.0191  0.2574 -0.2343
 7780W        W 7780   1.940   9.792   4.440  0.0714 -0.1811 -0.0551
 7781W        W 7781   8.571   3.703  10.092  0.1385  0.0544  0.1169
 7782W        W 7782   2.115   8.022   2.799  0.2111  0.0335  0.0669
 7783W        W 7783   1.456   4.731   5.029 -0.1372  0.1828  0.0056
 7784W        W 7784   8.960   1.852   3.077 -0.0254 -0.1761  0.1725
 7785W        W 7785   9.000   2.965   6.859 -0.1463 -0.0874  0.0376
 7786W        W 7786   7.220   3.106   5.481 -0.3367 -0.1883  0.1399
 7787W        W 7787   2.093   5.260   3.051 -0.0702 -0.2758  0.2656
 7788W        W 7788   9.529   5.924   7.512 -0.0723  0.0007 -0.0575
 7789W        W 7789   3.902   5.593   6.616  0.2945  0.0595 -0.0068
 7790W        W 7790   6.211   1.423   9.856 -0.0099  0.1847 -0.0751
 7791W        W 7791   4.104   3.013   5.305  0.1719 -0.1470 -0.3097
 7792W        W 7792   0.419   8.518  10.027 -0.0790  0.0496  0.1361
 7793W        W 7793   0.526   4.109  10.142 -0.1045  0.1237  0.0833
 7794W        W 7794   7.449   8.257   3.476 -0.1387  0.1988  0.1303
 7795W        W 7795   4.741   1.951   9.570  0.2387 -0.0807  0.3124
 7796W        W 7796  10.072   7.590   3.373  0.0615  0.0358  0.2429
 7797W        W 7797   9.005   3.709   0.369 -0.1287  0.1043 -0.1303
 7798W        W 7798   6.590   6.014   6.079 -0.2352 -0.1291 -0.0711
 7799W        W 7799   0.745   3.269   6.857  0.0638  0.4889  0.1550
 7800W        W 7800   7.028   2.351   6.185  0.3936  0.2370  0.1483
 7801W        W 7801   2.657   8.912   6.200 -0.2711 -0.0147  0.1498
 7802W        W 7802  10.211   0.216   1.398  0.0858  0.0420 -0.1182
 7803W        W 7803   5.162   1.541   5.242 -0.0581  0.1862 -0.0389
 7804W        W 7804   8.675   9.042   6.221  0.1159 -0.0133 -0.3068
 7805W        W 7805   0.952  10.343   2.933 -0.3797 -0.0499  0.0420
 7806W        W 7806   3.301   4.828   9.039 -0.3105  0.1052  0.2030
 7807W        W 7807   1.984   8.835   6.381 -0.0286  0.3163 -0.3867
 7808W        W 7808   8.763   5.576   8.021 -0.1811  0.0097 -0.0682
 7809W        W 7809   0.448   7.731   5.048 -0.1434 -0.0662  0.0551
 7810W        W 7810  10.059   1.135   7.691 -0.0448  0.1938  0.0034
 7811W        W 7811   2.722   2.848   2.900  0.2007 -0.0053  0.1035
 7812W        W 7812   6.049   4.415   3.120 -0.1569  0.0568  0.1189
 7813W        W 7813   6.586   6.736   2.648  0.1162 -0.1753  0.0525
 7814W        W 7814   0.589   7.056   7.029 -0.0619 -0.0948 -0.0369
 7815W        W 7815  10.150   9.531   4.080  0.3179 -0.1181  0.3323
 7816W        W 7816   1.210   8.987   7.599  0.3354 -0.0053  0.1206
 7817W        W 7817   6.512   6.206   3.895 -0.0518  0.0867 -0.3536
 7818W        W 7818   6.672   4.255   3.732 -0.0354  0.2494 -0.0068
 7819W        W 7819   1.091   5.941   0.097  0.3334  0.2001 -0.3192
 7820W        W 7820   1.672   7.669   3.750 -0.2537 -0.0335 -0.2603
 7821W        W 7821   1.364   7.516   4.623  0.2471  0.3590  0.1294
 7822W        W 7822   8.428   6.753   4.893 -0.0487 -0.1010 -0.1312
 7823W        W 7823   2.053   9.616   6.401 -0.1823  0.1207 -0.0257
 7824W        W 7824   8.300   1.223   3.107  0.3224 -0.2104  0.0292
 7825W        W 7825   8.373   3.612   5.394 -0.1910 -0.1557 -0.1670
 7826W        W 7826   0.828  10.085   4.131  0.0606  0.0887  0.1243
 7827W        W 7827   0.626   6.920   1.458  0.0055 -0.0513 -0.0501
 7828W        W 7828   6.861   2.813   7.508  0.2660  0.1795 -0.1353
 7829W        W 7829   8.910   5.838   4.881 -0.2480  0.0796 -0.1550
 7830W        W 7830   9.508   0.981   8.754 -0.1145  0.0522  0.0838
 7831W        W 7831   4.721   0.804   6.505 -0.1357  0.0693  0.0653
 7832W        W 7832   5.006   9.121   9.462 -0.1915 -0.0184 -0.2275
 7833W        W 7833   6.395   5.409   4.474  0.1783  0.0814  0.0694
 7834W        W 7834   4.977   5.146   9.702 -0.0245 -0.1074 -0.0259
 7835W        W 7835   9.745   2.363   5.514 -0.1897  0.1185 -0.0505
 7836W        W 7836   8.243   2.770   6.087 -0.2592 -0.0087 -0.1460
 7837W        W 7837   2.899   0.299   6.036 -0.0849  0.0370  0.0771
 7838W        W 7838   6.769   2.510   5.123  0.1499  0.3580  0.1815
 7839W        W 7839   6.551   2.383   8.276 -0.1031 -0.0435  0.2870
 7840W        W 7840   9.589   7.835   1.792  0.0144  0.0316 -0.0495
 7841W        W 7841   5.143   3.452   4.708 -0.1772  0.0177 -0.1994
 7842W        W 7842   0.030   3.639   9.753 -0.2664  0.0886 -0.1924
 7843W        W 7843   2.160   0.343   5.851  0.0031 -0.2130  0.0132
 7844W        W 7844   2.213   4.921   1.822 -0.2557  0.2815 -0.0206
 7845W        W 7845   8.977   1.959   6.946 -0.0209  0.3344  0.0381
 7846W        W 7846  10.087   2.708   9.817 -0.2134  0.0985 -0.0392
 7847W        W 7847   7.308   4.380   8.502 -0.2283  0.1466 -0.4982
 7848W        W 7848   7.172   5.495   4.843 -0.0732 -0.3046  0.0100
 7849W        W 7849   4.501   8.653   0.242  0.2062  0.0634  0.2895
 7850W        W 7850   0.395   3.432   5.541  0.1263  0.0619 -0.2965
 7851W        W 7851   6.982   6.307   3.498  0.0585 -0.3705 -0.1057
 7852W        W 7852   7.070  10.151   3.518  0.2320  0.3169  0.3301
 7853W        W 7853  10.165   2.414   0.755 -0.1591  0.2261  0.1358
 7854W        W 7854   7.350   1.873  10.079  0.0179  0.0087  0.0444
 7855W        W 7855   1.329   7.961   3.577 -0.1209  0.0917  0.0962
 7856W        W 7856   9.610   2.070   6.128 -0.2081  0.0794  0.1601
 7857W        W 7857   5.394   4.044   1.398 -0.0062 -0.0435 -0.0656
 7858W        W 7858   2.797   3.297   7.669  0.1211  0.0064  0.3895
 7859W        W 7859   1.705   2.700  10.131  0.1000 -0.1016  0.1042
 7860W        W 7860   9.684   5.820   1.418 -0.0163  0.2166  0.2182
 7861W        W 7861   3.863   2.151   9.152  0.1712  0.0417 -0.0639
 7862W        W 7862   1.428   9.802   4.819 -0.1061 -0.1878 -0.1568
 7863W        W 7863   4.092   7.682   8.179  0.0007 -0.0670 -0.1971
 7864W        W 7864   3.818   1.909   5.600  0.3852 -0.0408  0.0455
 7865W        W 7865   5.796   5.528   9.142  0.0081  0.1000  0.2810
 7866W        W 7866   0.062   3.028   5.500  0.1258  0.3307  0.2896
 7867W        W 7867   2.273   3.166   5.306 -0.0481  0.0869  0.2900
 7868W        W 7868   8.355   3.907   2.193  0.1876  0.0019 -0.0936
 7869W        W 7869   6.930   6.602   6.570  0.0001  0.0108 -0.0926
 7870W        W 7870   9.347   6.517   6.964  0.0312  0.1280  0.0613
 7871W        W 7871   6.241   2.501   4.884 -0.1395 -0.1089  0.0087
 7872W        W 7872   7.152   0.052   5.188  0.3369  0.0953  0.3468
 7873W        W 7873   0.083   7.223   6.860  0.0037  0.0466  0.0124
 7874W        W 7874   5.242   3.378   4.259  0.1029 -0.1880  0.1015
 7875W        W 7875   8.586   1.256   8.670  0.0166  0.1083 -0.0715
 7876W        W 7876   4.781   3.859   2.436  0.0743 -0.1726 -0.1632
 7877W        W 7877   5.651   7.598   4.186 -0.1769  0.1852  0.2484
 7878W        W 7878   7.249   0.309   8.322 -0.3374 -0.0202 -0.3806
 7879W        W 7879   5.215   2.588   5.038 -0.1594 -0.0703  0.1161
 7880W        W 7880  10.270   5.498   7.360  0.1807  0.0821 -0.0505
 7881W        W 7881   7.003   1.833   5.871  0.2625  0.1213 -0.2667
 7882W        W 7882   4.755   6.325   2.890  0.3290 -0.1776  0.2222
 7883W        W 7883   9.393   2.936   5.009  0.1420  0.2061  0.2885
 7884W        W 7884   6.312   3.164   3.997 -0.0884 -0.0341 -0.3557
 7885W        W 7885   1.758   7.356   8.590  0.0505 -0.0087  0.1356
 7886W        W 7886   8.782   9.547  10.137 -0.2407 -0.1471  0.1930
 7887W        W 7887   0.145   1.844   3.780  0.2059 -0.1303 -0.1792
 7888W        W 7888   8.885   2.229   7.681  0.1327  0.2243  0.0008
 7889W        W 7889   2.153   3.627   0.471 -0.1902 -0.1922  0.2238
 7890W        W 7890   7.642   6.792   9.490  0.0783 -0.3274  0.2851
 7891W        W 7891   4.339   2.280   9.449  0.1329 -0.1505  0.3613
 7892W        W 7892   5.447   9.581   6.262  0.0385  0.5267 -0.0863
 7893W        W 7893   7.495   5.555   3.395  0.0886  0.1572 -0.0364
 7894W        W 7894   8.845   2.995   0.380 -0.2740 -0.2661  0.0300
 7895W        W 7895   0.447   9.149   7.224  0.2392  0.0859 -0.1605
 7896W        W 7896   3.540   9.778   0.720 -0.1297  0.0616  0.2337
 7897W        W 7897   9.555   2.914   7.070 -0.0086  0.0277 -0.0528
 7898W        W 7898   0.016   5.543   7.894  0.3036  0.1184  0.2865
 7899W        W 7899   8.741  10.124   2.439 -0.0720  0.0455  0.3596
 7900W        W 7900   0.531   9.367   1.401 -0.0427  0.0456 -0.1418
 7901W        W 7901   1.858  10.337   5.974 -0.3372 -0.1261  0.0036
 7902W        W 7902   4.987   4.416   8.940 -0.0583 -0.1307  0.0674
 7903W        W 7903   2.496   6.412   5.869  0.0695  0.1581  0.0757
 7904W        W 7904   3.341   6.953   3.614  0.1017  0.0370 -0.0032
 7905W        W 7905   7.296   3.018   7.800 -0.0038  0.0983  0.0856
 7906W        W 7906   3.872   9.803   4.943  0.2561 -0.0930 -0.4042
 7907W        W 7907   0.257   8.962   2.297  0.1546  0.2359  0.0776
 7908W        W 7908   3.967   9.643   1.030 -0.0036  0.0721 -0.3741
 7909W        W 7909   1.417  10.270   5.843 -0.4099 -0.4513  0.0923
 7910W        W 7910   1.846   4.860   4.679  0.1398  0.1743  0.0436
 7911W        W 7911   9.859   5.655  10.323  0.0570  0.1739 -0.1831
 7912W        W 7912   6.140   3.420   9.917 -0.2821 -0.0190  0.0771
 7913W        W 7913   1.892   2.846   6.872  0.0691 -0.1349  0.3556
 7914W        W 7914   3.275   7.776   4.967 -0.4108  0.1609 -0.2471
 7915W        W 7915   1.057   2.935   7.941 -0.1718 -0.1260 -0.0894
 7916W        W 7916   9.188   8.245   2.141  0.2263 -0.1489 -0.0608
 7917W        W 7917   0.401   3.727   5.040  0.0550  0.1066  0.0778
 7918W        W 7918   3.183   8.509   0.975  0.2000 -0.1170  0.2460
 7919W        W 7919   6.945   4.124   6.156 -0.1148 -0.1728  0.4589
 7920W        W 7920   6.460   0.838   7.998 -0.1270  0.0823 -0.1178
 7921W        W 7921   1.325   8.519   7.959  0.0795 -0.1031  0.0946
 7922W        W 7922   2.383   7.893   4.511  0.1671 -0.0404  0.2699
 7923W        W 7923  10.097   2.121   5.161  0.0248 -0.0283  0.0269
 7924W        W 7924   4.855   9.668   7.101  0.1080 -0.0369 -0.1474
 7925W        W 7925   1.551   5.745   0.123 -0.0372  0.0342  0.2696
 7926W        W 7926   6.867   7.313   4.862  0.0363 -0.4126  0.4729
 7927W        W 7927   6.066   8.845   7.976 -0.1684 -0.5289 -0.1386
 7928W        W 7928   9.543   8.621   9.284 -0.1691 -0.0037 -0.1541
 7929W        W 7929   3.596   5.842   6.138 -0.0162 -0.4757 -0.3045
 7930W        W 7930   3.001   3.787   0.937 -0.1284  0.3493 -0.0526
 7931W        W 7931   1.918   7.999   9.197 -0.0428 -0.2774 -0.0926
 7932W        W 7932   6.160   1.827   4.651  0.2693  0.0572  0.2163
 7933W        W 7933   3.241   4.760   4.177 -0.3137  0.0320  0.3032
 7934W        W 7934   9.398   7.882   7.472 -0.2569  0.0140  0.1733
 7935W        W 7935   3.912   1.754   8.361  0.0653  0.2094  0.0137
 7936W        W 7936   1.792   3.518   3.754 -0.0584 -0.1200 -0.0967
 7937W        W 7937   4.325   9.632   9.817 -0.1585 -0.0780 -0.1302
 7938W        W 7938   4.335   5.590   3.830 -0.3598  0.1552 -0.2836
 7939W        W 7939   8.757   2.089   5.009 -0.0342  0.2114 -0.1884
 7940W        W 7940   2.822   1.878   1.879 -0.1512  0.0773  0.2631
 7941W        W 7941   2.235   4.927   0.005 -0.0386 -0.1406 -0.0136
 7942W        W 7942   5.499   9.052   9.708 -0.0499 -0.1165  0.0646
 7943W        W 7943   8.518   7.548   0.366  0.2152  0.3814  0.0855
 7944W        W 7944   3.065   6.589   9.504 -0.1566 -0.0498  0.0981
 7945W        W 7945   5.497   9.016   0.069 -0.2440 -0.0770  0.0340
 7946W        W 7946   9.868   5.167   3.553 -0.2515 -0.0755 -0.0084
 7947W        W 7947   1.316   5.317   4.480 -0.0209  0.1425 -0.0270
 7948W        W 7948   2.840   8.378   7.474  0.0458 -0.0687 -0.0430
 7949W        W 7949   7.626   4.431   0.734  0.0337 -0.1016  0.0220
 7950W        W 7950   5.134   5.462   7.693  0.2178 -0.1908  0.0434
 7951W        W 7951   4.206   9.121   6.532  0.2040  0.2159 -0.0872
 7952W        W 7952   4.384   4.190   1.906  0.1087  0.1207  0.1537
 7953W        W 7953   9.544   9.430   6.710 -0.1446 -0.0507  0.1089
 7954W        W 7954   5.200   3.886   7.742  0.1270 -0.2878  0.0235
 7955W        W 7955   7.783   9.468   8.188  0.1505 -0.1483  0.0310
 7956W        W 7956   0.197   4.882   5.006 -0.1357  0.1188  0.0767
 7957W        W 7957   6.300   4.428   8.388  0.3240  0.0647  0.2598
 7958W        W 7958   3.482   9.273  10.039  0.0806 -0.0683 -0.0747
 7959W        W 7959   5.926   9.042   6.768  0.0502 -0.2011 -0.0529
 7960W        W 7960   4.637   5.880   8.879 -0.0570 -0.2611  0.0450
 7961W        W 7961   5.562   3.796   8.662  0.1591  0.0743 -0.5588
 7962W        W 7962   8.493   4.588   3.903 -0.4299 -0.0517  0.1091
 7963W        W 7963   2.543   8.460   7.095  0.3059  0.0562 -0.2807
 7964W        W 7964  10.335   3.530   3.451 -0.0874 -0.1134  0.1191
 7965W        W 7965   0.114   0.938   2.298  0.0784  0.0178  0.2209
 7966W        W 7966   2.891   0.919   1.799  0.0449  0.1821  0.1831
 7967W        W 7967   3.048   2.549   5.314 -0.1280 -0.0200  0.0110
 7968W        W 7968   5.640   0.894   6.950  0.2138 -0.2826 -0.1578
 7969W        W 7969   4.077   7.470   0.808  0.0058  0.0715 -0.0566
 7970W        W 7970   0.779   1.531   8.918 -0.0838  0.1113 -0.0876
 7971W        W 7971   4.758   3.971   9.745  0.0751 -0.0607 -0.1551
 7972W        W 7972   0.937   2.176   9.594 -0.1935 -0.5294  0.1733
 7973W        W 7973   8.537   4.489   0.499 -0.1754 -0.3516 -0.2201
 7974W        W 7974   2.202   2.699   5.484  0.0029 -0.1797 -0.1797
 7975W        W 7975   8.007   0.369   8.817 -0.0580 -0.1269 -0.1455
 7976W        W 7976   1.670   6.740   9.425  0.0213 -0.4047 -0.0501
 7977W        W 7977   0.570   5.155   6.039 -0.3668  0.0213 -0.0845
 7978W        W 7978   9.697   6.426   7.311  0.0276  0.1992 -0.0767
 7979W        W 7979   0.229   3.414   9.212 -0.1763  0.0973  0.1473
 7980W        W 7980   9.130   9.762   6.665  0.1204 -0.0088  0.2220
 7981W        W 7981   8.168   7.725  10.334  0.0521 -0.0548 -0.2992
 7982W        W 7982   5.048   3.526   9.414 -0.1995  0.1848 -0.3043
 7983W        W 7983   3.114   7.986   8.323  0.1318 -0.0785 -0.2068
 7984W        W 7984   3.572   0.212   6.526 -0.3833 -0.0769 -0.0532
 7985W        W 7985   4.288   8.538   7.352  0.0805  0.1872  0.3022
 7986W        W 7986   9.764   3.595   7.641  0.0467 -0.0022 -0.2538
 7987W        W 7987   1.044   3.224   6.430 -0.0342 -0.0707 -0.1670
 7988W        W 7988   0.044   4.801   0.271  0.1460 -0.0927 -0.1162
 7989W        W 7989   0.204   0.152   6.143 -0.0335 -0.2358 -0.0461
 7990W        W 7990   7.455   0.916   5.801 -0.0983  0.2391 -0.1680
 7991W        W 7991   3.475   3.251   0.076  0.1435 -0.2468  0.1844
 7992W        W 7992   4.599   7.310   6.064 -0.2755  0.0250  0.0103
 7993W        W 7993   9.329   5.906   2.954  0.1467  0.0862  0.2560
 7994W        W 7994   5.136   8.482   9.285 -0.2036  0.2792  0.0246
 7995W        W 7995   1.198   3.700   6.210  0.0985 -0.1414 -0.3107
 7996W        W 7996   9.872  10.276   2.833 -0.0625 -0.0437  0.0860
 7997W        W 7997   1.359   5.519   8.109  0.2528  0.2357  0.2592
 7998W        W 7998   8.574   2.518   9.465 -0.1355  0.3266 -0.0858
 7999W        W 7999   7.811   4.078   4.910  0.0976  0.1004 -0.2027
 8000W        W 8000   9.695   8.312   9.649 -0.1813  0.0302 -0.0107
 8001W        W 8001   6.848   9.752   5.539  0.0573 -0.3220  0.0474
 8002W        W 8002   7.429   5.042   6.353 -0.0028 -0.0778 -0.0036
 8003W        W 8003   3.705   8.238   4.297 -0.1244 -0.0706  0.1812
 8004W        W 8004   7.396   5.141   0.426 -0.0356 -0.0215 -0.1565
 8005W        W 8005   3.422   4.034   1.809 -0.0274 -0.0967 -0.0280
 8006W        W 8006   0.647   5.305   2.015  0.2501 -0.0394 -0.3410
 8007W        W 8007   5.034   8.891   1.933 -0.1907 -0.2808  0.1376
 8008W        W 8008   1.705   9.979   7.892  0.0620 -0.2707 -0.2376
 8009W        W 8009   4.107   3.202   3.020 -0.0711  0.0753  0.0569
 8010W        W 8010   1.243   7.876   6.181 -0.2455 -0.1793  0.2525
 8011W        W 8011   8.258   3.927   2.793  0.5922  0.0149  0.0753
 8012W        W 8012   3.472   2.170   5.302 -0.0095 -0.0257  0.1234
 8013W        W 8013   2.165   3.455  10.313 -0.3599 -0.0106 -0.0021
 8014W        W 8014   3.507   5.863   6.609  0.1598  0.1346 -0.1849
 8015W        W 8015   2.725   3.258   2.545  0.2709  0.1768  0.1987
 8016W        W 8016   6.487   3.685   0.494 -0.0625  0.0312  0.2346
 8017W        W 8017   7.612   4.051  10.033 -0.0023  0.1262  0.1489
 8018W        W 8018   5.265   5.543   9.763  0.3290  0.2005  0.3904
 8019W        W 8019   4.435   3.786  10.131 -0.3316 -0.0505 -0.1279
 8020W        W 8020   5.338   6.655   5.360 -0.0576  0.2407 -0.0058
 8021W        W 8021   0.102   2.899   5.011 -0.2719  0.1435 -0.2856
 8022W        W 8022   4.265  10.227   4.711  0.0478  0.3288  0.3002
 8023W        W 8023   5.799   5.252   2.523  0.2575  0.2288  0.3235
 8024W        W 8024   0.446   2.914   1.251  0.1005 -0.0361  0.0359
 8025W        W 8025   5.816   7.696   6.317  0.0463  0.2396 -0.1249
 8026W        W 8026   7.961   4.933   4.569 -0.3436  0.5413 -0.0647
 8027W        W 8027   2.900   4.406   3.857 -0.3106 -0.0816 -0.0862
 8028W        W 8028   9.254   3.170   2.125 -0.1447 -0.0363  0.0053
 8029W        W 8029   2.099   1.828   0.804  0.0249 -0.0777  0.3735
 8030W        W 8030   6.227   8.043   7.827 -0.1689 -0.1803  0.0725
 8031W        W 8031   0.872   9.113   3.022  0.2254 -0.0545 -0.1187
 8032W        W 8032   5.058   4.323   3.026  0.0746 -0.0205 -0.0327
 8033W        W 8033   8.765   0.639   1.810  0.2516  0.0152  0.0448
 8034W        W 8034   1.276   3.783   2.182 -0.2555 -0.1177 -0.0684
 8035W        W 8035   1.067   5.839   0.979  0.0670  0.0371  0.1113
 8036W        W 8036   7.484   4.175   3.255 -0.0677 -0.0713 -0.1199
 8037W        W 8037   8.994   2.775   9.852  0.2564  0.1353  0.3451
 8038W        W 8038   4.428   5.214   6.079  0.1338 -0.2290 -0.1088
 8039W        W 8039   4.360   4.086   6.087  0.1521 -0.2015 -0.0353
 8040W        W 8040   8.048   2.800   4.589  0.2990 -0.2830 -0.0185
 8041W        W 8041   1.310   0.748   4.813 -0.0217 -0.1309  0.0559
 8042W        W 8042   7.611   6.262   9.454 -0.1392 -0.1729  0.0955
 8043W        W 8043   8.050   8.769   4.932  0.2908  0.1309  0.1940
 8044W        W 8044   7.511   7.927   7.023 -0.0932  0.2531  0.0348
 8045W        W 8045   2.226   0.952   5.430  0.1767  0.3210  0.1079
 8046W        W 8046   1.758   6.757   2.654 -0.1935  0.3038  0.0943
 8047W        W 8047   9.311   8.404   6.750 -0.2539  0.2011 -0.0490
 8048W        W 8048   9.749   3.228   1.060 -0.1202 -0.0244 -0.2026
 8049W        W 8049   4.014   0.226   1.369 -0.0603  0.1392 -0.1401
 8050W        W 8050   8.337   8.380   1.999 -0.0637  0.1600 -0.1133
 8051W        W 8051   7.765  10.045   6.938 -0.0475 -0.1451  0.1009
 8052W        W 8052   9.729   0.286   9.203 -0.2103  0.1509  0.2864
 8053W        W 8053   0.362   8.785   1.443 -0.2390  0.0752 -0.0097
 8054W        W 8054   5.751   6.676  10.250 -0.1477 -0.1778  0.0000
 8055W        W 8055   1.584   9.911   2.718  0.0094 -0.1795 -0.3228
 8056W        W 8056   1.070   8.084   8.226  0.3181 -0.1642  0.3425
 8057W        W 8057   3.602   0.135   7.293  0.1449  0.1631 -0.1866
 8058W        W 8058   9.129   0.173   3.748  0.1062 -0.0278  0.0392
 8059W        W 8059   1.468   3.078   8.081 -0.1178 -0.1472 -0.1166
 8060W        W 8060   1.800   1.894   4.544  0.6012  0.0968  0.1150
 8061W        W 8061   2.063   0.499   0.462 -0.1736  0.0229 -0.0730
 8062W        W 8062   5.547   8.098   3.481  0.0237  0.1124  0.1385
 8063W        W 8063   6.402   5.778   2.202 -0.1001  0.2504  0.2056
 8064W        W 8064   1.848   0.257   6.887  0.1305 -0.1433 -0.1426
 8065W        W 8065   2.453   5.280   6.185  0.0277 -0.1451 -0.0426
 8066W        W 8066   6.444   5.356   6.893 -0.0173 -0.2319 -0.0693
 8067W        W 8067   7.905   0.440   7.383  0.0005 -0.0368 -0.1324
 8068W        W 8068   4.546   7.869   6.382 -0.0475  0.1620 -0.1485
 8069W        W 8069   9.678   4.545   9.968 -0.0551  0.0965 -0.1363
 8070W        W 8070   9.353   9.516   8.794 -0.2442 -0.1736 -0.1266
 8071W        W 8071   6.677   0.172   0.032  0.1980  0.1021 -0.0328
 8072W        W 8072   9.165   5.919   3.839  0.1730 -0.0773  0.0605
 8073W        W 8073   3.180   5.049   3.195  0.2788  0.0071 -0.1011
 8074W        W 8074   9.728   2.624   8.557  0.0335  0.0891  0.2479
 8075W        W 8075   5.122   9.423   6.636 -0.0733  0.3381 -0.0414
 8076W        W 8076   8.816   3.650   9.494  0.0111  0.1786 -0.0238
 8077W        W 8077   0.922   7.451   4.131 -0.0660 -0.0385 -0.0355
 8078W        W 8078   1.861   8.410   7.296 -0.1247 -0.0835  0.0098
 8079W        W 8079   4.306   2.119   8.431 -0.1084  0.1899 -0.2651
 8080W        W 8080   4.368   4.271   0.626 -0.0062 -0.0918 -0.3382
 8081W        W 8081   7.875   4.920   0.008 -0.5450  0.2447  0.1302
 8082W        W 8082   5.470   2.742   8.814  0.0241 -0.0938 -0.1761
 8083W        W 8083   2.791   2.258  10.183 -0.0818  0.0626 -0.0912
 8084W        W 8084   2.057   8.985   5.499 -0.0600  0.0828  0.0335
 8085W        W 8085   7.226   6.072   1.540 -0.1225  0.0982 -0.0460
 8086W        W 8086  10.274   0.377   0.857  0.1722 -0.4232  0.1528
 8087W        W 8087   2.118   7.017   6.181 -0.0145 -0.2819  0.3685
 8088W        W 8088   6.599   7.044   0.116  0.1053 -0.3456  0.2796
 8089W        W 8089   1.745   6.273   0.815  0.1965 -0.3194 -0.0817
 8090W        W 8090   7.490   9.070   5.188  0.1336 -0.0352 -0.1319
 8091W        W 8091   3.203   9.730   8.821  0.0995  0.0705 -0.0082
 8092W        W 8092   3.767   6.879   7.061  0.1492  0.1129 -0.2325
 8093W        W 8093   5.967   8.135   0.891  0.1876 -0.0127  0.1432
 8094W        W 8094   3.236   3.289   0.924  0.2061 -0.1271  0.0569
 8095W        W 8095   0.748   4.063   6.284  0.0003 -0.0957 -0.1798
 8096W        W 8096   6.227   4.995   2.690 -0.0410 -0.0129  0.0974
 8097W        W 8097   2.638   3.787   6.837  0.2495  0.3095  0.3288
 8098W        W 8098   6.980   2.940   0.070  0.1470 -0.2314  0.0052
 8099W        W 8099   8.188   9.648   6.213 -0.0667  0.1921 -0.3748
 8100W        W 8100   0.026   9.416   8.371 -0.0482  0.1181 -0.0453
 8101W        W 8101   1.643   3.215   8.583  0.1898  0.3481  0.1380
 8102W        W 8102   5.854   5.191   7.275  0.1905  0.3074  0.0101
 8103W        W 8103   2.423   5.655   3.000  0.2669 -0.0559  0.0540
 8104W        W 8104   3.746   9.098   0.459  0.1981 -0.1500  0.1310
 8105W        W 8105   2.167   5.440   6.812  0.3961 -0.5030  0.1017
 8106W        W 8106   1.885   6.412   3.687 -0.1593 -0.0977 -0.0481
 8107W        W 8107   9.238   5.684   1.665 -0.0188  0.2722 -0.0979
 8108W        W 8108   8.994   7.503   0.342 -0.3211 -0.0127  0.1626
 8109W        W 8109   5.400   6.716   7.159 -0.1765 -0.1852 -0.3442
 8110W        W 8110   5.290   9.121   4.296  0.0212  0.0597 -0.0454
 8111W        W 8111   3.039   6.280   1.131 -0.2589 -0.4346 -0.1916
 8112W        W 8112   7.581   4.926   3.619 -0.2260  0.1725 -0.1713
 8113W        W 8113   7.358   7.410   6.084 -0.0906  0.1352 -0.2230
 8114W        W 8114   8.587   7.188   7.821 -0.1265  0.0569  0.0278
 8115W        W 8115   3.749   7.254   7.958 -0.1355  0.2269  0.1784
 8116W        W 8116   9.396   7.454   9.735  0.0926  0.3305  0.5553
 8117W        W 8117   4.124   6.911   3.252 -0.1158 -0.1094 -0.0175
 8118W        W 8118   6.059   2.334   6.493  0.1082 -0.1053  0.0003
 8119W        W 8119   2.978   4.881   2.685 -0.2331 -0.2226 -0.2944
 8120W        W 8120   1.223   3.318   0.103 -0.1146  0.0180 -0.0246
 8121W        W 8121   7.770   0.344   1.050 -0.1152 -0.2643  0.1610
 8122W        W 8122   0.313   0.376   1.203  0.1672 -0.1426  0.1093
 8123W        W 8123   7.745   7.338   4.759 -0.3080 -0.2901  0.1754
 8124W        W 8124   8.300   3.694   4.870 -0.4256 -0.0124 -0.0767
 8125W        W 8125   2.554   6.267   0.846  0.4182 -0.1928  0.0710
 8126W        W 8126   2.013   4.021   5.838 -0.0610  0.2744 -0.0829
 8127W        W 8127   6.422   6.883  10.045  0.1759  0.2198  0.1774
 8128W        W 8128   5.662   3.700   4.106 -0.0606  0.0278 -0.1412
 8129W        W 8129   5.309   7.435   3.270 -0.2502 -0.0946  0.0634
 8130W        W 8130   3.796   2.066   1.647  0.0721 -0.1388 -0.1190
 8131W        W 8131   8.678   8.321   4.400 -0.0367  0.2854  0.0733
 8132W        W 8132   7.640   4.975   8.502 -0.0058  0.1799 -0.0068
 8133W        W 8133   9.245   9.963   3.207  0.3595  0.2822 -0.2045
 8134W        W 8134   8.962   1.925   1.782  0.0607  0.0963  0.1828
 8135W        W 8135   6.870   2.801   6.389 -0.3860 -0.0604 -0.0534
 8136W        W 8136   5.857   5.559   1.500 -0.0930  0.3080  0.1901
 8137W        W 8137   7.187  10.153   7.598 -0.0006 -0.2712  0.3540
 8138W        W 8138   4.742   7.682   1.968 -0.1169 -0.0763  0.3038
 8139W        W 8139   3.363   3.651   6.229  0.1056  0.0366  0.1435
 8140W        W 8140   8.921   6.501   5.344  0.0178 -0.2949 -0.2590
 8141W        W 8141   8.288   1.744  10.139  0.0667  0.0006  0.2670
 8142W        W 8142   1.589   3.342   2.068  0.2019 -0.1098  0.0163
 8143W        W 8143   0.062   7.476   4.796  0.1826  0.0201 -0.3378
 8144W        W 8144   1.326   9.576   0.223 -0.0405 -0.1943  0.1673
 8145W        W 8145   9.714   0.577   9.742 -0.0376  0.1420  0.0932
 8146W        W 8146   0.493   7.069   9.819  0.1115 -0.3115  0.0638
 8147W        W 8147   1.244   0.757   0.872 -0.1417  0.2482  0.0034
 8148W        W 8148   9.383   8.105   9.973  0.1219  0.1841 -0.2261
 8149W        W 8149   4.833   9.533   4.204 -0.3585 -0.3338  0.1558
 8150W        W 8150   7.898   3.090   2.324  0.0567  0.1138  0.0802
 8151W        W 8151   7.822   5.649   8.970  0.1153 -0.0841 -0.3971
 8152W        W 8152   6.127   4.056   0.282  0.2516  0.0372  0.2432
 8153W        W 8153   3.024   5.860   6.696 -0.0462 -0.2001  0.0408
 8154W        W 8154   2.774   3.857   4.758 -0.1782 -0.1087  0.2561
 8155W        W 8155   1.232   7.346   6.072 -0.1268  0.1974 -0.0082
 8156W        W 8156   5.274   5.322   2.610  0.0522 -0.3179 -0.1632
 8157W        W 8157   6.847   4.691   0.324 -0.0161  0.0778 -0.0127
 8158W        W 8158   6.706   1.995   0.528  0.3538  0.0971 -0.1057
 8159W        W 8159   4.830   5.478   5.269 -0.0401 -0.1879 -0.1350
 8160W        W 8160   5.893   1.020   5.876  0.2994 -0.0995  0.0562
 8161W        W 8161   9.740   2.461   1.241 -0.1951  0.0222 -0.1971
 8162W        W 8162   7.983   2.549   5.032  0.1420  0.5552  0.1180
 8163W        W 8163   5.986   9.212   7.650 -0.0835  0.3625 -0.0687
 8164W        W 8164   5.342   5.174   7.134  0.0186  0.0139 -0.0455
 8165W        W 8165   3.184   9.832   6.180 -0.1996 -0.1071 -0.0953
 8166W        W 8166   4.758   1.378   1.759  0.0188 -0.1560 -0.0316
 8167W        W 8167   5.902   2.030   1.722  0.1619 -0.1634 -0.3729
 8168W        W 8168   9.201   4.438   0.895  0.2254  0.0620  0.3017
 8169W        W 8169   3.777   9.089   9.044 -0.1801  0.0103  0.1183
 8170W        W 8170   1.191   0.869   8.194  0.3068  0.0727 -0.0601
 8171W        W 8171   0.126   8.798   7.400 -0.0423 -0.4375  0.1009
 8172W        W 8172   3.298   4.120   3.647  0.1006 -0.1830 -0.2354
 8173W        W 8173   4.883   5.172   2.880  0.0807  0.0280  0.1503
 8174W        W 8174   1.521   8.245   2.397  0.0047 -0.3449  0.0249
 8175W        W 8175   1.123   6.855   6.911 -0.1434  0.2147 -0.2797
 8176W        W 8176   5.483   7.218   2.329  0.3277 -0.2055 -0.3432
 8177W        W 8177   8.471  10.083  10.238  0.2953 -0.3712  0.1642
 8178W        W 8178   2.506   0.738   2.021 -0.1280 -0.2738  0.3135
 8179W        W 8179   2.884   1.442   4.904  0.2372  0.0167  0.0674
 8180W        W 8180   8.221   7.235   4.746  0.0180  0.1667  0.0467
 8181W        W 8181   4.204   7.941   9.721 -0.3114 -0.2473 -0.1398
 8182W        W 8182   6.851   0.894   7.667  0.2849  0.1742  0.2019
 8183W        W 8183   6.721   1.944   8.343 -0.1543 -0.0985  0.2011
 8184W        W 8184   4.677   3.132   8.807  0.0022  0.1279 -0.4281
 8185W        W 8185   5.454   5.885   1.288 -0.1110 -0.0833 -0.1584
 8186W        W 8186   3.418   4.981   0.840 -0.0180  0.2076 -0.0944
 8187W        W 8187   0.519   1.075   3.462  0.0613 -0.2056  0.2437
 8188W        W 8188   3.633   3.392   4.481  0.2060 -0.0430  0.1460
 8189W        W 8189   3.910   5.968   7.011 -0.2099 -0.0551  0.1228
 8190W        W 8190   5.593   0.197   9.443  0.0969  0.1093 -0.0738
 8191W        W 8191   4.446   5.179   1.097 -0.1498 -0.0195  0.1946
 8192W        W 8192   8.574   8.732   1.655 -0.1532  0.1486 -0.4696
 8193W        W 8193   5.111   7.051   1.570 -0.1347  0.2779  0.1557
 8194W        W 8194   5.717   2.566   0.419  0.1969  0.1249  0.1911
 8195W        W 8195   0.277   2.431   1.461  0.0979  0.1678  0.3428
 8196W        W 8196   4.760   5.417   5.782  0.1537 -0.0325  0.0328
 8197W        W 8197   1.795   8.204   5.092  0.1010  0.3168 -0.0908
 8198W        W 8198   3.177   9.751   1.177  0.3746  0.1579  0.3392
 8199W        W 8199   0.019   0.905   7.325 -0.0471 -0.1902 -0.1437
 8200W        W 8200   7.439   0.925   0.111 -0.0788 -0.1660  0.0541
 8201W        W 8201   1.412   4.944   1.136 -0.1676 -0.1259  0.1703
 8202W        W 8202   6.614   9.808   3.574 -0.0602 -0.2257 -0.1910
 8203W        W 8203   9.644   9.756   5.134 -0.1246  0.2702  0.1012
 8204W        W 8204   4.468   6.545   8.968  0.1495 -0.1828  0.1981
 8205W        W 8205   7.524   9.410   9.705  0.1009  0.0827  0.2134
 8206W        W 8206   2.072   9.113   8.030  0.0919  0.1764 -0.1936
 8207W        W 8207   6.640   8.269  10.016 -0.1342 -0.1741 -0.0418
 8208W        W 8208   6.924   0.032   7.931 -0.1219  0.1066 -0.1138
 8209W        W 8209   2.724   5.662   2.048 -0.1347 -0.2261  0.0884
 8210W        W 8210   6.616   5.825  10.115  0.0172  0.2901  0.1362
 8211W        W 8211   6.743   9.213   3.915 -0.1853  0.2706  0.1344
 8212W        W 8212   2.991   1.912   6.755 -0.2824  0.1629  0.1499
 8213W        W 8213   7.266   2.536   7.997 -0.3227 -0.2598  0.0279
 8214W        W 8214   8.861   4.592   9.687  0.0487 -0.2539 -0.0753
 8215W        W 8215   0.521   3.757   9.724  0.1040  0.2972 -0.0511
 8216W        W 8216   5.091   5.806   9.370 -0.0176 -0.1824  0.1230
 8217W        W 8217   6.100   4.848   9.572 -0.0911 -0.0904  0.0025
 8218W        W 8218   7.403   1.428   8.790 -0.1847 -0.2772  0.0876
 8219W        W 8219   4.473   7.945   7.939  0.1655 -0.0396  0.1682
 8220W        W 8220   7.379   0.087   7.945  0.0370 -0.0413 -0.0308
 8221W        W 8221  10.237   2.490   3.546 -0.0485 -0.3818  0.0809
 8222W        W 8222   0.091   1.701   6.289 -0.4510 -0.1190  0.3288
 8223W        W 8223   7.921   9.946   4.612 -0.1275  0.1816  0.2451
 8224W        W 8224   3.641   6.855   0.513 -0.1649 -0.1507 -0.0501
 8225W        W 8225   3.134   8.011   5.372 -0.2081  0.0077  0.3823
 8226W        W 8226   6.936   1.685   2.153 -0.0754 -0.0747 -0.1518
 8227W        W 8227   3.939   9.013   8.096 -0.1069 -0.0334  0.0958
 8228W        W 8228   2.075   1.198   2.951  0.1280  0.4043 -0.1605
 8229W        W 8229   2.664   4.395   4.981 -0.2261  0.1731  0.2177
 8230W        W 8230   1.578   2.666   8.582 -0.3480 -0.1083  0.2143
 8231W        W 8231   8.433   5.707   5.482  0.0864  0.0105  0.2119
 8232W        W 8232   2.111   3.419   2.663  0.1145 -0.1219  0.3000
 8233W        W 8233   9.033   8.767   6.958 -0.1638 -0.0838 -0.0570
 8234W        W 8234  10.266   6.513   2.756  0.2443 -0.1384 -0.1974
 8235W        W 8235   8.541   4.457  10.079  0.1242  0.4305 -0.2363
 8236W        W 8236   2.301   4.649   6.550  0.0426 -0.0514 -0.1890
 8237W        W 8237   0.759   1.862   0.434  0.1752 -0.0488  0.1149
 8238W        W 8238   3.699   0.094   7.843 -0.1570 -0.0923 -0.1102
 8239W        W 8239  10.045   2.339   6.114 -0.0208  0.0138 -0.5242
 8240W        W 8240   0.151   0.990   0.234 -0.2029 -0.1201 -0.2274
 8241W        W 8241   2.373   3.000   6.780  0.0107  0.1988 -0.3032
 8242W        W 8242   1.561   9.527   6.579 -0.1452  0.1640 -0.2700
 8243W        W 8243   3.454   3.660   4.944  0.1783 -0.2605 -0.1964
 8244W        W 8244   2.578   4.666   7.793 -0.2471 -0.0837 -0.2256
 8245W        W 8245   1.987   4.920   0.527 -0.0931  0.1789 -0.0527
 8246W        W 8246   8.634   2.777   5.766  0.1675  0.2768  0.0663
 8247W        W 8247   3.877   8.348   6.637 -0.0850 -0.1190  0.0482
 8248W        W 8248   0.718   2.276   5.678  0.0159  0.0465 -0.3334
 8249W        W 8249   3.742   4.902   3.632  0.0072  0.0055 -0.2318
 8250W        W 8250   7.457   3.056   1.327 -0.3205  0.0393 -0.2163
 8251W        W 8251   5.879   0.106   8.058 -0.1164 -0.1650 -0.1503
 8252W        W 8252   9.155   6.634   4.652 -0.2268 -0.1087  0.1144
 8253W        W 8253   1.788   5.415   8.352  0.1734 -0.3067 -0.1489
 8254W        W 8254   2.360   3.113   1.116  0.0670 -0.2818  0.2351
 8255W        W 8255   4.905   3.324   6.899  0.2229  0.0186 -0.1267
 8256W        W 8256   6.972   1.131   2.339  0.0499 -0.2231  0.1649
 8257W        W 8257   3.477   2.413   6.628 -0.0363  0.0513  0.0750
 8258W        W 8258   2.868   9.046   6.746 -0.0607 -0.0171 -0.0191
 8259W        W 8259   0.428   1.526   7.729 -0.2364 -0.1678  0.0347
 8260W        W 8260   2.101   9.271   9.292 -0.3024 -0.2050  0.2715
 8261W        W 8261   8.134   0.064   6.116  0.0890 -0.0396 -0.1709
 8262W        W 8262   5.262   7.176   8.922 -0.1541 -0.0325  0.2008
 8263W        W 8263   0.725   2.199   4.599 -0.3968 -0.0525 -0.0372
 8264W        W 8264   5.693   0.128   6.055  0.1316  0.2911 -0.3126
 8265W        W 8265   3.293   1.518   6.979  0.3955 -0.1158 -0.2880
 8266W        W 8266   1.322   7.742   4.124 -0.0847  0.1087  0.2731
 8267W        W 8267   3.256   1.238   2.081  0.0925 -0.0525  0.1418
 8268W        W 8268   9.130   5.171   0.307 -0.1411  0.0359  0.0964
 8269W        W 8269   1.333   5.783   2.824  0.0998 -0.1813  0.0281
 8270W        W 8270   5.002   6.508   6.257 -0.1637  0.2500 -0.0290
 8271W        W 8271   5.814   5.568   2.174 -0.1691 -0.0480  0.1592
 8272W        W 8272   1.149   0.125   4.239  0.2658  0.0681 -0.0818
 8273W        W 8273   3.897   2.528   8.227 -0.0374 -0.0593 -0.0391
 8274W        W 8274   5.804   6.529   2.745  0.2538  0.0034 -0.1703
 8275W        W 8275   1.091   9.618   2.419 -0.1314  0.4065 -0.0692
 8276W        W 8276   2.188   1.856   9.049  0.1415  0.2065 -0.2575
 8277W        W 8277   1.904   1.975   1.425  0.1761 -0.0711  0.2006
 8278W        W 8278   5.081   9.941   0.637  0.1062 -0.2115 -0.0459
 8279W        W 8279   4.715   4.746   3.097  0.0014 -0.1578  0.0084
 8280W        W 8280   7.090   8.388  10.297  0.1373 -0.0561 -0.1127
 8281W        W 8281   5.515   7.820   4.981  0.2054  0.1633  0.2429
 8282W        W 8282   1.487   9.704   5.317  0.0884  0.3779  0.2915
 8283W        W 8283   5.401   0.381   3.442 -0.0092  0.1460  0.1686
 8284W        W 8284  10.081   6.575   4.091  0.0535 -0.4317 -0.1101
 8285W        W 8285   8.911   4.196   8.762 -0.2214  0.1030  0.0953
 8286W        W 8286   2.855   0.180   3.397  0.3907 -0.1950  0.0518
 8287W        W 8287   6.938   1.133   8.204  0.3223  0.1044  0.3779
 8288W        W 8288   1.579   1.906   4.064 -0.2592  0.1697  0.0934
 8289W        W 8289   0.162   5.911   4.126  0.3024  0.0137 -0.1138
 8290W        W 8290   7.028   2.344   3.091  0.1917  0.0272  0.1027
 8291W        W 8291   7.859   9.994   2.798 -0.4882  0.1472 -0.0998
 8292W        W 8292   7.237   0.512   3.448  0.1531  0.0017 -0.0045
 8293W        W 8293   1.688   5.679   9.252  0.0041 -0.4168  0.0379
 8294W        W 8294   7.345   6.442   5.252  0.0408  0.4300 -0.2666
 8295W        W 8295   5.083   6.607   8.989  0.0990  0.2052 -0.0714
 8296W        W 8296   0.009   5.098   8.246 -0.4452  0.1223  0.0530
 8297W        W 8297   4.372   7.426   4.189 -0.1752  0.3289 -0.4901
 8298W        W 8298   7.107   4.537   7.606 -0.1237  0.2226  0.0492
 8299W        W 8299   4.043   7.849   6.643  0.0437  0.2075  0.1015
 8300W        W 8300   1.435  10.099   2.213  0.0128  0.0124  0.2268
 8301W        W 8301   3.224   6.575   8.923  0.1196 -0.2509  0.0742
 8302W        W 8302   0.332   1.663   9.031  0.2319  0.1459  0.0666
 8303W        W 8303   5.945   9.651   1.470 -0.1198  0.0901 -0.1101
 8304W        W 8304   4.300   6.258   6.140 -0.0642  0.0240  0.3263
 8305W        W 8305   9.956   3.791   1.975  0.2328  0.2211 -0.1852
 8306W        W 8306   3.860   9.562   4.107  0.3201  0.1240  0.0648
 8307W        W 8307   8.220   7.935   1.770  0.1612 -0.0031  0.2104
 8308W        W 8308   3.479   8.807   4.697 -0.3120  0.0933 -0.1827
 8309W        W 8309   6.631  10.150   8.379  0.3080 -0.0789 -0.0281
 8310W        W 8310   0.523   3.266   8.048 -0.1277 -0.1151 -0.2260
 8311W        W 8311   5.148   4.127   5.523 -0.1180  0.1955 -0.2200
 8312W        W 8312   3.305   0.517   6.228 -0.2263  0.0978 -0.0416
 8313W        W 8313   6.357   2.746   7.360 -0.0561  0.1287  0.0183
 8314W        W 8314   2.289   4.027   7.047  0.4024 -0.1852  0.1187
 8315W        W 8315   4.185   0.846   3.398  0.0552 -0.0365 -0.0497
 8316W        W 8316   3.884   5.399   3.289 -0.0272  0.1401  0.1020
 8317W        W 8317   2.693   0.489   4.053 -0.0108 -0.1136 -0.0033
 8318W        W 8318   1.688   6.732   6.706 -0.2401 -0.1431  0.0683
 8319W        W 8319   6.409   8.459   4.283  0.1766 -0.0594 -0.2751
 8320W        W 8320   9.426   8.414   0.536  0.2744  0.0331  0.1491
 8321W        W 8321   7.982   7.482   1.772  0.1827  0.0995  0.0406
 8322W        W 8322   3.143   8.965   3.222  0.2351 -0.0661  0.2626
 8323W        W 8323   9.386   3.941   5.718  0.0887 -0.2176 -0.0653
 8324W        W 8324   7.856   1.186   7.969  0.2026 -0.0290 -0.2396
 8325W        W 8325   3.818   9.629   3.077 -0.0223  0.0935 -0.0834
 8326W        W 8326   7.215   6.815   2.037 -0.1416 -0.0745 -0.0016
 8327W        W 8327   3.532   8.614   8.621 -0.2849 -0.0969 -0.2004
 8328W        W 8328   5.881   6.998   0.310 -0.2970  0.1267 -0.0309
 8329W        W 8329   7.348   8.186   2.917  0.2220  0.3901 -0.1502
 8330W        W 8330   4.411  10.298   3.645  0.4267 -0.0524  0.2021
 8331W        W 8331   6.537   3.168   8.746  0.2606 -0.0857 -0.0875
 8332W        W 8332   7.943   2.656   7.408  0.0879 -0.1150 -0.0068
 8333W        W 8333   8.710   8.243   9.962 -0.1286  0.0515  0.0398
 8334W        W 8334   1.699   3.496   5.793 -0.0971  0.2221 -0.1800
 8335W        W 8335   3.431   1.804   7.778 -0.2032  0.0573  0.0634
 8336W        W 8336   2.905   4.198   0.112  0.3523 -0.0078  0.3658
 8337W        W 8337   5.109   6.742   0.573  0.0907  0.1124 -0.3472
 8338W        W 8338   4.262   8.155   0.520 -0.0378 -0.0367 -0.1221
 8339W        W 8339   9.515   4.946   5.545 -0.0949  0.1034  0.0270
 8340W        W 8340   2.896   0.419   0.508  0.0985 -0.0274  0.0119
 8341W        W 8341   0.808   6.108   1.870 -0.2897 -0.0184 -0.1240
 8342W        W 8342   9.558  10.252   9.487 -0.2714  0.1382  0.1350
 8343W        W 8343   0.932   9.297   0.296 -0.0016 -0.3151 -0.1371
 8344W        W 8344   8.155   7.708   4.868 -0.2770  0.2459 -0.0411
 8345W        W 8345   9.441   5.669   3.478 -0.2508 -0.2552 -0.1954
 8346W        W 8346   1.787   2.125   3.621  0.2524 -0.1004 -0.1488
 8347W        W 8347   6.334   1.080   9.394  0.1301 -0.0802 -0.1394
 8348W        W 8348   7.871   2.003   1.296  0.0642 -0.0170  0.2058
 8349W        W 8349   7.099   6.112   9.150 -0.1670 -0.0385 -0.0556
 8350W        W 8350   4.026   5.158   0.731  0.0082 -0.0584 -0.0361
 8351W        W 8351   7.732   7.120   3.957  0.2995  0.0759 -0.3261
 8352W        W 8352  10.067   6.296   8.937 -0.0661 -0.1020 -0.0218
 8353W        W 8353   4.483   5.154   0.498 -0.0520  0.1392  0.0882
 8354W        W 8354   3.295   6.674   1.242 -0.1557  0.1967  0.0336
 8355W        W 8355   5.185   9.218   8.042 -0.0973 -0.2141  0.2493
 8356W        W 8356   4.369   5.694   2.376  0.0711  0.0184  0.1215
 8357W        W 8357   4.819   7.096   1.067 -0.0464  0.1010  0.0964
 8358W        W 8358   3.152   8.158   7.877  0.0427  0.2560  0.0085
 8359W        W 8359   9.402   2.735   0.070  0.1767 -0.1499  0.1009
 8360W        W 8360   6.406   6.608   7.536 -0.3134  0.2148 -0.3197
 8361W        W 8361   5.827   7.465   4.763  0.2774 -0.1153  0.0604
 8362W        W 8362   4.737   8.401   4.893  0.1893  0.0125 -0.0605
 8363W        W 8363   9.355   0.744   8.339 -0.2965  0.0671  0.0736
 8364W        W 8364   1.302   0.524   2.795 -0.0302 -0.3259  0.2119
 8365W        W 8365   3.625   4.098   6.762 -0.1181 -0.0834 -0.2908
 8366W        W 8366   4.708   4.039   0.215 -0.0661 -0.1041  0.0970
 8367W        W 8367   8.081   8.323   7.802  0.1711  0.0967 -0.1285
 8368W        W 8368   0.944   5.012   8.148  0.0265  0.0210  0.0213
 8369W        W 8369   5.352   2.616   9.302 -0.2091  0.0070  0.0364
 8370W        W 8370   7.224   6.948   6.163 -0.0451  0.2288  0.2403
 8371W        W 8371   8.627   3.267   1.260  0.2150  0.0246  0.0275
 8372W        W 8372   9.143   0.193   2.457 -0.0629 -0.1534  0.1375
 8373W        W 8373   7.998   9.853   5.622  0.0200 -0.3486  0.0600
 8374W        W 8374   8.515   2.453   0.807 -0.2704  0.2227 -0.0504
 8375W        W 8375   1.704   6.353   5.443  0.0835  0.1226  0.1848
 8376W        W 8376   6.487   8.949   4.355 -0.0582  0.1625  0.0434
 8377W        W 8377   0.301   2.539   0.935  0.0624  0.2396 -0.0957
 8378W        W 8378   4.788   2.179   3.183  0.0961 -0.1898  0.0207
 8379W        W 8379   2.818   8.123   1.838 -0.1926 -0.0555  0.1018
 8380W        W 8380   1.287   7.643   5.708 -0.1197 -0.0281 -0.0003
 8381W        W 8381   4.628   6.763   0.683  0.3169  0.2670  0.0604
 8382W        W 8382   4.208   7.023   7.093 -0.3388 -0.0826  0.3454
 8383W        W 8383   5.447   7.259   7.227 -0.0012 -0.4046  0.1731
 8384W        W 8384   3.065   6.523   7.874  0.3868  0.3197  0.2522
 8385W        W 8385   0.239  10.266   9.540  0.1518 -0.0317 -0.1783
 8386W        W 8386   7.645   4.576   6.339 -0.2177 -0.0005  0.1512
 8387W        W 8387   7.079   9.846   5.074  0.1970 -0.3633 -0.1972
 8388W        W 8388   7.030   3.685   0.348 -0.1180 -0.2450 -0.1208
 8389W        W 8389   0.437  10.272   5.743 -0.4190 -0.0135  0.0468
 8390W        W 8390  10.218   2.084   0.426  0.0127  0.1724  0.0163
 8391W        W 8391   4.276   4.776   2.289  0.0108 -0.1578 -0.0473
 8392W        W 8392   8.242   5.103   1.792  0.0130 -0.0112 -0.0254
 8393W        W 8393   8.045   3.385   7.913  0.2265 -0.2421 -0.0966
 8394W        W 8394   1.932   0.692   9.824  0.2175 -0.0765  0.2069
 8395W        W 8395   8.240   5.066   8.716  0.3573  0.0931 -0.0236
 8396W        W 8396   7.594   7.063   9.014  0.0701  0.0100  0.0522
 8397W        W 8397   0.787   7.308   5.748 -0.1573 -0.0215 -0.0029
 8398W        W 8398   3.553   6.360   9.412  0.4907 -0.2439  0.1620
 8399W        W 8399   2.027   1.203   6.986 -0.1003  0.0654 -0.0133
 8400W        W 8400   8.618   1.688   6.933  0.3202  0.2999  0.1136
 8401W        W 8401   4.613   9.106   2.208 -0.1518  0.1125  0.0079
 8402W        W 8402   0.029   4.483   6.900 -0.0628 -0.1359  0.0990
 8403W        W 8403   7.618   1.827   2.706 -0.0643 -0.1884 -0.0683
 8404W        W 8404   4.862   3.102   0.067  0.2311 -0.0571 -0.1580
 8405W        W 8405   8.418   4.766   5.825  0.2643  0.2376 -0.1440
 8406W        W 8406   8.614   2.937   1.843 -0.0597 -0.2611 -0.0103
 8407W        W 8407   3.744   5.648   0.604 -0.1849  0.3394 -0.3047
 8408W        W 8408   4.337   5.802   8.407 -0.0265  0.0461 -0.0256
 8409W        W 8409   5.940   0.591   1.827  0.2234  0.1962  0.2906
 8410W        W 8410   6.579   3.006   1.096 -0.0095  0.0061  0.0860
 8411W        W 8411   7.967   8.423   6.634  0.0084  0.2379 -0.0489
 8412W        W 8412   9.035   2.987   5.447  0.1363  0.1223 -0.1478
 8413W        W 8413   4.045   8.097   7.874  0.0168 -0.0037 -0.0745
 8414W        W 8414   5.654   8.733   5.836 -0.0098 -0.1215  0.0403
 8415W        W 8415   1.080   2.466   5.403  0.2666 -0.1243  0.2721
 8416W        W 8416   0.844   8.753   1.552 -0.1738 -0.0951 -0.0849
 8417W        W 8417   2.425   0.561   7.706  0.0640  0.3235 -0.1060
 8418W        W 8418   4.918   0.870   3.964  0.1329  0.2229  0.1685
 8419W        W 8419   9.847   1.261   9.097 -0.1990  0.2108  0.1504
 8420W        W 8420   9.164   7.557   7.996 -0.0354  0.1382  0.3352
 8421W        W 8421   3.536   8.376  10.251  0.2585  0.0535  0.2525
 8422W        W 8422   8.880   9.532   8.469 -0.1506  0.0442  0.1762
 8423W        W 8423   9.694   0.272   4.927 -0.0103 -0.0531 -0.0026
 8424W        W 8424   9.144   3.272   8.506  0.0314 -0.0073  0.1989
 8425W        W 8425   9.562   9.960   8.048 -0.3770  0.3363 -0.0696
 8426W        W 8426   8.349   0.434   6.573  0.0326  0.2482 -0.1594
 8427W        W 8427   1.530   8.658   6.309 -0.2527  0.0754 -0.0090
 8428W        W 8428   8.859   6.480   2.770 -0.0669  0.3315 -0.1617
 8429W        W 8429   0.770   1.217   3.047 -0.1431  0.0595  0.4855
 8430W        W 8430   5.229   5.653   7.273 -0.2404 -0.1882 -0.2501
 8431W        W 8431   8.411   9.109   5.030  0.0539 -0.0560 -0.1402
 8432W        W 8432   6.837   7.076   2.357  0.0150  0.0045 -0.1926
 8433W        W 8433   9.616   1.505   5.136 -0.1571  0.3196  0.0754
 8434W        W 8434   7.746   7.622   5.177  0.0044  0.2634  0.2285
 8435W        W 8435   3.286   4.241   4.173 -0.0566  0.0241  0.0726
 8436W        W 8436   6.042   1.497   8.097  0.2034 -0.1994 -0.0911
 8437W        W 8437   5.049   5.615   3.610  0.1685  0.0874 -0.0852
 8438W        W 8438   2.789   4.458   1.584 -0.0701  0.0686 -0.2310
 8439W        W 8439   4.852   5.504   2.454 -0.2644 -0.0047 -0.2440
 8440W        W 8440   1.287   5.529   5.134 -0.1065  0.0134  0.2293
 8441W        W 8441   5.194   5.815   2.685  0.2262 -0.0135 -0.1584
 8442W        W 8442   8.358   8.715   6.495 -0.1776 -0.1474 -0.0953
 8443W        W 8443   2.614   1.958   2.378  0.0475  0.1312 -0.4024
 8444W        W 8444   6.398   0.678   3.392 -0.0287  0.0082  0.2603
 8445W        W 8445   9.028   3.531   5.516  0.0385 -0.1299 -0.0950
 8446W        W 8446   5.822   9.078   2.760  0.1668 -0.0178 -0.1326
 8447W        W 8447   6.735   4.174   8.657 -0.3385  0.2953 -0.0645
 8448W        W 8448   8.429   9.680   7.786  0.0137 -0.0824 -0.0509
 8449W        W 8449   5.894   6.341   5.328  0.3377 -0.0422 -0.1461
 8450W        W 8450   9.367   8.880   4.673 -0.2018  0.3212 -0.2255
 8451W        W 8451   4.577   4.898   0.053  0.2342  0.1125 -0.1975
 8452W        W 8452   9.621   6.986   2.791 -0.1521 -0.1056  0.1520
 8453W        W 8453   3.769   2.183   8.612 -0.1064 -0.1658 -0.0060
 8454W        W 8454   3.444   7.701   9.901  0.0631 -0.1352  0.0741
 8455W        W 8455   5.871   6.731   7.799  0.0705  0.0051  0.0646
 8456W        W 8456   0.744   7.759   0.469 -0.0065 -0.2186 -0.1107
 8457W        W 8457   2.002   0.520   8.052  0.1346  0.1829 -0.0869
 8458W        W 8458   5.473   0.950   2.068 -0.0096 -0.1729 -0.2593
 8459W        W 8459   3.664   7.808   8.924  0.0671  0.1021  0.1107
 8460W        W 8460   6.723   6.627   4.071 -0.1309 -0.0909  0.2480
 8461W        W 8461   2.707   0.145   7.740 -0.4741  0.0319  0.0891
 8462W        W 8462   5.208   8.364   2.370  0.0766  0.2017  0.2232
 8463W        W 8463   4.993   5.145   8.752  0.1407  0.0670  0.2760
 8464W        W 8464   4.379   3.022   2.070 -0.2604  0.1287  0.0740
 8465W        W 8465   9.761   1.703   9.343 -0.0635 -0.1800  0.0103
 8466W        W 8466  10.290   6.391   7.592  0.5678  0.2384 -0.3247
 8467W        W 8467   5.868   4.958   4.106 -0.2134 -0.2818 -0.1934
 8468W        W 8468   1.141   9.289   5.191 -0.1124 -0.1697 -0.1878
 8469W        W 8469   3.837   0.901   9.679  0.1031  0.0814  0.0595
 8470W        W 8470   5.302   9.552   3.925 -0.1317 -0.1133 -0.1447
 8471W        W 8471   8.510   3.309   7.740  0.1376  0.1585 -0.0691
 8472W        W 8472   1.910   8.418   6.805  0.1369 -0.0643  0.2293
 8473W        W 8473   4.858   4.569   6.834 -0.2038 -0.0056  0.1125
 8474W        W 8474   0.651   1.272   5.767 -0.1257 -0.1450 -0.1756
 8475W        W 8475   6.671   9.822   4.137  0.0311 -0.0373 -0.1577
 8476W        W 8476   4.442   9.884   0.427  0.0341  0.2415 -0.3368
 8477W        W 8477   0.047  10.204   1.970 -0.0242 -0.1596  0.1809
 8478W        W 8478   8.519   5.153   7.752 -0.0263  0.2687 -0.1887
 8479W        W 8479   8.483   0.995   0.192 -0.0314 -0.1485 -0.1535
 8480W        W 8480   1.685   6.224   9.385 -0.0805 -0.1178  0.1281
 8481W        W 8481   9.906   9.163   0.621 -0.1437  0.0504  0.0310
 8482W        W 8482   0.502   7.313   0.301 -0.0898  0.0453 -0.3810
 8483W        W 8483   4.464   7.260   0.541 -0.1467 -0.0968  0.1606
 8484W        W 8484   8.531   3.249   6.384  0.2784  0.2087  0.0238
 8485W        W 8485   3.205   2.990   2.662 -0.0339  0.4653 -0.2358
 8486W        W 8486   6.381   3.884   8.936 -0.0850 -0.1027 -0.0963
 8487W        W 8487   7.195   4.850   8.734  0.1602 -0.0872  0.0377
 8488W        W 8488   7.800   8.623   2.210  0.1265  0.2737 -0.0691
 8489W        W 8489   2.575   0.595   5.714 -0.0385 -0.3864 -0.2805
 8490W        W 8490   0.349   5.513   5.021  0.0270 -0.0485 -0.0715
 8491W        W 8491   5.068   7.329   5.748 -0.2950  0.1308 -0.2018
 8492W        W 8492   7.260   9.617   2.114  0.3261 -0.1788  0.0035
 8493W        W 8493   7.094   5.959   2.714  0.3114 -0.0772 -0.1014
 8494W        W 8494   3.104   4.221   7.549  0.1250  0.0799  0.2664
 8495W        W 8495   0.980   3.459   3.803 -0.1498  0.1035  0.1503
 8496W        W 8496   6.769   8.819   1.117  0.0556 -0.2239 -0.3064
 8497W        W 8497   9.432   1.909   8.731 -0.0833 -0.0503  0.0039
 8498W        W 8498   7.902   4.021   9.593 -0.2145  0.2841 -0.1180
 8499W        W 8499   3.880  10.088   9.875 -0.0029  0.0100  0.2938
 8500W        W 8500   4.646   5.819   4.932  0.3702  0.1372  0.0081
 8501W        W 8501   6.853   2.659   4.566 -0.4023 -0.2050  0.1921
 8502W        W 8502   2.851   6.727   8.266 -0.0575  0.2730 -0.1397
 8503W        W 8503   6.703   5.959   1.718 -0.0674  0.0960 -0.2455
 8504W        W 8504   6.343   3.004   7.839  0.2276 -0.2182  0.0104
 8505W        W 8505   8.374   7.772   5.846  0.1478 -0.2015 -0.1304
 8506W        W 8506   7.479   7.947   3.808  0.0062  0.2217  0.2613
 8507W        W 8507   7.327   9.597   0.763 -0.1581  0.0439  0.0876
 8508W        W 8508   1.680   3.943   6.206 -0.3109  0.0328 -0.3786
 8509W        W 8509   8.015   4.236   4.120  0.1541 -0.0625 -0.4038
 8510W        W 8510   7.480   3.103   9.406 -0.1332  0.1165 -0.0716
 8511W        W 8511  10.060   0.935   6.435  0.0243 -0.1379  0.2260
 8512W        W 8512   3.467   7.661   5.457 -0.0367  0.0561  0.2938
 8513W        W 8513   3.030   1.956   7.325 -0.2028 -0.1481 -0.3294
 8514W        W 8514   2.900   4.468   4.481  0.0487  0.0561 -0.0530
 8515W        W 8515   9.354   3.021   3.868  0.2275 -0.1905  0.0512
 8516W        W 8516   6.912  10.117   9.523  0.2354 -0.1448  0.0790
 8517W        W 8517   2.701   2.794   7.835 -0.1154  0.1160 -0.2984
 8518W        W 8518   7.528   2.785   2.705  0.1887 -0.0135  0.0279
 8519W        W 8519   4.960   1.908   0.715  0.1562 -0.1170 -0.1431
 8520W        W 8520   4.371   7.064   6.448  0.1511 -0.0543  0.3435
 8521W        W 8521   1.487   2.059   1.655 -0.0527 -0.0344  0.2234
 8522W        W 8522   4.377   4.573   5.937 -0.1236  0.1719 -0.1707
 8523W        W 8523   1.354   8.710   4.293  0.0956 -0.1120  0.1515
 8524W        W 8524   1.858   3.802   6.719  0.0954  0.5297 -0.2356
 8525W        W 8525   4.824   1.818   5.519 -0.4271  0.2796  0.2487
 8526W        W 8526   5.648   3.984   7.791 -0.1565 -0.2640 -0.1635
 8527W        W 8527   0.904   9.223   8.489  0.1988 -0.0002 -0.0248
 8528W        W 8528   3.853   2.732   3.839 -0.0704  0.2254 -0.1609
 8529W        W 8529   8.267   4.108   5.255  0.1331  0.0162 -0.0773
 8530W        W 8530   7.407   9.640   2.815 -0.0677 -0.1590  0.0568
 8531W        W 8531   6.200   4.380   6.435 -0.0199  0.0302 -0.0261
 8532W        W 8532   1.724   2.331   6.927 -0.0073 -0.3298 -0.2456
 8533W        W 8533   3.871   5.227   1.201 -0.1420  0.0303  0.0898
 8534W        W 8534   3.243   9.525   7.490  0.1483  0.0910  0.1958
 8535W        W 8535   4.853   3.690   5.624 -0.1519  0.4033  0.1244
 8536W        W 8536   2.073   9.608   7.666 -0.2679  0.1608 -0.0746
 8537W        W 8537   1.724   1.920   5.473  0.0498  0.0662  0.0014
 8538W        W 8538   8.728   3.340   2.164 -0.2509 -0.0065 -0.1037
 8539W        W 8539   9.945   7.289   9.542  0.0997  0.0177  0.0816
 8540W        W 8540   9.569   3.009   4.529  0.3121  0.0966  0.0957
 8541W        W 8541   3.699   9.083   6.380  0.1155 -0.0043 -0.4062
 8542W        W 8542   5.703   8.816   7.670  0.0232  0.0362 -0.0952
 8543W        W 8543   7.731   3.170   6.363 -0.1700  0.1547  0.0335
 8544W        W 8544   1.943   6.279   1.604  0.3041  0.1754  0.1077
 8545W        W 8545   3.240   6.649   7.286 -0.3585 -0.0618  0.2198
 8546W        W 8546   7.833   6.872   0.509 -0.0837  0.0192 -0.2167
 8547W        W 8547   7.279   2.164   0.683 -0.1198  0.0069  0.3095
 8548W        W 8548   8.959   4.781   6.412 -0.0402  0.0435 -0.0063
 8549W        W 8549   7.726   0.258  10.121  0.1624  0.3034  0.0680
 8550W        W 8550   6.977   8.456   3.479  0.0064  0.1673  0.0615
 8551W        W 8551   4.825   7.942   4.712  0.2098  0.1341  0.2191
 8552W        W 8552   8.423   1.941   2.986  0.3243  0.4031 -0.1961
 8553W        W 8553   4.904   5.401   0.315  0.0032 -0.0309  0.2095
 8554W        W 8554   3.560   4.523   9.935 -0.1389  0.0467  0.0003
 8555W        W 8555   8.168   1.408   9.711 -0.0060  0.1729 -0.2429
 8556W        W 8556   3.266   8.573   7.650 -0.1384 -0.0017 -0.0346
 8557W        W 8557   5.036   5.611   1.493 -0.0169  0.2223 -0.1072
 8558W        W 8558   6.472   6.268   1.997 -0.1126  0.0146 -0.3468
 8559W        W 8559   6.150   7.254  10.130 -0.1134  0.4816 -0.0593
 8560W        W 8560   4.313   6.744   3.709  0.0700 -0.1240  0.0681
 8561W        W 8561   2.022  10.244   1.463  0.2590 -0.0186 -0.0324
 8562W        W 8562   2.940   1.533   9.541  0.1195  0.2613  0.2162
 8563W        W 8563   6.873   3.856   2.721  0.1441 -0.2611  0.0273
 8564W        W 8564   0.156   6.844   9.421 -0.0355  0.0398 -0.0133
 8565W        W 8565   3.727   7.235   5.434 -0.0928  0.1861 -0.2341
 8566W        W 8566   5.806   5.961   6.734  0.1834  0.1350  0.2465
 8567W        W 8567   1.679   9.444  10.181  0.3706  0.0615  0.5082
 8568W        W 8568   8.295   5.656   1.005 -0.2411  0.0892 -0.2151
 8569W        W 8569   0.774   7.406   1.381 -0.0963 -0.0064  0.0102
 8570W        W 8570   8.089   4.597   5.456 -0.2237 -0.1514 -0.3368
 8571W        W 8571  10.280   3.226  10.036 -0.1332  0.2530 -0.1113
 8572W        W 8572   5.322   1.822   5.671  0.1921  0.0571 -0.0856
 8573W        W 8573   4.857   7.478   9.856 -0.1201 -0.0985  0.2217
 8574W        W 8574   1.171   9.534   6.254 -0.1392 -0.0929  0.0179
 8575W        W 8575   8.338   1.540   5.189  0.5086  0.1192 -0.0400
 8576W        W 8576   9.559   4.047  10.049  0.0992  0.0179  0.0589
 8577W        W 8577   2.099   4.472   0.245  0.2304  0.1981  0.2090
 8578W        W 8578   6.810   7.332   2.757  0.5718  0.2208 -0.2934
 8579W        W 8579   8.122   1.515   8.714  0.0789  0.2929 -0.2266
 8580W        W 8580   0.121   6.967   3.932  0.1046  0.0678 -0.2016
 8581W        W 8581   9.553   3.930   9.142 -0.0871  0.0271 -0.2582
 8582W        W 8582   7.437   6.515   0.847  0.2191 -0.2092  0.0997
 8583W        W 8583   7.555   3.931   7.044 -0.0208 -0.1371  0.0624
 8584W        W 8584   6.952   2.896   1.485  0.0168 -0.0181  0.0120
 8585W        W 8585   9.402   4.540   4.138 -0.1549 -0.1114 -0.2407
 8586W        W 8586   9.362   9.514   8.170  0.0054 -0.0887  0.1048
 8587W        W 8587   6.412   4.168   6.055 -0.1973  0.4339 -0.3010
 8588W        W 8588   1.215   5.408   6.673  0.2080 -0.3913  0.1352
 8589W        W 8589   7.048   0.656   4.150  0.2286 -0.0598  0.1693
 8590W        W 8590   6.266   8.010   9.645  0.0694  0.1043 -0.2183
 8591W        W 8591   0.578   1.673   6.048  0.0624 -0.0705  0.1615
 8592W        W 8592   3.238   1.213   4.598  0.0559 -0.3766 -0.3561
 8593W        W 8593   6.162   1.755   7.683 -0.2573  0.0892 -0.1127
 8594W        W 8594   4.118   8.931   9.525 -0.6004 -0.1165 -0.0552
 8595W        W 8595   1.395   8.506   6.741  0.1402  0.1264  0.1666
 8596W        W 8596   1.140   9.495   3.263 -0.1536 -0.0239 -0.0710
 8597W        W 8597   7.874   1.093   2.843  0.0978  0.2485  0.1085
 8598W        W 8598   8.909   1.244   2.368  0.2345  0.1240 -0.1206
 8599W        W 8599   8.655   1.997   9.295  0.1883  0.2938  0.0968
 8600W        W 8600   4.074   1.889   9.569 -0.3250  0.0166 -0.0146
 8601W        W 8601   5.046   2.894   8.545  0.1026 -0.3055 -0.0268
 8602W        W 8602   4.590   1.100   4.213  0.1828  0.1971  0.2632
 8603W        W 8603   2.869   4.025   3.374  0.3575  0.0096 -0.1585
 8604W        W 8604   6.382   9.703   5.201  0.2611  0.0311 -0.1332
 8605W        W 8605   4.719   1.020   7.043 -0.2785  0.0483  0.0430
 8606W        W 8606   2.047   7.090   2.272 -0.0121 -0.0936  0.3063
 8607W        W 8607   6.519   4.214   3.262  0.0516  0.1685  0.2149
 8608W        W 8608   1.587   9.255   5.490 -0.1792 -0.0350  0.0456
 8609W        W 8609   8.414   4.678   0.956 -0.1177  0.0624  0.2732
 8610W        W 8610   0.741   1.589   1.884 -0.2905 -0.1822  0.0124
 8611W        W 8611   6.778   5.336   2.098 -0.0475  0.1947  0.1452
 8612W        W 8612   5.999   0.185   2.694  0.2165 -0.2114  0.3464
 8613W        W 8613   3.587   8.516   1.422 -0.1914 -0.0626  0.0832
 8614W        W 8614   9.069   9.000   5.286 -0.1551 -0.0826 -0.2834
 8615W        W 8615   5.394   6.431   7.894  0.1151  0.0788  0.0288
 8616W        W 8616   7.487   9.953   8.747  0.2245  0.4993  0.2006
 8617W        W 8617   4.123   6.114   6.619  0.1640 -0.2725 -0.0926
 8618W        W 8618   9.212   8.602   5.846 -0.0277 -0.0454 -0.0786
 8619W        W 8619   2.534   3.910   8.294 -0.1797 -0.0454  0.0599
 8620W        W 8620   2.025   1.537   6.591 -0.2219 -0.0262  0.1725
 8621W        W 8621   9.853   1.489   1.549  0.1794  0.0539 -0.1447
 8622W        W 8622   9.237   0.879   6.252 -0.2962  0.0520  0.0809
 8623W        W 8623   7.745   2.614   1.491  0.1062 -0.1466 -0.0664
 8624W        W 8624   2.513   8.440   1.581  0.3977 -0.1157 -0.0205
 8625W        W 8625   5.288   9.757   7.642 -0.0642  0.0149 -0.3049
 8626W        W 8626   5.330   8.321   6.678 -0.1128  0.1746  0.1437
 8627W        W 8627   4.558   7.323  10.250  0.0693  0.3014  0.0503
 8628W        W 8628   7.719  10.316   4.358 -0.2164 -0.0321 -0.1323
 8629W        W 8629   5.522   3.283   7.546 -0.0327 -0.3114  0.1047
 8630W        W 8630   9.071   0.430   6.087 -0.0932 -0.0992  0.0019
 8631W        W 8631   1.380   7.492   7.298  0.1127  0.0335 -0.1840
 8632W        W 8632   3.540   6.107  10.281  0.0245 -0.3819  0.0691
 8633W        W 8633   4.405   5.970   7.919 -0.1065 -0.0896  0.3391
 8634W        W 8634   4.824   1.043   6.035 -0.2698  0.1810  0.1986
 8635W        W 8635   3.462   2.415   9.344  0.0203  0.2408 -0.0842
 8636W        W 8636   4.685   4.315   3.356  0.1047  0.1648  0.0995
 8637W        W 8637   2.188   0.122   2.903  0.2331  0.4032 -0.0286
 8638W        W 8638   5.751   9.185   8.088  0.3891 -0.3047 -0.0030
 8639W        W 8639   0.077  10.102   8.226  0.4987 -0.3231 -0.0179
 8640W        W 8640   5.551   3.814   7.310 -0.0759 -0.4064  0.1915
 8641W        W 8641   0.801   1.037   6.979  0.2641  0.1217 -0.2738
 8642W        W 8642   3.708   7.819   9.503  0.1634 -0.1124  0.0621
 8643W        W 8643   0.733   7.071   2.913  0.1801 -0.0474  0.2774
 8644W        W 8644   3.177   7.165   7.284 -0.1431 -0.2082  0.0449
 8645W        W 8645   6.066   8.796   5.025  0.2689  0.0769  0.2149
 8646W        W 8646   2.245   6.872   9.298  0.2110  0.2714  0.1864
 8647W        W 8647   9.447   1.014   7.082  0.0625 -0.0901  0.1022
 8648W        W 8648   0.186   7.645   0.530 -0.0264  0.2051 -0.0092
 8649W        W 8649   0.074   3.007   7.959 -0.0646  0.1558  0.0628
 8650W        W 8650   1.968   2.325   1.866  0.0458  0.2115 -0.1559
 8651W        W 8651   9.878   9.160   1.143 -0.0616  0.0205  0.0199
 8652W        W 8652   7.309   0.078   5.640 -0.0268 -0.3464  0.4462
 8653W        W 8653   0.504   0.803   2.961 -0.0564  0.1692  0.0128
 8654W        W 8654   3.091   9.362   4.137 -0.3380 -0.4197 -0.2571
 8655W        W 8655   3.329   9.048   6.806 -0.0129  0.0087  0.2233
 8656W        W 8656   6.820   7.000   4.446 -0.1078 -0.0072  0.1009
 8657W        W 8657   0.309   3.416   6.095 -0.0755 -0.2547 -0.2055
 8658W        W 8658   5.896   3.388   3.788  0.0412  0.2282 -0.0041
 8659W        W 8659   2.449   9.766   6.771  0.0982  0.1545  0.0106
 8660W        W 8660   6.755   3.946   0.905 -0.2569  0.0712 -0.4443
 8661W        W 8661   3.407   9.441   5.998 -0.1103 -0.0733  0.2837
 8662W        W 8662   0.587   4.373   8.886  0.1748  0.3382  0.1371
 8663W        W 8663   8.832   1.795   4.607 -0.2070  0.1448  0.0281
 8664W        W 8664   3.470   3.251   5.423  0.2022  0.2162 -0.3353
 8665W        W 8665   7.709   2.610   8.226 -0.2950  0.1779 -0.2272
 8666W        W 8666   4.605   5.855   3.477 -0.1951  0.0167  0.2985
 8667W        W 8667   6.235  10.034   2.279 -0.2530  0.2554  0.1739
 8668W        W 8668  10.115   0.253   8.840  0.1213  0.0527  0.0857
 8669W        W 8669   1.832   7.042   0.680  0.0112 -0.1530 -0.2154
 8670W        W 8670   9.146   8.320   4.594  0.3770 -0.3080  0.0417
 8671W        W 8671   7.479   2.633   1.053 -0.0923 -0.1000  0.1379
 8672W        W 8672   3.327   9.711   7.988 -0.4453 -0.0646 -0.1944
 8673W        W 8673   2.837   3.339  10.127 -0.0788 -0.0556 -0.1262
 8674W        W 8674   1.888   7.960   4.614  0.3620  0.0496 -0.2053
 8675W        W 8675   6.990   5.910   3.199 -0.2159 -0.0539  0.2323
 8676W        W 8676   3.766   1.798   5.120 -0.0162  0.0635 -0.1251
 8677W        W 8677   5.790   4.319   9.789 -0.0938 -0.2777 -0.1141
 8678W        W 8678   9.374   1.004   9.699 -0.0500 -0.0789  0.0511
 8679W        W 8679   8.908   1.607   8.375  0.1802 -0.3795 -0.0575
 8680W        W 8680   3.360   8.229   1.806 -0.1187 -0.1152  0.1219
 8681W        W 8681   3.450   6.487   3.887  0.1144 -0.1493  0.1132
 8682W        W 8682   2.312   4.915   8.309  0.1909  0.1655  0.0179
 8683W        W 8683   7.851   6.352   6.841  0.0199  0.0453 -0.2486
 8684W        W 8684   3.146  10.231   5.379  0.1597  0.0032  0.0764
 8685W        W 8685   3.862   9.679   8.843 -0.2137 -0.2624 -0.1335
 8686W        W 8686   0.975   3.080   1.804  0.2524 -0.1651  0.1972
 8687W        W 8687   6.952   2.086   9.990  0.0218  0.1032 -0.0728
 8688W        W 8688   6.590   9.534   9.833 -0.1425  0.2058 -0.0309
 8689W        W 8689   1.116   1.164   5.570 -0.0916  0.0260  0.0651
 8690W        W 8690   8.064   2.350   2.213 -0.0049  0.1609  0.4199
 8691W        W 8691   3.259   7.231   9.963  0.1820  0.2823  0.0490
 8692W        W 8692   4.548   4.915   9.909 -0.1850  0.0631  0.0753
 8693W        W 8693   7.779   4.289   6.732 -0.0630 -0.2300  0.1232
 8694W        W 8694   9.978   5.164   7.563 -0.0351  0.1194 -0.2145
 8695W        W 8695   2.042   3.675   3.106 -0.3746  0.1412  0.0350
 8696W        W 8696   0.560  10.040   3.680  0.1952  0.1592 -0.1414
 8697W        W 8697   3.800   7.206   9.930 -0.0740  0.0547  0.0023
 8698W        W 8698   4.360   7.805   5.902 -0.2264  0.3470 -0.0445
 8699W        W 8699   8.865   8.830   3.830 -0.1113  0.1441 -0.0903
 8700W        W 8700   5.085   3.753   1.644  0.0479  0.2098 -0.1425
 8701W        W 8701   5.562   4.718  10.140  0.0694 -0.0432  0.1135
 8702W        W 8702   1.750   3.356   0.255  0.3315  0.0497 -0.0931
 8703W        W 8703   6.468   6.200   2.536  0.2293 -0.0644 -0.1794
 8704W        W 8704  10.237   6.783   6.757 -0.2234  0.0359 -0.0921
 8705W        W 8705   8.060   2.020   2.605  0.5632 -0.3620 -0.2024
 8706W        W 8706   7.015   8.313   6.734 -0.0918  0.0365  0.0126
 8707W        W 8707   0.951   0.273   8.765 -0.1456  0.0347  0.2348
 8708W        W 8708   8.119   4.382   6.427 -0.1568 -0.1161  0.1915
 8709W        W 8709   7.084   4.740   4.142  0.1085  0.0927  0.0989
 8710W        W 8710   4.120   9.405   5.626 -0.2091  0.1388 -0.0305
 8711W        W 8711   9.643   5.445   7.378  0.1457  0.1216  0.3509
 8712W        W 8712   1.026   5.440   4.042  0.0930  0.0380  0.2487
 8713W        W 8713   3.307   2.732  10.305  0.0134 -0.1792  0.2952
 8714W        W 8714   7.018   9.264   5.783 -0.2815 -0.0634 -0.3549
 8715W        W 8715  10.064   2.561   3.089 -0.2259 -0.1215  0.3096
 8716W        W 8716   6.464   6.554   6.424 -0.0788  0.2628  0.2609
 8717W        W 8717   3.991   2.338   0.578  0.1524 -0.2057 -0.1859
 8718W        W 8718   0.080   0.441   7.194 -0.2086 -0.2009 -0.0667
 8719W        W 8719   0.870  10.043   6.938  0.0443  0.1374 -0.0091
 8720W        W 8720   6.726   0.329   5.080 -0.0844  0.0837 -0.2720
 8721W        W 8721   7.736   6.543   7.943  0.1464 -0.0148 -0.0382
 8722W        W 8722   3.889   3.230   2.173  0.2895  0.1420 -0.0656
 8723W        W 8723   3.045   1.488   9.023 -0.3240 -0.2260  0.0011
 8724W        W 8724   8.186   6.331   9.388 -0.2399 -0.2858 -0.0674
 8725W        W 8725   0.368   2.837   9.226  0.2110  0.0601  0.0371
 8726W        W 8726   3.485   0.131   5.162  0.3465  0.2479  0.3212
 8727W        W 8727   8.496   8.436   0.593  0.2029 -0.0908  0.0462
 8728W        W 8728   6.683   9.742   9.241 -0.2313  0.0197  0.0579
 8729W        W 8729   6.120   1.613   7.207 -0.3251 -0.0584  0.4306
 8730W        W 8730   4.322   7.228   1.907  0.1853 -0.0230  0.0974
 8731W        W 8731   7.746   4.683   8.124 -0.0964 -0.1604  0.1023
 8732W        W 8732   8.967   8.970   1.446 -0.0400  0.0924  0.0352
 8733W        W 8733   6.088   8.421   5.836 -0.0603  0.1696  0.0078
 8734W        W 8734   1.388   1.468   9.916 -0.3223 -0.0610 -0.1441
 8735W        W 8735  10.066   8.343   8.453  0.1996  0.0939 -0.0927
 8736W        W 8736   5.592  10.074   8.457  0.1386  0.3719 -0.2806
 8737W        W 8737   2.491   0.616   6.196  0.1870  0.0053  0.1962
 8738W        W 8738   6.765   6.227   4.475  0.2027  0.0664  0.2462
 8739W        W 8739   6.868   5.121   8.339 -0.0756  0.0538  0.0495
 8740W        W 8740   5.053   4.139   7.035  0.4330  0.4441 -0.0744
 8741W        W 8741   5.390   9.494   9.942 -0.0560  0.1604 -0.3236
 8742W        W 8742   7.567   3.500   0.446 -0.1270  0.0791 -0.0380
 8743W        W 8743   8.588   9.164   7.861  0.0139  0.0378  0.0488
 8744W        W 8744   6.352   7.803  10.089 -0.1797 -0.2957 -0.3253
 8745W        W 8745   3.590   3.328   3.242 -0.1917 -0.0671  0.1532
 8746W        W 8746   5.806   7.583   5.346 -0.1036 -0.1674 -0.1321
 8747W        W 8747   0.470   1.729   2.423  0.1094 -0.1418  0.2845
 8748W        W 8748   6.959   5.702   1.347 -0.5124  0.2942 -0.2119
 8749W        W 8749   7.817   8.282   0.611 -0.2500 -0.3572  0.3516
 8750W        W 8750   8.041   8.479   5.618  0.2031 -0.1787  0.1874
 8751W        W 8751   5.444   5.860   4.711 -0.1808 -0.0353 -0.4101
 8752W        W 8752   6.617   6.127   6.646  0.1920  0.0040  0.1060
 8753W        W 8753   0.772   7.234  10.208 -0.1765 -0.0906 -0.0036
 8754W        W 8754   0.840   0.512   2.740 -0.2400 -0.0343  0.3596
 8755W        W 8755   9.914   0.447   8.119  0.1809 -0.0004 -0.2459
 8756W        W 8756   8.591   0.071   9.486 -0.0776  0.0544 -0.2260
 8757W        W 8757   3.995   4.020   1.565 -0.0980  0.0275  0.0416
 8758W        W 8758  10.155   8.651   6.977  0.2637 -0.0009 -0.0537
 8759W        W 8759   2.278   2.610   7.040 -0.0746  0.0636 -0.2149
 8760W        W 8760   4.536   0.926   1.845  0.0180 -0.2009  0.4765
 8761W        W 8761   9.526   7.860   8.060 -0.2181 -0.1132  0.1779
 8762W        W 8762   6.466   9.095   4.809 -0.2061 -0.2488  0.1111
 8763W        W 8763   6.347   2.651   5.350 -0.3384 -0.1480  0.0717
 8764W        W 8764   8.193   7.257   7.344  0.3380  0.1677  0.4198
 8765W        W 8765   9.394   6.600   5.795 -0.0403 -0.0606 -0.0258
 8766W        W 8766   1.751   5.401   3.459  0.1519  0.1958 -0.3307
 8767W        W 8767   5.559   5.529   8.034  0.4145 -0.0893 -0.1829
 8768W        W 8768   5.963   1.009   1.140  0.0956  0.1898  0.0219
 8769W        W 8769   4.955   9.699   8.082 -0.1678  0.1726 -0.1222
 8770W        W 8770   3.121   6.894   0.511  0.4849 -0.1209 -0.0739
 8771W        W 8771   2.793   7.525   5.135  0.1158 -0.2262  0.1427
 8772W        W 8772   1.462   9.128   3.142  0.0813  0.0788 -0.0441
 8773W        W 8773   5.054   7.560   1.619 -0.1715  0.2993  0.3507
 8774W        W 8774   8.880  10.023   9.333 -0.0316  0.1050 -0.0420
 8775W        W 8775   1.428  10.248   1.749 -0.0006 -0.0214  0.0894
 8776W        W 8776   4.604   7.017   5.624 -0.1594  0.0225 -0.0323
 8777W        W 8777   1.742   0.630   5.658  0.1726 -0.1741 -0.1011
 8778W        W 8778   4.623   6.667   4.543 -0.1631 -0.2424 -0.1796
 8779W        W 8779   4.280   4.006   2.320 -0.3176  0.3262 -0.1921
 8780W        W 8780   3.994   8.789   0.116  0.1449  0.0974  0.1455
 8781W        W 8781   1.956   8.850   2.327 -0.0512  0.3644  0.1728
 8782W        W 8782   3.304   1.933   9.216 -0.0981  0.0364  0.1496
 8783W        W 8783   1.200   2.944   5.270 -0.1643 -0.1816  0.2609
 8784W        W 8784   5.571   5.754   5.910 -0.0310 -0.0089  0.0594
 8785W        W 8785  10.032   1.802   4.356 -0.0185 -0.4620 -0.2671
 8786W        W 8786   1.651   4.374   5.879  0.0195 -0.2275  0.1494
 8787W        W 8787   2.994   8.944   8.479  0.0510  0.0655  0.1578
 8788W        W 8788   7.087   0.120   3.111 -0.0448 -0.2885 -0.0371
 8789W        W 8789   1.238   2.940  10.022 -0.0309 -0.2133  0.1601
 8790W        W 8790   2.430   1.469   5.287  0.1214  0.0040 -0.0780
 8791W        W 8791   7.340   3.802   1.883 -0.1477 -0.1108 -0.2849
 8792W        W 8792   4.086   2.096   7.405 -0.3921 -0.0186 -0.1344
 8793W        W 8793   4.365   5.813  10.089 -0.0815  0.1113  0.1944
 8794W        W 8794   7.509   6.979   1.189  0.1673  0.0499 -0.0483
 8795W        W 8795   7.791   7.974   8.725 -0.2972  0.0803 -0.0736
 8796W        W 8796   1.260   2.261   3.309  0.0233 -0.1399 -0.0375
 8797W        W 8797   1.793   9.659   1.233 -0.0453 -0.1510 -0.1770
 8798W        W 8798   8.408   2.345   6.280  0.0571  0.2575  0.0111
 8799W        W 8799   0.560   5.136   4.724  0.3746  0.0166 -0.0952
 8800W        W 8800   3.764   1.501   7.946 -0.1955  0.0130  0.1088
 8801W        W 8801   1.189   5.641   9.554 -0.0617  0.0546 -0.1275
 8802W        W 8802   1.457   8.200   4.431 -0.2171 -0.0005 -0.0559
 8803W        W 8803   8.200   9.867   7.108  0.0044  0.0927 -0.1457
 8804W        W 8804   8.734   8.565   8.091  0.2400  0.2308  0.0075
 8805W        W 8805   3.276  10.320   6.879 -0.0946 -0.0968 -0.2607
 8806W        W 8806   3.437   1.363   1.236 -0.3146  0.1998 -0.2631
 8807W        W 8807   1.440   1.826   2.593 -0.0381 -0.0829 -0.3688
 8808W        W 8808   5.478   9.243   7.577  0.1318 -0.1043  0.3084
 8809W        W 8809   1.935   9.258   1.981  0.0823  0.3745 -0.3510
 8810W        W 8810   4.511   9.399   5.239 -0.2509  0.2631  0.0306
 8811W        W 8811   6.926   4.270   6.706  0.0931  0.1469 -0.2581
 8812W        W 8812   2.772   4.866   6.229 -0.3183 -0.0100  0.2409
 8813W        W 8813   9.671   0.891   4.393  0.0663 -0.0440  0.1031
 8814W        W 8814   7.029   3.234   7.055 -0.0784  0.0635  0.1365
 8815W        W 8815   1.689   1.058   0.714  0.0026  0.0846  0.1613
 8816W        W 8816   7.032   6.115   5.069  0.4405  0.0987 -0.0632
 8817W        W 8817   1.912   8.415   7.905 -0.1269 -0.0936 -0.0376
 8818W        W 8818   0.208   5.411   0.439 -0.1453 -0.5568  0.1041
 8819W        W 8819   6.115   4.694   7.251  0.4407 -0.0582 -0.1335
 8820W        W 8820   8.773   7.201   9.840  0.3865  0.1598  0.0327
 8821W        W 8821   9.360   4.305   4.624 -0.3133  0.0047  0.1006
 8822W        W 8822   9.642   7.536   4.810 -0.2097  0.0978  0.0412
 8823W        W 8823  10.277   5.299   4.799  0.3938  0.3120 -0.0489
 8824W        W 8824   4.539   2.475  10.238 -0.0778  0.0923  0.4167
 8825W        W 8825   4.821   3.560   0.299  0.0903 -0.0188  0.2688
 8826W        W 8826   3.239   3.190   9.880  0.0203 -0.3260  0.0512
 8827W        W 8827   9.097   2.520   0.469 -0.1248  0.2010  0.0383
 8828W        W 8828   3.864   2.137   4.781  0.2431 -0.0566  0.0271
 8829W        W 8829   4.927   8.871   3.441 -0.0594  0.1484  0.5455
 8830W        W 8830   6.087   4.721   4.544  0.3225 -0.0526  0.0795
 8831W        W 8831   2.343   9.753   7.266 -0.4023 -0.1713  0.1251
 8832W        W 8832  10.108   4.589  10.218  0.1130  0.0090  0.1544
 8833W        W 8833   1.544   9.348   1.523  0.0961 -0.2588 -0.4104
 8834W        W 8834   8.394   0.921   5.015 -0.2952 -0.2249  0.2962
 8835W        W 8835   7.474   6.459   3.671  0.1074 -0.1591 -0.0378
 8836W        W 8836   5.855   4.955   3.040  0.0131  0.0566  0.0027
 8837W        W 8837   6.100   0.771   9.059  0.1400  0.2008  0.0777
 8838W        W 8838   6.638   4.288   9.208  0.0679 -0.0740  0.1415
 8839W        W 8839   5.596   8.506   5.374  0.1495 -0.1501  0.1504
 8840W        W 8840   9.219   7.816   4.669 -0.3292  0.0853  0.0743
 8841W        W 8841   3.019   2.544   7.572  0.1036 -0.0178  0.0299
 8842W        W 8842   2.252   6.810   2.628  0.2677 -0.1727 -0.3163
 8843W        W 8843   5.249   5.460   3.133  0.0176  0.0712  0.1490
 8844W        W 8844   6.622   5.605   2.559  0.1708  0.0524  0.0089
 8845W        W 8845   7.085   9.981   2.957  0.5109 -0.1377  0.0174
 8846W        W 8846   6.280   7.919   6.673  0.0626 -0.0314 -0.3226
 8847W        W 8847   9.099   0.104   9.647  0.2248  0.2189 -0.1114
 8848W        W 8848   4.358   9.639   1.277  0.1193  0.0262 -0.2973
 8849W        W 8849   7.353   9.109   8.974 -0.0276 -0.0541  0.0662
 8850W        W 8850   1.316   1.536   2.139  0.0368  0.1100  0.0943
 8851W        W 8851   3.410   6.796   8.103  0.1265 -0.1457  0.0882
 8852W        W 8852   4.599   7.947   3.160 -0.1803  0.1794 -0.1839
 8853W        W 8853   5.448   1.161   1.118  0.1412  0.0705  0.1734
 8854W        W 8854   2.699   0.533   1.542 -0.2210  0.1928  0.3834
 8855W        W 8855   0.515   7.239   4.981  0.1249 -0.1277 -0.0307
 8856W        W 8856   2.967   5.370   3.518  0.0684 -0.2510 -0.2781
 8857W        W 8857   7.143   6.220   9.601  0.0777  0.0431 -0.1885
 8858W        W 8858   0.342   8.209   7.912 -0.0799 -0.1945 -0.1335
 8859W        W 8859   4.050   8.780   8.507 -0.2435  0.0063  0.3220
 8860W        W 8860   9.040   5.337   1.224 -0.1529 -0.1462  0.2010
 8861W        W 8861   0.735   2.591   3.016  0.2076  0.2111  0.1571
 8862W        W 8862   8.263   8.889   8.986  0.2041 -0.1541  0.4941
 8863W        W 8863   5.316   9.016   3.767 -0.2092 -0.1054  0.0168
 8864W        W 8864   6.090   3.320   9.369  0.1050 -0.0530 -0.1243
 8865W        W 8865   6.187   0.170   2.147 -0.1540  0.0484  0.0450
 8866W        W 8866   4.157   2.482   1.450 -0.3783  0.0557  0.0725
 8867W        W 8867   9.938   7.340  10.268  0.1028  0.0657 -0.1570
 8868W        W 8868   2.977   2.228   2.160  0.0306 -0.1265 -0.2414
 8869W        W 8869   4.030   3.633   8.489  0.2476 -0.0684 -0.1016
 8870W        W 8870   2.189   5.833   1.520  0.0241  0.0960  0.0102
 8871W        W 8871   5.330   0.430   8.721  0.1045 -0.0062  0.0947
 8872W        W 8872   7.400   0.553   9.998  0.3100 -0.0617 -0.0626
 8873W        W 8873   8.047   2.309   3.024  0.1113 -0.1151 -0.1256
 8874W        W 8874   6.349   0.412   9.362  0.2253  0.1685  0.0885
 8875W        W 8875   0.786   5.121   2.634 -0.2491 -0.2133  0.2120
 8876W        W 8876   3.834   6.725  10.020  0.2762 -0.1276 -0.3580
 8877W        W 8877   7.355   0.325   0.696 -0.0674  0.1464  0.1451
 8878W        W 8878   4.823   2.815   6.644 -0.1439  0.1337  0.2567
 8879W        W 8879   0.571   3.223   9.452 -0.0299 -0.0495 -0.0219
 8880W        W 8880   2.238   4.147   7.782 -0.1156 -0.1519 -0.3428
 8881W        W 8881   4.403   3.875   8.085  0.1391 -0.3820 -0.2669
 8882W        W 8882   0.713   0.879   5.403 -0.0351 -0.0517  0.1130
 8883W        W 8883   3.341   8.240   4.797  0.0637 -0.0601 -0.0397
 8884W        W 8884   7.617   6.297   5.647  0.4303  0.0074  0.0746
 8885W        W 8885   2.212   8.040   5.999  0.0002  0.1981  0.1151
 8886W        W 8886   0.757   9.225   7.632 -0.1287  0.0759 -0.4043
 8887W        W 8887   5.136   9.666   9.462 -0.0043 -0.2166 -0.0139
 8888W        W 8888   9.367   5.682   0.089  0.1234 -0.0416 -0.1481
 8889W        W 8889  10.307   9.554   1.050  0.0863 -0.4605 -0.0384
 8890W        W 8890   3.847   3.386   6.244  0.0164 -0.5701 -0.0033
 8891W        W 8891   2.077   0.875   8.507 -0.1187  0.0423 -0.1951
 8892W        W 8892   3.578   9.400   5.462  0.0440 -0.0815  0.1032
 8893W        W 8893   9.720   2.970   0.363  0.2584  0.1575  0.1463
 8894W        W 8894   4.288   2.634   2.824  0.3613  0.0417 -0.2048
 8895W        W 8895   9.624   8.492   5.411 -0.1994 -0.3541 -0.1731
 8896W        W 8896   1.468   4.727  10.055  0.2130 -0.1960 -0.2102
 8897W        W 8897   9.301   8.811   3.091  0.1052  0.2462 -0.1191
 8898W        W 8898   0.791   6.054   0.572  0.1270  0.1534 -0.1675
 8899W        W 8899   2.431   1.414   8.990 -0.0389 -0.1676 -0.2296
 8900W        W 8900   5.395   8.152   7.989 -0.1727 -0.0054  0.0170
 8901W        W 8901   9.584   3.725   0.085  0.0110  0.0061  0.1421
 8902W        W 8902  10.264   3.250   1.137  0.2276  0.1238 -0.1569
 8903W        W 8903   2.092   1.156   1.551 -0.0304 -0.2026 -0.1702
 8904W        W 8904   8.470   8.166   6.193  0.0538  0.1785  0.0951
 8905W        W 8905  10.037   7.160   4.587 -0.3080  0.1165  0.0321
 8906W        W 8906   3.172   8.511   8.210 -0.2362 -0.2821 -0.2794
 8907W        W 8907   5.060   0.681   9.995 -0.0093 -0.3127 -0.3591
 8908W        W 8908   6.243   7.063   7.753  0.1105 -0.1653  0.1655
 8909W        W 8909   0.338   1.156   1.725  0.0107  0.1386 -0.0613
 8910W        W 8910   5.127   7.330   4.041  0.2226  0.1523  0.0471
 8911W        W 8911   0.134   7.396   5.289  0.0025 -0.2081 -0.0892
 8912W        W 8912   7.458   4.485   9.050  0.1178  0.0308  0.0236
 8913W        W 8913   4.955   7.560   8.718 -0.4746 -0.1625 -0.0136
 8914W        W 8914   0.184   7.642   3.527  0.1779 -0.0330 -0.1166
 8915W        W 8915   7.113   0.798   1.752 -0.0137  0.1025 -0.0369
 8916W        W 8916   6.864   5.213   8.810 -0.2159  0.2037  0.0779
 8917W        W 8917   7.425   6.107   3.307 -0.2040  0.1658  0.3457
 8918W        W 8918   9.186   8.101   5.921 -0.3031  0.1900  0.0685
 8919W        W 8919   6.371   2.063   0.915  0.0617 -0.2218  0.0190
 8920W        W 8920   2.617   2.020   7.045 -0.0910 -0.2846  0.2164
 8921W        W 8921   8.139   8.002   7.446  0.0411  0.0054 -0.0284
 8922W        W 8922   8.414   8.277   1.476 -0.0711  0.1728 -0.1025
 8923W        W 8923   6.377   5.654   6.464 -0.2211 -0.1276  0.2577
 8924W        W 8924   2.241   0.622   1.303  0.0474 -0.0751 -0.0551
 8925W        W 8925   1.507   2.509   6.215 -0.2395 -0.0715  0.3323
 8926W        W 8926   3.450   3.310   8.613 -0.2939  0.1744 -0.3103
 8927W        W 8927   4.660   4.330   5.158  0.3588 -0.1840  0.0280
 8928W        W 8928   3.650   7.410   0.571  0.1417  0.0332  0.3129
 8929W        W 8929   2.875   2.829  10.041 -0.0881  0.1780  0.3501
 8930W        W 8930   9.788   6.153   4.684 -0.1242  0.1305 -0.3786
 8931W        W 8931   5.194   2.377   4.030  0.0050  0.1286 -0.0418
 8932W        W 8932   7.891   1.033   6.011 -0.4001 -0.2798  0.1226
 8933W        W 8933   4.670   8.307   7.103  0.2767 -0.1298 -0.1152
 8934W        W 8934   3.754   3.284   9.778  0.3927 -0.1559 -0.1147
 8935W        W 8935   8.824   2.068   2.613  0.0400  0.1294 -0.0134
 8936W        W 8936   5.952  10.063   5.873  0.0654  0.0423  0.1958
 8937W        W 8937   7.930   9.335   5.013 -0.1266  0.0664  0.0172
 8938W        W 8938   1.087   5.937   6.957 -0.0166 -0.1175 -0.2104
 8939W        W 8939   6.276   3.640   0.051 -0.1843 -0.1287  0.1732
 8940W        W 8940   4.672   9.811   0.883 -0.0242 -0.2039  0.2993
 8941W        W 8941   0.842   9.820   0.341 -0.3391  0.1158 -0.0559
 8942W        W 8942   0.076   5.717   6.042  0.0455  0.0416  0.1203
 8943W        W 8943   4.072   3.474   3.493 -0.1440  0.1618 -0.1188
 8944W        W 8944   2.361   3.215   3.088 -0.1116 -0.1295  0.1707
 8945W        W 8945   6.609   4.037   0.100 -0.1354  0.0426 -0.0074
 8946W        W 8946   5.261   1.842   2.284  0.4031  0.1082  0.1024
 8947W        W 8947   3.581   4.596   5.882 -0.3972  0.1963 -0.2662
 8948W        W 8948   1.508   3.266   4.885  0.1342  0.1649 -0.4123
 8949W        W 8949   3.152   9.426   8.422 -0.0369 -0.2672  0.0715
 8950W        W 8950   6.248   5.820   4.121  0.3637  0.1376  0.1079
 8951W        W 8951   5.539   3.059   4.503  0.0550 -0.0871  0.2206
 8952W        W 8952   8.957   4.994   4.226  0.2423  0.0445 -0.3434
 8953W        W 8953   7.128   0.432   6.969 -0.0177  0.4291  0.4717
 8954W        W 8954   3.499   9.022   1.436  0.1063  0.0517  0.1293
 8955W        W 8955   0.316   4.779   5.939  0.0333 -0.0040  0.1958
 8956W        W 8956   7.703   6.420   7.451  0.0033  0.1040 -0.0505
 8957W        W 8957   0.032   0.957   2.743 -0.2018 -0.0597 -0.2180
 8958W        W 8958   0.196   4.053   9.391  0.0870 -0.2695  0.0856
 8959W        W 8959   6.930   7.850   4.713  0.0681  0.0393 -0.0490
 8960W        W 8960   3.624   6.291   7.353 -0.1038 -0.2790  0.3379
 8961W        W 8961   0.564   0.238   2.457  0.1439 -0.3375 -0.1025
 8962W        W 8962   2.452   6.362   6.671  0.0366  0.0148 -0.0931
 8963W        W 8963   2.787   9.022   0.152 -0.1059  0.2415 -0.0440
 8964W        W 8964   8.394   0.808   6.935  0.1942 -0.0955  0.0648
 8965W        W 8965   8.954   3.383   3.109 -0.1393 -0.2191 -0.1375
 8966W        W 8966   6.667   4.683   2.812 -0.0295  0.1152 -0.3167
 8967W        W 8967   2.067   6.618  10.137  0.0984 -0.2536 -0.0908
 8968W        W 8968   9.500  10.300   1.355 -0.0245  0.0337 -0.0496
 8969W        W 8969   0.543   8.310   4.011  0.1601  0.1921  0.0129
 8970W        W 8970   6.329   9.659   3.176  0.5205 -0.0874 -0.2095
 8971W        W 8971   4.234   9.791   2.246  0.0459  0.1161  0.2314
 8972W        W 8972   9.202   7.242   2.915  0.2378  0.0567  0.0266
 8973W        W 8973   7.484   5.235   8.921 -0.2783 -0.2596 -0.1043
 8974W        W 8974   3.258   7.336   0.301  0.0063 -0.0976 -0.0718
 8975W        W 8975   0.557   7.989   7.481  0.0124  0.0125 -0.1102
 8976W        W 8976   7.846   9.732   9.496  0.2876  0.2174 -0.1131
 8977W        W 8977   5.114   3.904   5.013  0.2475  0.0487  0.0657
 8978W        W 8978   5.460   7.694   8.902  0.2877  0.1328  0.1001
 8979W        W 8979   4.402   1.810   3.094 -0.0662 -0.1847  0.2092
 8980W        W 8980   2.950   7.381   6.106 -0.0031  0.0459 -0.0313
 8981W        W 8981   3.247   4.851   3.675  0.1797 -0.0346  0.1248
 8982W        W 8982   9.225   5.025   8.054  0.4112  0.0286 -0.0371
 8983W        W 8983   4.956   3.782  10.183  0.0812  0.0206  0.1250
 8984W        W 8984   2.235   7.495   8.019  0.0136  0.3762 -0.0611
 8985W        W 8985   3.384   1.086   0.222  0.2519 -0.0460  0.3462
 8986W        W 8986   7.507   6.966   3.513 -0.1347 -0.4248  0.2609
 8987W        W 8987   2.369   9.521   3.735  0.3747  0.0025 -0.0653
 8988W        W 8988   6.094   4.043   2.305  0.0444 -0.1956 -0.0838
 8989W        W 8989   0.632   9.559   2.878 -0.0666 -0.1320 -0.0917
 8990W        W 8990   3.184   7.806   5.850 -0.0686  0.0941 -0.0046
 8991W        W 8991   7.148   5.244   7.627 -0.1171 -0.2787  0.1466
 8992W        W 8992   6.379  10.085   7.957 -0.0078 -0.1720 -0.1470
 8993W        W 8993   6.565   1.432   4.765  0.0100  0.1515  0.1873
 8994W        W 8994   0.625   6.836   0.270 -0.1196  0.3179  0.2657
 8995W        W 8995   2.525   6.037   5.050 -0.0129 -0.0462  0.0083
 8996W        W 8996   6.278   3.632   3.556 -0.2602 -0.3505  0.2083
 8997W        W 8997   8.543   5.738   2.491 -0.1421 -0.1268 -0.2187
 8998W        W 8998   4.920   8.844   4.576 -0.1880 -0.0405  0.0846
 8999W        W 8999   0.169   8.945   8.234  0.1177 -0.2383  0.0061
 9000W        W 9000   4.681   3.624   8.779  0.1563 -0.2158  0.0359
 9001W        W 9001   7.485   1.858   2.200 -0.0123 -0.0406  0.1190
 9002W        W 9002   7.826   7.544   2.355 -0.2254 -0.1000 -0.2514
 9003W        W 9003   5.511   1.920   1.415  0.0317 -0.0616  0.0073
 9004W        W 9004   5.769   6.872   0.843 -0.3568 -0.0367  0.1969
 9005W        W 9005   6.431   8.498   0.173  0.4645 -0.0667  0.0984
 9006W        W 9006   0.262   1.359   3.024 -0.2934  0.3506 -0.4881
 9007W        W 9007   9.253   6.337   9.460  0.3126 -0.1731 -0.1007
 9008W        W 9008   5.577   3.000   3.990 -0.1478  0.0869 -0.0780
 9009W        W 9009   4.893   2.223   9.988  0.2756 -0.1173 -0.4771
 9010W        W 9010   5.282   2.291   0.512  0.2908 -0.1914  0.1535
 9011W        W 9011   7.548   8.407   5.859 -0.2335  0.0306 -0.1075
 9012W        W 9012   3.603   8.092   8.467  0.1692 -0.1516  0.1920
 9013W        W 9013   2.653   1.074   5.692 -0.2099  0.0745 -0.0328
 9014W        W 9014   5.353   7.668   2.081 -0.1310  0.2872 -0.1787
 9015W        W 9015   7.663   4.294   5.354 -0.0297  0.2253 -0.1804
 9016W        W 9016  10.276   2.701   8.884  0.0903 -0.0202  0.0552
 9017W        W 9017   5.315   9.194   2.741  0.0419  0.2954  0.3769
 9018W        W 9018   9.125   6.945   1.993 -0.1995  0.0788 -0.1807
 9019W        W 9019   0.282   6.496   6.168 -0.0041 -0.0369 -0.2076
 9020W        W 9020   2.974   0.729   4.414  0.0973  0.0660  0.0480
 9021W        W 9021   3.198  10.054   9.267  0.1553  0.1462  0.1199
 9022W        W 9022   6.666   2.079   1.362  0.1295  0.0567  0.1298
 9023W        W 9023   0.881  10.139   8.002 -0.2818 -0.0275 -0.2320
 9024W        W 9024   3.979   7.267   6.725 -0.1233  0.0347 -0.1381
 9025W        W 9025   0.567   0.465   7.305 -0.0186 -0.0004  0.1951
 9026W        W 9026   5.055   0.597   5.616 -0.1940 -0.2900 -0.1878
 9027W        W 9027   8.369   6.626   0.219  0.1480  0.0523  0.3572
 9028W        W 9028   6.107   4.769  10.060  0.2659 -0.1999  0.0436
 9029W        W 9029   9.805   2.059   0.676 -0.2528  0.1005  0.0516
 9030W        W 9030   4.753   1.624  10.233 -0.1293 -0.2342 -0.0927
 9031W        W 9031   0.122  10.169   0.262  0.0793  0.2023  0.1953
 9032W        W 9032   0.019   1.299   8.060 -0.0034  0.4498  0.1860
 9033W        W 9033   6.983   7.719   8.677  0.3657  0.0173 -0.1032
 9034W        W 9034   5.110   9.867   1.640  0.3236 -0.1652 -0.2782
 9035W        W 9035   7.945   8.437   7.335 -0.1651 -0.0703 -0.2345
 9036W        W 9036   3.436   1.998   7.010 -0.0447  0.0629  0.1939
 9037W        W 9037   1.823   5.055   8.010  0.0209  0.2816  0.1927
 9038W        W 9038   2.402   7.120   5.608  0.1059  0.1634 -0.0376
 9039W        W 9039   9.666   6.283   7.818 -0.0624  0.0820 -0.2229
 9040W        W 9040   7.508   3.368   5.859 -0.2148  0.2657 -0.0561
 9041W        W 9041   1.157   4.741   7.432 -0.2008  0.0564 -0.2499
 9042W        W 9042   9.923   5.340   7.001  0.2917 -0.1104 -0.0162
 9043W        W 9043   4.347   3.365   4.270  0.1325 -0.2406 -0.0637
 9044W        W 9044   8.419   8.842   3.585  0.0086 -0.0154  0.0613
 9045W        W 9045   2.602   2.903   9.041  0.0315  0.0400 -0.4419
 9046W        W 9046   5.742   2.953   9.216 -0.0832 -0.0669  0.2201
 9047W        W 9047   4.405   6.608  10.014 -0.0298 -0.1729 -0.0693
 9048W        W 9048   7.335   6.542   9.153 -0.0809  0.0976  0.2438
 9049W        W 9049   3.655   2.478   4.396  0.0748  0.0965 -0.0859
 9050W        W 9050   7.276   0.564   5.474 -0.2535 -0.2099 -0.1870
 9051W        W 9051   9.143   3.611   1.859 -0.1208 -0.0947 -0.0077
 9052W        W 9052   7.195   3.631   3.931  0.2616 -0.3562 -0.0773
 9053W        W 9053   8.352   8.718   7.709 -0.3026 -0.1270 -0.1888
 9054W        W 9054   8.945   8.799   4.385  0.0297  0.2929 -0.1926
 9055W        W 9055   5.822   1.425   6.204 -0.2127 -0.1625  0.1061
 9056W        W 9056   7.000   0.454   9.625 -0.0322  0.0355  0.0198
 9057W        W 9057   8.589   8.904   7.326  0.1521  0.3126 -0.0850
 9058W        W 9058   4.530   4.120   5.624 -0.5575  0.2853  0.0011
 9059W        W 9059   5.017   7.589   9.220  0.0743 -0.1208  0.1377
 9060W        W 9060   6.066   4.264   7.463  0.0602  0.1192 -0.2217
 9061W        W 9061   3.236   3.928   2.273 -0.5899 -0.1180  0.4107
 9062W        W 9062   2.588   6.441   7.920 -0.1037 -0.0833 -0.0277
 9063W        W 9063   2.755   3.463   4.217 -0.0929 -0.0410 -0.4634
 9064W        W 9064   4.048   2.849   0.583  0.0771  0.0694  0.0053
 9065W        W 9065   8.536   5.902   3.455 -0.0092  0.0956  0.0629
 9066W        W 9066   7.753   7.110   6.167 -0.0282  0.3258 -0.2639
 9067W        W 9067   6.514   1.612   8.819  0.0585  0.2966  0.3886
 9068W        W 9068   7.059   9.866   9.998 -0.0603  0.0195  0.3244
 9069W        W 9069   0.541  10.058  10.339 -0.1562  0.3109  0.1452
 9070W        W 9070   5.746   8.997   8.823 -0.2367 -0.0675 -0.2225
 9071W        W 9071   9.133   0.728   8.890 -0.1920 -0.0200  0.0746
 9072W        W 9072   0.668   0.831   9.583  0.0506  0.0700 -0.0792
 9073W        W 9073   1.727   6.246   8.521 -0.2638  0.1171 -0.2214
 9074W        W 9074   0.196   8.960   0.990  0.0573  0.2343  0.0891
 9075W        W 9075   3.522  10.022   6.535  0.1766 -0.3610  0.1952
 9076W        W 9076   4.489   0.678   3.001 -0.1025  0.1390  0.3256
 9077W        W 9077   4.612   1.184   0.903  0.0291  0.0526  0.4190
 9078W        W 9078   6.585   4.980   1.697 -0.1523 -0.1234 -0.0689
 9079W        W 9079   1.264   9.477   7.569 -0.0137 -0.0724 -0.0602
 9080W        W 9080   0.437   2.836   9.733  0.0635 -0.1499  0.0894
 9081W        W 9081   3.428   7.882   0.253  0.0296  0.3070  0.3057
 9082W        W 9082   6.648   2.130   4.742 -0.0714 -0.0712  0.0786
 9083W        W 9083   0.583   4.449   4.626  0.1050 -0.0554 -0.2189
 9084W        W 9084   6.634   5.549   8.396  0.0413  0.0844 -0.2094
 9085W        W 9085   9.454   2.823   1.915  0.2409 -0.2089  0.1074
 9086W        W 9086   8.820   2.484   7.229 -0.1867  0.0265  0.0042
 9087W        W 9087   6.859   6.420   2.999  0.2461  0.1074  0.2808
 9088W        W 9088   6.608   3.393   2.778 -0.0471  0.1741 -0.3733
 9089W        W 9089   9.266   3.482   5.901 -0.0198 -0.0610 -0.3501
 9090W        W 9090   8.138   1.929   8.968 -0.0256 -0.4816  0.1771
 9091W        W 9091   8.295   6.009   1.715  0.2380  0.0307  0.0524
 9092W        W 9092   4.513   5.407   9.719  0.3557  0.0282 -0.1651
 9093W        W 9093   3.561   3.741   8.310 -0.2050 -0.0251 -0.0865
 9094W        W 9094   9.779   4.574   3.274 -0.2028  0.0407 -0.2669
 9095W        W 9095   6.990   7.345   9.625 -0.2829 -0.1366  0.0650
 9096W        W 9096   9.559   7.043   2.233 -0.2549 -0.2219  0.0339
 9097W        W 9097   7.826   6.049   7.995 -0.1858 -0.0266  0.1730
 9098W        W 9098   9.910   9.944   1.197  0.0351  0.2570 -0.2782
 9099W        W 9099   7.457   7.068   6.579  0.0705 -0.3395 -0.0532
 9100W        W 9100   4.671   1.671   5.026 -0.3354  0.1629 -0.1226
 9101W        W 9101   7.928   7.412   1.216 -0.1521 -0.1092 -0.1644
 9102W        W 9102  10.172   1.260   5.909  0.2445 -0.2694  0.0185
 9103W        W 9103   6.341   7.501   1.107 -0.0564  0.1805 -0.0402
 9104W        W 9104   6.419   1.932   6.581  0.0001 -0.3246 -0.2881
 9105W        W 9105  10.000   5.869   7.571 -0.0249  0.1407  0.1729
 9106W        W 9106   1.979   3.221   4.124  0.0974  0.1270  0.1445
 9107W        W 9107   4.066   5.144   9.616 -0.0076  0.1897  0.0298
 9108W        W 9108   7.332   2.743   4.489 -0.0482  0.3897 -0.1314
 9109W        W 9109   8.873   3.181   5.861 -0.2915 -0.1796  0.0972
 9110W        W 9110   5.546  10.217   0.741 -0.1935  0.2470 -0.1011
 9111W        W 9111   0.086   9.347   0.644  0.0687  0.0583  0.0981
 9112W        W 9112   9.933   0.610   1.102 -0.2360 -0.0726  0.2340
 9113W        W 9113   1.231   2.999   3.778 -0.1827  0.0167  0.0683
 9114W        W 9114   7.259   7.865   6.510  0.1340  0.1111 -0.0722
 9115W        W 9115   4.180   4.505   2.779  0.1412 -0.1481 -0.1756
 9116W        W 9116   3.847   3.831   4.401 -0.0738  0.0637 -0.0574
 9117W        W 9117   0.936   6.525   7.950 -0.1514 -0.4428 -0.0469
 9118W        W 9118   1.066   6.056   8.234  0.2231 -0.0326  0.0782
 9119W        W 9119   5.229   5.707   2.210 -0.0050  0.2123  0.0976
 9120W        W 9120   3.198   1.238   0.711 -0.1313 -0.1684 -0.0000
 9121W        W 9121   6.196   8.083   6.226  0.2077 -0.0297  0.2517
 9122W        W 9122   9.720   1.474   2.413 -0.1444 -0.0599 -0.1161
 9123W        W 9123   0.754   4.093   9.289 -0.0179 -0.0517  0.0128
 9124W        W 9124   3.741   0.745   0.234  0.1891  0.0523  0.1174
 9125W        W 9125   2.123   2.839   7.809 -0.0394 -0.0543  0.1253
 9126W        W 9126   8.961   4.633   0.237  0.2629 -0.1532 -0.1684
 9127W        W 9127  10.228   3.051   3.260  0.3434  0.1350 -0.0112
 9128W        W 9128   4.410   4.767   9.428  0.0658 -0.1310  0.1740
 9129W        W 9129   9.578   3.218  10.262 -0.0701  0.0882 -0.1048
 9130W        W 9130   5.138   1.497   2.618  0.0008 -0.3426  0.0233
 9131W        W 9131   5.432   9.834   2.038 -0.2263 -0.2169 -0.0209
 9132W        W 9132   0.094   5.354   6.821 -0.0201  0.1386 -0.1500
 9133W        W 9133   8.667   9.615   3.044  0.0617 -0.1887 -0.3166
 9134W        W 9134   4.093   9.216   7.627  0.3226 -0.3545 -0.0245
 9135W        W 9135   6.794   7.861   6.901 -0.0202 -0.1291  0.0266
 9136W        W 9136  10.012   4.891   5.195 -0.1229  0.2601  0.1163
 9137W        W 9137   5.745   6.587   9.579  0.1193  0.2964 -0.2708
 9138W        W 9138   0.296   7.524   8.432  0.4532 -0.3099 -0.0478
 9139W        W 9139   1.675   2.937   5.979 -0.0638 -0.1428 -0.0344
 9140W        W 9140   7.981   1.764   3.740 -0.0650 -0.1253 -0.0520
 9141W        W 9141   0.572   9.642   7.049  0.4054 -0.1864 -0.2901
 9142W        W 9142   9.844   1.949   0.150  0.1457 -0.1970 -0.0552
 9143W        W 9143   5.519   7.824   0.998  0.0554  0.2752 -0.0626
 9144W        W 9144   6.361   3.852   9.439 -0.2161  0.3288  0.2868
 9145W        W 9145   0.297   1.867   0.204  0.1244  0.0058  0.2957
 9146W        W 9146   1.441   6.059   3.668 -0.0466 -0.2871 -0.1317
 9147W        W 9147   0.979   6.729   3.273 -0.1429  0.2397  0.0648
 9148W        W 9148   2.105   7.803   0.317  0.0329 -0.1045  0.0823
 9149W        W 9149   6.331   0.067   0.592 -0.2147 -0.1974 -0.0621
 9150W        W 9150   3.251   0.933   6.752 -0.1577  0.0557  0.4021
 9151W        W 9151   3.658   8.024   5.163 -0.1600  0.0442 -0.1716
 9152W        W 9152   8.607   4.059   0.121 -0.1760  0.1621  0.1564
 9153W        W 9153   3.459   8.415   6.834  0.0755 -0.0196 -0.3361
 9154W        W 9154   6.441   5.789   1.268  0.1222  0.1542 -0.0203
 9155W        W 9155  10.175   9.192   4.508 -0.2709 -0.2762 -0.1057
 9156W        W 9156   3.868   5.026   2.101 -0.0479 -0.0967 -0.4403
 9157W        W 9157   4.623   6.367   3.400  0.0153  0.0568 -0.0329
 9158W        W 9158   6.955   4.063   1.400 -0.1581 -0.0713 -0.0609
 9159W        W 9159   6.621   4.696   8.079 -0.0251 -0.1287 -0.0711
 9160W        W 9160   4.127   5.807   1.943  0.1293 -0.2663  0.2307
 9161W        W 9161   5.645   2.035   4.777  0.2437  0.0070  0.2289
 9162W        W 9162   1.353   5.416   1.537  0.0944  0.3564 -0.1464
 9163W        W 9163   1.185   1.193   1.735 -0.0420 -0.1811 -0.0458
 9164W        W 9164   5.556   6.003   2.385 -0.0856 -0.4357 -0.2193
 9165W        W 9165   6.880   1.478   8.546  0.0061  0.0919  0.2189
 9166W        W 9166   4.710   9.481   0.394 -0.0617  0.2457 -0.1066
 9167W        W 9167   5.429   4.398   6.613 -0.1981  0.0675 -0.0054
 9168W        W 9168  10.165   7.568   5.610  0.1173 -0.0161 -0.0449
 9169W        W 9169   9.114   9.833   7.659 -0.1727  0.0154 -0.2507
 9170W        W 9170   9.089   8.823   0.976  0.2355  0.0317 -0.0043
 9171W        W 9171  10.330   2.540   9.439 -0.2220  0.1910  0.0238
 9172W        W 9172   1.412   8.137   7.525 -0.0169  0.1807 -0.1141
 9173W        W 9173   4.033   7.381   8.833 -0.1303 -0.0642 -0.0376
 9174W        W 9174   2.185   2.512   9.092  0.1970 -0.0609  0.0216
 9175W        W 9175   9.045   5.517   2.707 -0.4189  0.3018 -0.0308
 9176W        W 9176   3.226  10.197   0.925 -0.0572 -0.1068  0.3707
 9177W        W 9177   6.745   4.662   3.340 -0.2048  0.0856  0.0634
 9178W        W 9178   9.703   5.611   7.858  0.2767  0.0764 -0.0035
 9179W        W 9179   0.767   9.027   1.140 -0.0715 -0.1012  0.1319
 9180W        W 9180   6.196   8.007   8.381  0.3947  0.0176  0.0688
 9181W        W 9181   7.500   7.719   1.097 -0.2846 -0.0406 -0.3690
 9182W        W 9182   8.660   6.675   0.802  0.0301 -0.0961  0.2395
 9183W        W 9183   4.220   1.722   4.765 -0.4537 -0.0326  0.0716
 9184W        W 9184   9.296   3.818   4.747  0.1301  0.2794 -0.0864
 9185W        W 9185   9.757   9.782   3.739  0.0114 -0.2179  0.0522
 9186W        W 9186   0.087   3.831   1.817  0.1756 -0.3311  0.2714
 9187W        W 9187   5.518   0.650   9.831  0.2122  0.0826  0.0473
 9188W        W 9188   4.685   5.709   2.037 -0.3400  0.1417  0.2199
 9189W        W 9189   1.313   5.304   3.221  0.0803  0.4188 -0.1971
 9190W        W 9190   8.754   2.696   1.356 -0.0397 -0.0058 -0.0724
 9191W        W 9191   7.438   5.836   6.006 -0.1817  0.0085  0.1854
 9192W        W 9192   1.934   2.276  10.329  0.1602 -0.2576 -0.2714
 9193W        W 9193   4.013   2.667   1.958 -0.0658  0.2077 -0.3303
 9194W        W 9194   9.601   3.463   0.633 -0.3015 -0.0477  0.3490
 9195W        W 9195   9.839   7.744   6.745  0.0953 -0.0328 -0.0204
 9196W        W 9196   9.452   2.092   6.846  0.0263  0.1409 -0.1147
 9197W        W 9197   5.395   6.825   9.909  0.0583 -0.0797  0.3860
 9198W        W 9198   8.420   7.359   8.863 -0.2573  0.0879 -0.3279
 9199W        W 9199   8.098   1.156   5.421  0.0484  0.2332 -0.0229
 9200W        W 9200   6.512   5.597   3.367 -0.0703 -0.2210 -0.1569
 9201W        W 9201   6.590   6.369   0.493 -0.1400 -0.1293  0.1822
 9202W        W 9202   9.700   7.467   7.399 -0.0614  0.0724 -0.2400
 9203W        W 9203   6.605   8.566   2.123  0.1007  0.0066  0.1044
 9204W        W 9204   4.292   3.830   1.036  0.0753 -0.1735 -0.0971
 9205W        W 9205   4.630   2.709   6.199 -0.2099  0.0465  0.4031
 9206W        W 9206   8.364   2.942   0.903  0.0879 -0.2175  0.0937
 9207W        W 9207   6.505   5.122   0.316  0.0112  0.2025 -0.1896
 9208W        W 9208   5.758   9.374   7.149 -0.1006 -0.1739  0.0770
 9209W        W 9209   7.690  10.212   5.799 -0.1598  0.1824  0.1634
 9210W        W 9210   7.845   9.938   1.718 -0.0245  0.2201  0.1872
 9211W        W 9211   7.666   2.461   3.616 -0.0912  0.0897 -0.1218
 9212W        W 9212   5.331   4.349   7.934 -0.0898 -0.1734 -0.0284
 9213W        W 9213   4.461   3.493   2.285 -0.0739  0.0998  0.0364
 9214W        W 9214   8.732   3.375   0.051  0.3061 -0.1529  0.0083
 9215W        W 9215   8.510  10.004   4.447 -0.1587 -0.0233 -0.4435
 9216W        W 9216   5.839   7.734   7.562 -0.0203  0.0018 -0.1061
 9217W        W 9217   8.366   0.926   3.648 -0.2803 -0.1473 -0.1243
 9218W        W 9218   9.987   7.848   3.828 -0.0825  0.0378 -0.2000
 9219W        W 9219   1.379   3.447   7.179 -0.2196  0.1489  0.0082
 9220W        W 9220   2.099   6.474   9.589  0.0698 -0.3064 -0.0637
 9221W        W 9221   6.669  10.308   2.128 -0.0469  0.2677  0.1845
 9222W        W 9222   3.796   4.850   9.216  0.1733 -0.3663 -0.1258
 9223W        W 9223   6.301   7.197   3.392  0.0324 -0.0972 -0.1092
 9224W        W 9224   9.142   9.883   5.094 -0.0557 -0.0796 -0.0063
 9225W        W 9225   1.053   4.312   2.842  0.1414  0.0740 -0.0805
 9226W        W 9226   1.271   4.597   0.157 -0.4032 -0.1539 -0.2216
 9227W        W 9227   2.425   0.127   4.250 -0.0499 -0.0521  0.3085
 9228W        W 9228   7.122   8.154   7.189 -0.0302  0.1982 -0.2816
 9229W        W 9229   7.902   0.713   1.868  0.0815 -0.1132  0.1013
 9230W        W 9230   3.209   4.860   9.998 -0.1046 -0.1373 -0.1235
 9231W        W 9231   6.079   5.428   6.013 -0.0267 -0.3434 -0.0706
 9232W        W 9232   7.161   5.502   9.142 -0.0830 -0.0963  0.1381
 9233W        W 9233   0.233   9.220   7.721  0.0744 -0.0030 -0.1838
 9234W        W 9234   3.473   5.322   3.644 -0.0177 -0.2001 -0.1719
 9235W        W 9235   5.487   2.859   6.249  0.1969 -0.1489 -0.0637
 9236W        W 9236   3.381   9.833   7.048 -0.3106  0.0202 -0.0408
 9237W        W 9237   7.147   5.233   1.671 -0.2055 -0.1932 -0.0210
 9238W        W 9238   7.964   2.147   6.071  0.0448  0.0392 -0.0005
 9239W        W 9239   1.791   9.931   5.646  0.1290  0.0186  0.1627
 9240W        W 9240   0.444   5.265   7.908  0.0498 -0.3640  0.0880
 9241W        W 9241   3.277   5.469   6.339 -0.1114  0.0674 -0.0245
 9242W        W 9242   6.610   3.449   4.780  0.1110  0.2241  0.0445
 9243W        W 9243   6.334   7.338   6.278  0.2077  0.1942  0.1371
 9244W        W 9244   9.126   4.558  10.119 -0.0308 -0.1373 -0.0907
 9245W        W 9245   7.991   0.702   5.640  0.0772 -0.1110  0.1888
 9246W        W 9246   3.159   9.042   1.098  0.0297  0.1021 -0.1897
 9247W        W 9247   9.488   2.198   9.194 -0.1801 -0.3031  0.2971
 9248W        W 9248   9.899   2.503   0.318  0.2661  0.0657 -0.0693
 9249W        W 9249   1.219   4.379   4.190  0.0669  0.2728  0.3714
 9250W        W 9250   5.831   1.630   4.228  0.0228  0.0587 -0.1165
 9251W        W 9251   4.569   8.039   8.381 -0.0975 -0.2956  0.1199
 9252W        W 9252   2.174   1.156  10.184  0.3075  0.0254 -0.0007
 9253W        W 9253   8.126   9.565   1.500 -0.1477  0.0837  0.0345
 9254W        W 9254   6.498   3.447   9.133  0.0217 -0.0411 -0.0588
 9255W        W 9255   8.609   9.526   6.472 -0.1374  0.1153  0.1483
 9256W        W 9256   6.980   8.792   6.998  0.1727 -0.1370 -0.0294
 9257W        W 9257   8.866   2.155   0.750  0.1681  0.1359 -0.2658
 9258W        W 9258   1.393   5.269   9.255 -0.2282  0.0867  0.3542
 9259W        W 9259   1.250   5.208   8.489 -0.0092 -0.1984 -0.1129
 9260W        W 9260   1.619   0.020   0.268  0.1668  0.1906  0.3261
 9261W        W 9261   3.107  10.073   4.341  0.2339  0.0922 -0.0789
 9262W        W 9262   2.660   4.345   9.274 -0.0619 -0.0191  0.0457
 9263W        W 9263   8.649   6.722   5.770  0.0512 -0.0917  0.3274
 9264W        W 9264   8.131   0.968   4.470 -0.0488 -0.0716 -0.1221
 9265W        W 9265   5.102   6.577   1.777 -0.0330  0.0498 -0.0572
 9266W        W 9266   5.107   4.341   7.472  0.3483  0.0740  0.3979
 9267W        W 9267   5.421   1.371   1.613 -0.2980  0.3367  0.5259
 9268W        W 9268   1.067   6.882   4.208  0.2199 -0.1629 -0.3448
 9269W        W 9269   9.197   0.407   4.963  0.0130 -0.1330  0.1476
 9270W        W 9270   9.319   9.293   7.667  0.1824 -0.0019  0.0963
 9271W        W 9271   2.010   9.382   3.382  0.1447 -0.0563 -0.0907
 9272W        W 9272   1.438   3.604   9.433 -0.0661 -0.3015 -0.2247
 9273W        W 9273   0.148   2.244   9.083 -0.0685  0.3307 -0.0474
 9274W        W 9274   9.295   5.775   5.266 -0.0136  0.0390 -0.0894
 9275W        W 9275   9.627   0.588   6.208  0.2161  0.0269 -0.0653
 9276W        W 9276   9.679   8.836   7.163  0.1734  0.2629 -0.2600
 9277W        W 9277   4.850   1.909   6.079  0.1548  0.4269 -0.2884
 9278W        W 9278   3.346   3.972   8.768  0.1060  0.1936  0.0487
 9279W        W 9279  10.040   7.732   1.633  0.3378  0.1368  0.0895
 9280W        W 9280   4.066   1.921   0.864  0.3001  0.0784 -0.0215
 9281W        W 9281   0.106  10.159   8.721 -0.0056 -0.3559  0.4856
 9282W        W 9282   0.242   6.046   5.135  0.2524  0.2372  0.3653
 9283W        W 9283   9.297   3.388   7.094 -0.0009 -0.1248 -0.2158
 9284W        W 9284   9.017   9.955   8.757  0.4563  0.1899  0.1712
 9285W        W 9285   5.248   2.365   2.467 -0.1391 -0.3813 -0.2222
 9286W        W 9286   2.398   1.571   1.231 -0.1316  0.0162 -0.1648
 9287W        W 9287   5.526   4.310   7.115  0.0946  0.3725 -0.0547
 9288W        W 9288   6.125  10.133   5.415 -0.0889 -0.2712 -0.2793
 9289W        W 9289   8.610   2.399   8.951  0.1070  0.1167 -0.2877
 9290W        W 9290   9.849   1.443   8.051  0.0535  0.0261  0.0171
 9291W        W 9291   9.569   4.588   5.085 -0.0070 -0.0557 -0.0237
 9292W        W 9292   6.883   8.714   6.433 -0.1444 -0.0622 -0.2140
 9293W        W 9293  10.030   2.646   4.828 -0.0004 -0.1074  0.3102
 9294W        W 9294   7.133   1.162   5.402  0.1768 -0.1004  0.0393
 9295W        W 9295   8.297   2.989   0.316  0.0116 -0.0543 -0.0758
 9296W        W 9296   0.428   9.466  10.110  0.2089 -0.2295  0.2815
 9297W        W 9297   3.164   4.415   6.429  0.0601 -0.1613  0.0131
 9298W        W 9298   6.379   7.543   7.668 -0.2670  0.1453  0.0022
 9299W        W 9299   9.514   6.181   1.678  0.3095  0.1073 -0.1222
 9300W        W 9300   0.600   3.444   4.591  0.3181 -0.0422 -0.0902
 9301W        W 9301   4.378   2.506   2.316 -0.0513  0.2623  0.0018
 9302W        W 9302   2.011   0.878   2.334  0.0537  0.1047  0.1898
 9303W        W 9303   0.954   1.033   9.006  0.1337 -0.0277 -0.0181
 9304W        W 9304   1.466   7.248   5.053  0.1007 -0.0979  0.1437
 9305W        W 9305   1.889   4.941   3.687  0.3778  0.0820 -0.1166
 9306W        W 9306   8.761   5.425   5.791  0.0653 -0.0359  0.1176
 9307W        W 9307   0.332   3.394   3.010  0.0353  0.2001 -0.1895
 9308W        W 9308   3.153   8.938   0.572 -0.1403 -0.1621 -0.1740
 9309W        W 9309   5.298   6.211   7.359 -0.0064 -0.1896 -0.1472
 9310W        W 9310   2.473   4.300   6.108  0.1323  0.3328 -0.1881
 9311W        W 9311   9.613   1.025  10.163 -0.1192 -0.1564 -0.2004
 9312W        W 9312   1.335   5.209  10.289 -0.0078 -0.0666 -0.0042
 9313W        W 9313   3.215   2.433   2.968 -0.1050  0.0415  0.0370
 9314W        W 9314   3.717   6.697   2.561 -0.0880  0.1705  0.0105
 9315W        W 9315   8.456  10.090   2.022  0.0785 -0.1141 -0.1213
 9316W        W 9316   9.730   8.819   8.495  0.2098  0.1565  0.3355
 9317W        W 9317   6.619   9.495   0.908  0.1473 -0.2580  0.2035
 9318W        W 9318   9.698   4.869   4.315  0.0295  0.0222 -0.2390
 9319W        W 9319   4.555   2.666   1.757 -0.0932  0.0059 -0.1120
 9320W        W 9320   8.767   3.266   9.930 -0.1629 -0.1897  0.1721
 9321W        W 9321   5.244   6.047   8.840 -0.1737  0.0997 -0.1808
 9322W        W 9322   3.220   8.293   5.732 -0.3950 -0.0983  0.0894
 9323W        W 9323   6.653  10.063  10.157  0.1202  0.0266 -0.1359
 9324W        W 9324   0.823   8.804   7.259  0.1179 -0.0610  0.0309
 9325W        W 9325   1.780   4.270   7.289 -0.2689 -0.2126  0.2827
 9326W        W 9326   8.636   0.490   7.779 -0.2410 -0.1335 -0.1115
 9327W        W 9327  10.237   6.385   9.569  0.2567 -0.1030  0.3031
 9328W        W 9328   1.421   7.869   8.491 -0.1610  0.2047  0.0212
 9329W        W 9329   9.692   0.719   6.700  0.2335  0.1363 -0.2089
 9330W        W 9330   5.292   9.335   0.472  0.2438  0.1894 -0.1278
 9331W        W 9331   0.151   4.229   0.079  0.0609 -0.0242  0.1071
 9332W        W 9332   0.343   7.555   7.738  0.2113  0.3058  0.1393
 9333W        W 9333   9.435   3.693   5.210  0.1669  0.1356 -0.0360
 9334W        W 9334   1.320   8.399   9.029  0.0367  0.1613  0.1155
 9335W        W 9335   8.060   8.571   4.298  0.3407 -0.5080 -0.1918
 9336W        W 9336   9.916   2.493   3.915  0.3427 -0.0232  0.1121
 9337W        W 9337   9.607   9.788   1.552  0.0278 -0.0555  0.0620
 9338W        W 9338   6.995   2.288   8.548  0.0389  0.0222  0.1179
 9339W        W 9339   8.495   9.416   8.904 -0.1979 -0.0791 -0.2385
 9340W        W 9340   1.588   0.004   1.144 -0.0409  0.0524 -0.0084
 9341W        W 9341   4.564   3.073   3.050 -0.0762 -0.0668  0.2181
 9342W        W 9342   7.885   9.598   0.107 -0.0322 -0.1484 -0.0478
 9343W        W 9343   2.366   9.748   5.534 -0.2981  0.1675 -0.0294
 9344W        W 9344   0.180   9.028  10.178 -0.1920  0.1588 -0.2922
 9345W        W 9345   6.229   5.911   1.719  0.1865 -0.2080 -0.0015
 9346W        W 9346   5.639   2.602   3.211 -0.1927 -0.0149  0.0852
 9347W        W 9347   1.332   2.560   8.019 -0.0432  0.1253 -0.1862
 9348W        W 9348   7.216   0.526   7.758  0.2048 -0.2386  0.3151
 9349W        W 9349   7.217   8.822   5.561 -0.0083 -0.0572  0.0354
 9350W        W 9350   2.900   1.148   9.806 -0.0497  0.3102  0.1040
 9351W        W 9351   8.921   0.539   4.154 -0.1912  0.3162  0.2159
 9352W        W 9352   1.152   9.316   8.027  0.2200  0.2280  0.0983
 9353W        W 9353   1.041   9.918   9.286  0.4058  0.0240  0.0314
 9354W        W 9354   2.657   0.609   5.040  0.1323  0.0265 -0.1914
 9355W        W 9355   2.509   9.522   5.999  0.0256  0.1672  0.2671
 9356W        W 9356   9.489   5.701   6.121 -0.1359  0.2208 -0.0699
 9357W        W 9357   2.009   8.338   2.096  0.3433 -0.1283  0.0905
 9358W        W 9358   3.135   0.232   3.863 -0.2022  0.2690  0.1938
 9359W        W 9359   0.697   4.863   7.781  0.0446 -0.0335 -0.2745
 9360W        W 9360   3.226   9.721   1.978  0.2466  0.3018 -0.0214
 9361W        W 9361   9.307   2.558   6.828 -0.0338  0.1492  0.0906
 9362W        W 9362   1.919   4.871   4.225 -0.2373 -0.1340  0.1688
 9363W        W 9363   3.895   9.947   4.421 -0.0057  0.2826  0.1422
 9364W        W 9364   1.965   6.285   5.866  0.0740 -0.0832 -0.0317
 9365W        W 9365   1.160   2.881   6.145 -0.0946  0.1192 -0.0723
 9366W        W 9366   2.873   5.813   0.911 -0.0886  0.0757  0.2032
 9367W        W 9367   9.219   4.872   9.303 -0.0565 -0.0265 -0.0958
 9368W        W 9368   7.373   1.005   4.948  0.0249  0.1239  0.1151
 9369W        W 9369   7.394   8.195   0.874 -0.3633 -0.2060  0.0796
 9370W        W 9370   1.710   2.959   1.204  0.3398  0.2396 -0.0880
 9371W        W 9371  10.281   6.723   3.250  0.0354  0.2712 -0.0948
 9372W        W 9372   2.054   4.549   8.767  0.1161 -0.0800 -0.1213
 9373W        W 9373   9.673   5.524   3.893  0.1646 -0.0521  0.1141
 9374W        W 9374   3.175   5.857   9.046 -0.2611 -0.1169 -0.2441
 9375W        W 9375   7.782   3.559   2.854  0.1100 -0.1083 -0.0488
 9376W        W 9376   9.893   0.737   4.857 -0.1804 -0.2954  0.4685
 9377W        W 9377   5.813   7.861   8.110 -0.2076  0.1209  0.1117
 9378W        W 9378   2.037   5.478   7.310 -0.1515 -0.1147 -0.1285
 9379W        W 9379   7.001   9.123   9.951 -0.1829 -0.2746 -0.2963
 9380W        W 9380   3.867   1.882   6.101 -0.0424  0.0427  0.0061
 9381W        W 9381   5.322   3.156   1.441 -0.0471  0.1514 -0.0393
 9382W        W 9382   5.009   2.162   9.028 -0.0153  0.4495  0.0544
 9383W        W 9383   7.807   3.695   7.485  0.0586  0.2305 -0.3392
 9384W        W 9384   4.165   3.955   3.687 -0.0257 -0.1509 -0.1720
 9385W        W 9385   8.935   4.095   9.853 -0.0199 -0.0132 -0.0144
 9386W        W 9386   7.974   5.479   6.412  0.1003  0.0297 -0.1331
 9387W        W 9387   8.924   2.587   2.674  0.2935  0.2565  0.0139
 9388W        W 9388   2.559   9.118   4.592  0.2452 -0.0237 -0.0138
 9389W        W 9389  10.305   2.470   7.091  0.4183 -0.0208  0.0780
 9390W        W 9390   1.497  10.192   4.473  0.2996 -0.3199  0.0058
 9391W        W 9391   6.595   3.313   8.162  0.0954  0.1425  0.1566
 9392W        W 9392   2.847   2.998   1.146 -0.1535  0.0950 -0.0467
 9393W        W 9393   8.836   4.344   4.156 -0.0105  0.2688  0.1439
 9394W        W 9394   8.142   2.777   9.370 -0.3623 -0.1141  0.3804
 9395W        W 9395   7.679   9.194   6.252 -0.0735  0.1872 -0.4071
 9396W        W 9396  10.105   7.204   8.125 -0.1134  0.2557 -0.3359
 9397W        W 9397   7.021   0.235   6.037 -0.0057 -0.1856  0.2566
 9398W        W 9398   1.856   7.619   3.057 -0.1775  0.1729 -0.3304
 9399W        W 9399   6.556   6.877   3.676 -0.0954  0.0470 -0.0152
 9400W        W 9400   3.408   9.727   9.717 -0.2065  0.4520  0.3153
 9401W        W 9401   2.355  10.340   0.567  0.1498  0.0134  0.2687
 9402W        W 9402   8.295   7.641   1.363 -0.0032  0.3016  0.2351
 9403W        W 9403   2.296   5.126   4.363 -0.0591 -0.0608  0.0282
 9404W        W 9404   6.580   8.103   5.096 -0.0335 -0.0761  0.2680
 9405W        W 9405   4.320   9.890   1.689 -0.0024 -0.2380 -0.0411
 9406W        W 9406   4.914   1.016   2.732  0.0176  0.0402 -0.2642
 9407W        W 9407   0.819   3.285   1.339 -0.0015  0.4943 -0.1443
 9408W        W 9408  10.034   9.724   6.236  0.1224 -0.0941  0.2729
 9409W        W 9409   5.751  10.104   2.308 -0.1081 -0.0968  0.0696
 9410W        W 9410   1.748   8.014   1.312  0.0368  0.1492  0.3551
 9411W        W 9411   7.764   9.760   9.982 -0.2189 -0.0646 -0.4481
 9412W        W 9412   4.316   7.325   9.775 -0.0264 -0.2621 -0.1106
 9413W        W 9413   1.443   6.150   7.413 -0.0638 -0.3175  0.1459
 9414W        W 9414   4.362   8.543   3.097  0.0057  0.1616  0.2294
 9415W        W 9415   2.194   5.000   9.757  0.1820 -0.1527  0.0158
 9416W        W 9416  10.065   9.276   0.092 -0.1164  0.0185  0.1168
 9417W        W 9417   2.620   8.792   5.704  0.2004  0.0067 -0.0837
 9418W        W 9418   5.190   9.945   1.111  0.1138  0.2492  0.0523
 9419W        W 9419   2.118   3.801   4.820 -0.0083 -0.0557  0.1285
 9420W        W 9420   4.865   2.975   1.335 -0.1629  0.0317 -0.1703
 9421W        W 9421   6.098  10.185   8.448  0.3196 -0.1558 -0.1093
 9422W        W 9422   9.130   6.152   7.321 -0.0456 -0.1977  0.3978
 9423W        W 9423   3.552   0.844   1.232  0.0069 -0.0370  0.1210
 9424W        W 9424   6.817   1.585   1.358 -0.1297  0.1338 -0.2978
 9425W        W 9425   3.241   3.253   6.522 -0.1489 -0.0031  0.0546
 9426W        W 9426  10.070   9.739   8.162 -0.0478 -0.2075  0.0178
 9427W        W 9427   2.674   9.925   6.303  0.0357 -0.1132 -0.1048
 9428W        W 9428   0.074  10.284   7.069  0.1189 -0.2236  0.1158
 9429W        W 9429   6.071   1.988   6.136 -0.1137 -0.3659  0.4377
 9430W        W 9430   1.903   0.606   3.045  0.2295 -0.3854 -0.0167
 9431W        W 9431   0.478   3.809   0.246 -0.0848  0.1681 -0.1002
 9432W        W 9432   8.801   8.440   3.546 -0.2193 -0.2059  0.2187
 9433W        W 9433   6.130   3.909   3.208 -0.2213  0.2569  0.3665
 9434W        W 9434   3.430   8.126   0.703  0.1382 -0.2794 -0.0242
 9435W        W 9435   5.216   6.787   5.877  0.2936  0.4440  0.1771
 9436W        W 9436   1.854   1.378   4.352 -0.0979  0.2190 -0.1326
 9437W        W 9437   9.490   3.701   2.359 -0.1527  0.0152  0.1579
 9438W        W 9438   0.529   0.944   1.232  0.3631  0.0048  0.1834
 9439W        W 9439   7.086   9.152   6.319  0.1581  0.2267  0.2220
 9440W        W 9440   3.743   3.572   1.736 -0.0426 -0.1516  0.0686
 9441W        W 9441  10.080   1.834   2.511  0.1519  0.2531  0.1810
 9442W        W 9442   0.838   9.620   4.295  0.0300  0.2163  0.2092
 9443W        W 9443   9.765   3.653   5.767 -0.5567  0.0023 -0.0119
 9444W        W 9444  10.185   8.494   9.809  0.2323  0.2121  0.4309
 9445W        W 9445   3.813   0.538   9.113  0.0094  0.3569  0.2681
 9446W        W 9446   0.794   2.080   8.862 -0.2047 -0.4443  0.2318
 9447W        W 9447   4.489   9.063   8.250 -0.0259 -0.0137  0.2468
 9448W        W 9448   0.566   5.448   8.995  0.4009  0.0865 -0.1543
 9449W        W 9449   3.114   5.313   6.809 -0.2528  0.0168 -0.2449
 9450W        W 9450   8.306   9.573   4.687 -0.0306 -0.2208 -0.3731
 9451W        W 9451   4.551   7.487   1.037  0.1870 -0.2530 -0.0324
 9452W        W 9452   8.579  10.171   7.257  0.3150 -0.3749  0.2081
 9453W        W 9453   8.291   6.346   4.039 -0.1588 -0.1084 -0.3242
 9454W        W 9454   9.665   7.993   1.349  0.1460 -0.0938  0.0621
 9455W        W 9455   7.433   8.793   6.146  0.2059  0.1168  0.2133
 9456W        W 9456   5.820   5.215   0.002 -0.0716  0.0500  0.0649
 9457W        W 9457   1.443   4.285   1.919 -0.3023 -0.2701 -0.4110
 9458W        W 9458   2.211   5.799   9.393  0.1782 -0.0248  0.0630
 9459W        W 9459   2.021   3.632   7.175 -0.1246  0.0692 -0.1060
 9460W        W 9460   1.709   3.821   1.923  0.2080  0.1106 -0.4346
 9461W        W 9461   6.302   0.531   0.816 -0.0583  0.0600  0.1988
 9462W        W 9462   2.108   8.371   3.156  0.1663 -0.1222  0.0676
 9463W        W 9463   6.278   1.495   6.427 -0.1298  0.0441 -0.1029
 9464W        W 9464   7.159   9.114   7.400  0.3332 -0.0483  0.2473
 9465W        W 9465   1.234   7.154   5.504 -0.3000 -0.1148 -0.2096
 9466W        W 9466   0.407   0.888   4.487  0.3111  0.0711 -0.1834
 9467W        W 9467   7.413   8.818  10.161  0.3514 -0.0742 -0.2081
 9468W        W 9468   3.914   2.489   5.494 -0.1019 -0.0909 -0.2039
 9469W        W 9469   8.453   8.433   7.314  0.0498 -0.0664 -0.1516
 9470W        W 9470   5.334   9.745   2.570 -0.1203  0.3988 -0.0799
 9471W        W 9471   9.083   5.334   3.659  0.0679  0.2202 -0.1464
 9472W        W 9472   1.774   3.920   7.614 -0.0316  0.2439 -0.2683
 9473W        W 9473   2.435   0.696   4.534 -0.2573 -0.1181  0.0177
 9474W        W 9474   9.022   7.742   2.911 -0.0722  0.0281 -0.0437
 9475W        W 9475   6.868   6.541   9.877  0.0538 -0.0710 -0.0084
 9476W        W 9476   6.938   1.179   0.101  0.0056 -0.0120 -0.4747
 9477W        W 9477   4.180   2.560   7.291 -0.1238 -0.0538 -0.1625
 9478W        W 9478   8.673   2.006   6.515 -0.2043 -0.1914  0.1978
 9479W        W 9479   8.317   9.889   2.850 -0.0851  0.0186  0.2669
 9480W        W 9480   3.105   3.633   0.108  0.0946  0.5702  0.1917
 9481W        W 9481   8.472   1.842   3.817 -0.2628  0.2516  0.2008
 9482W        W 9482   3.515   9.380   4.927  0.3289 -0.2425  0.0710
 9483W        W 9483   2.946   1.287  10.293 -0.1827  0.1251  0.1150
 9484W        W 9484   5.745   7.967   4.544  0.0402  0.1959 -0.2162
 9485W        W 9485   6.083  10.313   0.152 -0.1322 -0.1029 -0.3249
 9486W        W 9486   0.685   2.178   0.021 -0.0122 -0.1628  0.1305
 9487W        W 9487   6.423   7.965   4.577 -0.1333 -0.0717  0.2793
 9488W        W 9488   9.931   3.695   3.213  0.0213  0.2104 -0.0850
 9489W        W 9489   8.970   6.495   8.864 -0.0937 -0.1042  0.0955
 9490W        W 9490   4.343   2.576   3.766 -0.1298  0.0270  0.1542
 9491W        W 9491   7.106   7.306   8.861  0.0194 -0.3888  0.1365
 9492W        W 9492   8.633   1.526   2.811 -0.3687  0.0720 -0.3569
 9493W        W 9493   0.976   0.137   7.211 -0.1042  0.1287 -0.0435
 9494W        W 9494   6.353   3.304   1.994  0.2845  0.1385 -0.1209
 9495W        W 9495  10.158   5.875   3.596  0.0703 -0.1244  0.2711
 9496W        W 9496   7.500   2.367   5.188 -0.0531  0.1940  0.0595
 9497W        W 9497   9.402   4.407   5.645  0.2948  0.4105 -0.1091
 9498W        W 9498   4.835   0.026   0.459  0.0005  0.0404 -0.2010
 9499W        W 9499   3.598   8.745   7.236  0.2790  0.1274  0.0593
 9500W        W 9500   2.788   4.856   4.109  0.2330  0.0334 -0.3245
 9501W        W 9501   3.848   0.419   8.345 -0.0346  0.4506  0.2804
 9502W        W 9502   2.022   2.568   2.335 -0.4520 -0.0910 -0.1875
 9503W        W 9503   8.235   6.884   9.672 -0.1685  0.1880 -0.2432
 9504W        W 9504   0.499   5.032   6.500 -0.3654  0.1645  0.0546
 9505W        W 9505   3.493   1.902   4.188 -0.0838  0.2305 -0.3233
 9506W        W 9506   6.154   1.739   0.574 -0.3890 -0.0170  0.1382
 9507W        W 9507   4.836   6.073   5.460  0.0798 -0.1482  0.3309
 9508W        W 9508   7.788  10.235   9.706  0.1641  0.0332 -0.1393
 9509W        W 9509   8.591   4.421   7.139  0.4231 -0.2811 -0.0968
 9510W        W 9510   2.968   0.674   3.673  0.1825  0.0946  0.2465
 9511W        W 9511   9.273   0.457   6.586  0.0181  0.2069 -0.0052
 9512W        W 9512   8.967   4.163   5.470 -0.0513  0.0188  0.1470
 9513W        W 9513   9.159   3.655  10.143 -0.0023  0.1287  0.1674
 9514W        W 9514   3.359   3.770   4.211  0.0807 -0.1319  0.4225
 9515W        W 9515   6.081   6.400   6.823 -0.0256 -0.0572 -0.2053
 9516W        W 9516   1.508   4.113   6.635 -0.2868  0.0686  0.0403
 9517W        W 9517   0.557   3.491   3.418  0.3490 -0.2083  0.1165
 9518W        W 9518   3.773   2.906   6.406 -0.3522  0.1963 -0.0308
 9519W        W 9519   7.661   0.583   7.904 -0.1193  0.0551 -0.0095
 9520W        W 9520   1.003   6.947   8.292 -0.0369  0.1306  0.0774
 9521W        W 9521   4.745   4.536   0.366  0.1045  0.1421  0.3569
 9522W        W 9522   9.923   5.919   6.065  0.1169 -0.0074 -0.1074
 9523W        W 9523   0.938   2.523   3.622  0.4123 -0.0050 -0.0152
 9524W        W 9524   2.592   0.078   8.660  0.1616  0.1077 -0.1582
 9525W        W 9525   8.385   9.784   3.485 -0.1608  0.3290  0.2392
 9526W        W 9526   6.914   0.830   5.088  0.1043  0.5200  0.1061
 9527W        W 9527   3.164   4.272   1.077 -0.3127 -0.0166 -0.0651
 9528W        W 9528   6.124   4.684   7.726  0.1563  0.2434  0.0228
 9529W        W 9529   9.770   2.397   2.744  0.1480  0.5250  0.1871
 9530W        W 9530   0.230   7.086  10.275  0.2362 -0.1608  0.0290
 9531W        W 9531   1.241   4.685   6.282 -0.0891  0.1198 -0.1123
 9532W        W 9532   5.421   5.913   8.314  0.2071 -0.1379 -0.2705
 9533W        W 9533   5.215   9.263   3.304 -0.2650 -0.0461 -0.1172
 9534W        W 9534   8.991   0.167   1.946  0.0458 -0.2729  0.0596
 9535W        W 9535   4.809   5.047   2.265  0.1497 -0.1330 -0.1255
 9536W        W 9536   7.049   7.783   6.038 -0.0464 -0.0845  0.1208
 9537W        W 9537   1.074   2.015   2.024 -0.2357  0.0829 -0.0965
 9538W        W 9538  10.152   9.331   3.578  0.0434  0.2153 -0.1740
 9539W        W 9539   5.744   2.956   7.847  0.2097 -0.0487 -0.0467
 9540W        W 9540   9.751   7.915   4.443  0.0601  0.1438  0.1599
 9541W        W 9541   5.095   3.958   8.682  0.1948 -0.0145  0.2662
 9542W        W 9542   7.390   1.025   2.642  0.1232 -0.2613  0.0680
 9543W        W 9543   8.478   7.700   6.473  0.2930 -0.0170  0.1109
 9544W        W 9544   9.178   2.022   6.422 -0.1253 -0.3638  0.0998
 9545W        W 9545   6.406   7.672   2.717 -0.3317 -0.0803 -0.1099
 9546W        W 9546   9.243   0.658   4.522 -0.5751  0.1640 -0.1879
 9547W        W 9547   9.264   2.775   8.513  0.1536 -0.0795  0.0180
 9548W        W 9548   5.889   4.259   8.150  0.0501 -0.1207 -0.2137
 9549W        W 9549   7.797   1.767   5.236  0.2584 -0.2979 -0.2068
 9550W        W 9550   2.916   1.997   5.356 -0.0044  0.2909  0.0341
 9551W        W 9551   8.056   3.261   5.125 -0.4835  0.0511 -0.0096
 9552W        W 9552   0.332   6.895   6.503  0.0817  0.0048 -0.2092
 9553W        W 9553   5.330   3.795   9.667 -0.1672  0.5138  0.1324
 9554W        W 9554   4.268   5.243  10.123  0.1199  0.1111  0.1012
 9555W        W 9555   5.851   6.194   1.561  0.2324 -0.2289  0.1732
 9556W        W 9556   4.140   1.317   4.454  0.0151  0.1576 -0.2128
 9557W        W 9557   7.334   5.639   0.358  0.0869  0.1320  0.0307
 9558W        W 9558   2.898   4.699   1.124 -0.2903 -0.2886 -0.1237
 9559W        W 9559   4.177   8.936   5.335 -0.0432  0.1255  0.3022
 9560W        W 9560   2.168   7.516   6.107  0.4711 -0.0276  0.1609
 9561W        W 9561   8.749   6.242   0.603 -0.2136 -0.0825  0.0952
 9562W        W 9562   1.478  10.162   9.066  0.0106  0.0849  0.2876
 9563W        W 9563   5.708   8.901   4.167  0.1683  0.0842  0.0383
 9564W        W 9564   2.736   0.164   5.560  0.3036  0.1343 -0.0600
 9565W        W 9565   3.784   5.044   7.794 -0.1847  0.1955 -0.0216
 9566W        W 9566   8.870   8.508   6.148 -0.0230  0.0814  0.0004
 9567W        W 9567   1.377   9.873   1.025  0.1261 -0.2420 -0.1376
 9568W        W 9568   3.984   9.580   0.528 -0.0713  0.0164  0.3219
 9569W        W 9569   6.564   7.417   6.767 -0.1235 -0.5723 -0.4123
 9570W        W 9570   5.749   3.548   1.501  0.0154 -0.0316 -0.0169
 9571W        W 9571   0.167   2.463   2.900  0.0191  0.1725 -0.0234
 9572W        W 9572   6.167   7.735   0.609 -0.2289 -0.1255 -0.1477
 9573W        W 9573   0.698   4.675   5.047  0.0885 -0.0299 -0.0363
 9574W        W 9574   1.588   8.661   2.097 -0.0042  0.3757 -0.0286
 9575W        W 9575   0.522   4.341   9.605  0.1775  0.0359  0.0219
 9576W        W 9576   7.824   3.524   4.804  0.0446 -0.1559 -0.2163
 9577W        W 9577   6.659   4.266   5.165  0.0091  0.0366  0.0691
 9578W        W 9578   4.524   6.637   9.537  0.1762  0.0407  0.1919
 9579W        W 9579   5.903   7.920   3.769 -0.0805  0.1873  0.3319
 9580W        W 9580   1.482   0.325   5.092  0.1500 -0.2850  0.0585
 9581W        W 9581   2.731   9.687   8.105  0.3365 -0.0989 -0.1850
 9582W        W 9582   1.758   8.892   1.591  0.0324 -0.2836 -0.0603
 9583W        W 9583   0.874   2.483   9.120  0.0551  0.0873  0.1392
 9584W        W 9584   3.589   8.811   2.396 -0.0278  0.1135  0.0555
 9585W        W 9585   4.164   5.861   9.575  0.1494 -0.1865  0.0613
 9586W        W 9586   7.357   1.593   1.333  0.0373  0.1265 -0.1699
 9587W        W 9587   1.652   2.086   7.352  0.2994  0.2205 -0.1736
 9588W        W 9588   6.977   4.238   0.585  0.1299 -0.0466  0.1879
 9589W        W 9589   0.429   4.001   1.454  0.2634  0.1215  0.0788
 9590W        W 9590   4.050   4.345   4.252 -0.1438 -0.0998  0.0048
 9591W        W 9591   7.513   5.313   5.189  0.1285  0.1885 -0.0072
 9592W        W 9592  10.056   4.509   4.206 -0.0706  0.0390  0.3629
 9593W        W 9593   0.940  10.142   2.461  0.0531 -0.1806 -0.0607
 9594W        W 9594   7.037   8.254   0.474 -0.3011  0.0876 -0.0194
 9595W        W 9595  10.136   0.231   4.606 -0.1197  0.0298 -0.3668
 9596W        W 9596   6.250   6.248   4.406  0.0832 -0.1283  0.0702
 9597W        W 9597   4.906   1.891   7.108  0.0666 -0.0605 -0.0314
 9598W        W 9598   8.207   7.766   7.979 -0.2016 -0.1137  0.0128
 9599W        W 9599   7.795   5.232   9.958  0.1503 -0.1652 -0.3751
 9600W        W 9600   1.698   1.898   0.237 -0.2460  0.1759 -0.4556
 9601W        W 9601   1.701   6.900   3.861  0.0191 -0.4100  0.1699
 9602W        W 9602   9.318   4.165   5.080 -0.0581  0.0921  0.1647
 9603W        W 9603   4.938   3.254   8.149 -0.0038 -0.3920  0.0802
 9604W        W 9604   1.756   4.442   5.356 -0.2206 -0.0679  0.1761
 9605W        W 9605   2.100   8.836   3.329  0.1206  0.0947 -0.1013
 9606W        W 9606   8.472   8.346   0.054  0.0831 -0.0953  0.0939
 9607W        W 9607   6.680   1.638   6.173 -0.0202 -0.0021 -0.0464
 9608W        W 9608   6.976   2.916   3.322 -0.2857  0.0601 -0.0114
 9609W        W 9609   6.946   7.336   0.437  0.0142 -0.0849 -0.2800
 9610W        W 9610   7.410   2.361   4.047  0.1207 -0.2156  0.2272
 9611W        W 9611   5.116   3.564   7.327  0.0842 -0.1234 -0.0791
 9612W        W 9612   8.222   9.678   9.887 -0.0535 -0.1531  0.1160
 9613W        W 9613   8.235   2.018   0.954  0.0696  0.1635 -0.1169
 9614W        W 9614   1.107   4.855   3.345  0.0921  0.1925  0.2981
 9615W        W 9615   4.226   8.275   1.516 -0.0694 -0.2005  0.0593
 9616W        W 9616   4.879   3.747   8.249  0.1723 -0.1039 -0.2656
 9617W        W 9617   8.326   2.390   1.261 -0.3200  0.1026  0.0810
 9618W        W 9618  10.292   0.804   3.643  0.1946  0.0345 -0.1949
 9619W        W 9619   4.384   8.350   2.550  0.1207  0.0711  0.3605
 9620W        W 9620   6.218   9.230   5.192 -0.3134 -0.1343 -0.0778
 9621W        W 9621   7.550   3.066   0.785  0.0113  0.0300  0.0552
 9622W        W 9622   4.399   8.341   8.822 -0.1656 -0.1045  0.0556
 9623W        W 9623   0.811   1.604  10.289 -0.0861 -0.0353 -0.1006
 9624W        W 9624   8.625   9.880   0.352  0.1539  0.2290  0.1964
 9625W        W 9625   0.960   1.290   8.522  0.2985  0.0561 -0.2675
 9626W        W 9626   9.134   4.163   0.063  0.0026  0.4020  0.1200
 9627W        W 9627   6.016   9.880   2.757 -0.0260 -0.3026 -0.0199
 9628W        W 9628   0.099   0.930   4.091  0.1027  0.3640 -0.2289
 9629W        W 9629  10.073   2.815   2.068 -0.1318  0.2056 -0.2150
 9630W        W 9630   8.651   9.274   4.450 -0.0121  0.2099 -0.0983
 9631W        W 9631   4.350   1.664   7.210  0.3415  0.0380  0.3825
 9632W        W 9632   6.603   0.858   8.460 -0.0400 -0.0654 -0.2461
 9633W        W 9633   1.704   4.885   0.125  0.3601 -0.0255 -0.3351
 9634W        W 9634   1.576   0.510   0.610  0.1354  0.1167  0.1040
 9635W        W 9635   2.503   2.415   2.040 -0.0253  0.1541 -0.3497
 9636W        W 9636   2.713   9.529   1.272  0.0951  0.4235  0.0722
 9637W        W 9637   6.995   5.544   8.018 -0.1044 -0.2000 -0.0093
 9638W        W 9638   5.001   0.617   6.128 -0.2102  0.4951 -0.3422
 9639W        W 9639  10.017   1.838   8.281  0.2326 -0.2287  0.0664
 9640W        W 9640   5.547   8.952   7.197 -0.4131  0.2316 -0.4436
 9641W        W 9641   1.150   0.346   3.802 -0.1289  0.0611  0.0661
 9642W        W 9642   9.578   6.166   3.703  0.1518 -0.0478  0.3001
 9643W        W 9643   0.481   0.413   5.769  0.0125  0.0253 -0.0915
 9644W        W 9644   1.535   9.999   9.583 -0.0631  0.0998  0.2082
 9645W        W 9645   3.895   8.830   6.814  0.0336  0.1047  0.1729
 9646W        W 9646   0.922   4.111   9.826 -0.0617 -0.0090  0.1411
 9647W        W 9647   2.544   0.499   7.218  0.0592  0.3140 -0.0140
 9648W        W 9648   8.323   1.016  10.039 -0.1588 -0.2455 -0.1907
 9649W        W 9649   1.987   9.461   5.778  0.2315  0.1626 -0.0910
 9650W        W 9650   9.412   1.696   1.528 -0.0768 -0.2881  0.2623
 9651W        W 9651   3.394   1.352   9.372 -0.0412 -0.0797  0.1705
 9652W        W 9652   5.026   0.742   5.000  0.0422 -0.0927 -0.0194
 9653W        W 9653   3.009   4.605   7.251  0.1032 -0.0226  0.3000
 9654W        W 9654   2.445   9.707   3.276 -0.1120 -0.1697 -0.1574
 9655W        W 9655   0.401   9.653   0.284 -0.1794  0.0847 -0.0999
 9656W        W 9656   8.176   1.873   9.478 -0.1462 -0.2453  0.0637
 9657W        W 9657   7.899   7.320   9.708 -0.1986 -0.0613  0.0863
 9658W        W 9658   3.636   2.663   8.886  0.0429 -0.0169  0.1169
 9659W        W 9659   6.098   3.260   7.466 -0.1820 -0.0611  0.3918
 9660W        W 9660   7.188   5.143   3.247  0.3929 -0.1169  0.1690
 9661W        W 9661   1.797   2.984   3.106  0.2060 -0.3533  0.0952
 9662W        W 9662   3.429   0.198   9.200 -0.5706  0.2285  0.4830
 9663W        W 9663   4.019   6.469   7.000  0.0086  0.1184  0.3276
 9664W        W 9664   0.494   1.867   9.967  0.1550 -0.0282 -0.1177
 9665W        W 9665   7.051   2.425   6.679 -0.4157  0.0527 -0.1823
 9666W        W 9666   3.039   6.399   5.871  0.0140 -0.0648  0.2841
 9667W        W 9667   9.768   3.679   9.475 -0.0944  0.0533 -0.3304
 9668W        W 9668   3.397   0.620   2.897  0.1742 -0.2298  0.0774
 9669W        W 9669   7.301   0.668   6.213 -0.0525  0.0264  0.2088
 9670W        W 9670   1.930   5.260   6.019 -0.1909  0.0383  0.1520
 9671W        W 9671   2.818   3.990   4.239  0.1905 -0.1198  0.0004
 9672W        W 9672   4.269   3.330   9.710 -0.0355 -0.3047 -0.1629
 9673W        W 9673   6.803   0.678   3.697 -0.0792 -0.1735 -0.2790
 9674W        W 9674   9.235   3.613   7.534 -0.0060  0.2068  0.0082
 9675W        W 9675   4.180   0.882   4.687 -0.0440 -0.0113  0.0049
 9676W        W 9676   7.697   7.902   7.929 -0.1846 -0.0179  0.2011
 9677W        W 9677   0.319   2.379   9.954 -0.0957  0.3905 -0.1004
 9678W        W 9678   1.171   2.232   6.527 -0.2489 -0.1345 -0.1790
 9679W        W 9679   9.977   2.974   8.221  0.0667 -0.0688  0.0008
 9680W        W 9680   3.861   8.322   8.837 -0.1482 -0.1375 -0.1592
 9681W        W 9681   6.998   3.783   4.936  0.1359  0.1340 -0.0443
 9682W        W 9682   8.011  10.142  10.139  0.3097 -0.1333  0.1430
 9683W        W 9683   1.646   5.133   2.154  0.5431  0.0081  0.2610
 9684W        W 9684   3.325   3.630   9.608 -0.0177 -0.0892 -0.1047
 9685W        W 9685   8.687   4.352   2.052  0.1450  0.2525 -0.0474
 9686W        W 9686   3.089   5.497   7.961  0.0060  0.0115  0.2691
 9687W        W 9687   1.798   7.829   1.828 -0.1698 -0.0681 -0.2852
 9688W        W 9688   4.712   3.441   6.057 -0.0731  0.1944  0.1189
 9689W        W 9689   1.698   9.899   0.071  0.0126  0.2506 -0.2690
 9690W        W 9690   6.289   1.661   4.138  0.0877  0.3436  0.1296
 9691W        W 9691   6.498   8.090   1.054 -0.0077 -0.1574 -0.1880
 9692W        W 9692  10.266   4.347   2.950 -0.1828 -0.1754  0.2221
 9693W        W 9693   8.635   2.582   5.259 -0.0449 -0.1043 -0.1032
 9694W        W 9694   2.188   6.271   8.626  0.3454 -0.1977  0.1232
 9695W        W 9695   8.650   8.941   0.672  0.1401  0.1726 -0.1674
 9696W        W 9696   9.940   7.153   7.067  0.1024  0.4093  0.2004
 9697W        W 9697   5.904   1.867   1.017  0.1401  0.0608 -0.3413
 9698W        W 9698   8.978   6.268   1.218  0.1922 -0.2615  0.0549
 9699W        W 9699   7.590   0.107   8.734 -0.2944 -0.1733 -0.0370
 9700W        W 9700   3.391   2.867   1.169 -0.0433  0.1616  0.0709
 9701W        W 9701   9.642   1.418   9.752 -0.0079  0.0958  0.0962
 9702W        W 9702   1.160   2.518   1.645 -0.0667 -0.1728 -0.1084
 9703W        W 9703   2.609   9.323   4.099  0.0234  0.1765  0.0700
 9704W        W 9704   7.899   1.550   7.054  0.0173  0.1560 -0.2527
 9705W        W 9705   2.159   2.028   6.760  0.1350 -0.3854 -0.1310
 9706W        W 9706   9.904  10.084   4.200 -0.0807 -0.1147  0.1581
 9707W        W 9707   2.953   7.275   6.739 -0.1084 -0.2108  0.4067
 9708W        W 9708  10.164   2.340   2.421 -0.1681  0.1658 -0.3090
 9709W        W 9709   6.093   2.454   3.278 -0.1838 -0.3059  0.0006
 9710W        W 9710   0.674   7.111   2.438  0.0337 -0.0540  0.2292
 9711W        W 9711   8.931   5.021   5.564 -0.2796  0.0299 -0.1200
 9712W        W 9712   8.857   4.621   1.184 -0.1452  0.2607  0.2423
 9713W        W 9713   8.394   9.576   0.064 -0.1537  0.4193  0.3990
 9714W        W 9714   8.951   5.814   0.305  0.0143 -0.0805 -0.2487
 9715W        W 9715   1.442   3.463   5.356  0.3723  0.3193 -0.1423
 9716W        W 9716   1.456   5.390   0.461  0.0168  0.1301 -0.2574
 9717W        W 9717   3.956   9.353   5.177  0.0035  0.2074 -0.1082
 9718W        W 9718   8.835   2.188   6.052  0.0818  0.2278  0.1466
 9719W        W 9719   5.479   1.663   3.245  0.0289  0.3138 -0.3005
 9720W        W 9720   5.193   0.168   4.272 -0.2721 -0.0475  0.2031
 9721W        W 9721   2.323   1.487   6.121 -0.4339  0.4222 -0.1419
 9722W        W 9722   1.070   7.113   9.698 -0.0435 -0.0445  0.1875
 9723W        W 9723   7.379   0.508   4.993 -0.1513  0.1540 -0.0267
 9724W        W 9724   3.043   6.629   2.127 -0.1268 -0.3554 -0.2072
 9725W        W 9725   9.754   9.447   7.832 -0.2802 -0.0716 -0.1506
 9726W        W 9726   3.595   1.398   6.094 -0.1736  0.0646 -0.0779
 9727W        W 9727   7.268   2.929   8.956 -0.2001 -0.3130  0.0150
 9728W        W 9728   7.174   2.497   7.164  0.5063  0.0088  0.3460
 9729W        W 9729   7.162   4.503   5.503 -0.1926  0.0412  0.0531
 9730W        W 9730   4.404   6.280   0.149 -0.0734 -0.3221  0.2519
 9731W        W 9731   8.694   8.362   2.389  0.2083  0.0917 -0.0908
 9732W        W 9732   6.527   0.868   2.274  0.0223  0.1482 -0.3223
 9733W        W 9733   2.296   4.610   1.436 -0.1472  0.0812  0.1559
 9734W        W 9734   2.704   5.179   3.106 -0.5209  0.3048 -0.0558
 9735W        W 9735   0.227   9.666   7.962  0.3699 -0.3080 -0.3264
 9736W        W 9736   4.069   7.254   5.839  0.0700  0.1255 -0.1374
 9737W        W 9737   2.132   8.174   5.459  0.1191  0.1239  0.0943
 9738W        W 9738   5.592   6.835   8.174 -0.0205  0.1762  0.1827
 9739W        W 9739  10.029   8.910   5.585  0.2108 -0.1581  0.0253
 9740W        W 9740   3.458   4.113   5.973  0.0602  0.1195 -0.1547
 9741W        W 9741   1.007   7.905   4.537  0.0031 -0.0575 -0.2339
 9742W        W 9742   1.044  10.065   4.617 -0.0295 -0.0064  0.1212
 9743W        W 9743   5.864   3.888   1.061 -0.1848  0.0795 -0.2977
 9744W        W 9744   2.536   4.523   8.816 -0.1637 -0.1930 -0.0487
 9745W        W 9745   6.860   7.349   5.391  0.0273 -0.0263 -0.1393
 9746W        W 9746   8.124   8.001   0.999 -0.1033 -0.1905  0.1492
 9747W        W 9747   2.721   8.153   3.039 -0.0536  0.0650  0.0393
 9748W        W 9748   9.420  10.192   8.559 -0.0503 -0.4277 -0.0440
 9749W        W 9749   4.663   2.409   1.347 -0.1078 -0.2194  0.1910
 9750W        W 9750   1.532   8.997   7.996  0.1963 -0.2104  0.2839
 9751W        W 9751   1.525   1.347   6.830 -0.1329  0.0549 -0.2422
 9752W        W 9752   0.612   1.797   4.373 -0.1409 -0.0790  0.2492
 9753W        W 9753   1.083   5.137   2.247  0.0185  0.0038  0.1930
 9754W        W 9754   4.739   2.283   3.686 -0.2350 -0.0171 -0.1020
 9755W        W 9755   0.177   0.414   2.165  0.0533 -0.1000 -0.0378
 9756W        W 9756   3.627   8.160   7.637 -0.0151 -0.1690  0.2599
 9757W        W 9757   6.422   7.126   7.311  0.2145 -0.0922  0.0713
 9758W        W 9758   8.272   5.244   5.931 -0.0760  0.1329 -0.2058
 9759W        W 9759   1.315   7.235  10.175  0.0485  0.0941 -0.3259
 9760W        W 9760   2.418   5.578   1.130  0.0815  0.0978  0.3157
 9761W        W 9761   4.584   7.395   8.337  0.0408 -0.2210 -0.2131
 9762W        W 9762   6.861   6.930   7.531  0.0315 -0.4064 -0.3157
 9763W        W 9763   2.409   4.123   4.600 -0.1043 -0.0450  0.0895
 9764W        W 9764   4.343   4.986   8.510 -0.1506  0.3676  0.2650
 9765W        W 9765   5.585   6.034   3.074 -0.1051  0.0074 -0.1614
 9766W        W 9766   6.984   3.315   9.280 -0.0767  0.1842  0.1507
 9767W        W 9767   9.447   4.477   2.908 -0.0490  0.3785 -0.0453
 9768W        W 9768   3.315   1.748   4.935  0.2465 -0.0314  0.1036
 9769W        W 9769   3.187   3.041   5.076  0.2207 -0.1714 -0.2220
 9770W        W 9770   0.614   1.758   2.960 -0.2087  0.1080 -0.1874
 9771W        W 9771   0.255   9.799   3.095 -0.1902 -0.2247 -0.2286
 9772W        W 9772   2.134   6.569   0.744 -0.1614 -0.4322 -0.0487
 9773W        W 9773   8.627   9.546   5.941 -0.1306 -0.3112  0.0430
 9774W        W 9774   2.525   6.341  10.231  0.3288 -0.0524 -0.3896
 9775W        W 9775   1.279   2.497   8.867 -0.1613 -0.0910 -0.1347
 9776W        W 9776   4.023  10.182   6.411 -0.2064  0.1609 -0.0616
 9777W        W 9777   0.553   3.077   6.403 -0.0099  0.0439  0.0753
 9778W        W 9778   3.745   9.679   3.534 -0.0224 -0.1922 -0.5491
 9779W        W 9779   7.199   6.333   8.724  0.1046  0.2105  0.0504
 9780W        W 9780   6.157   2.163   1.341 -0.1453  0.1027  0.1941
 9781W        W 9781   2.870   6.955   5.918 -0.1169 -0.0799 -0.1026
 9782W        W 9782   3.236   0.328   5.677  0.2025 -0.0037  0.0851
 9783W        W 9783   5.491  10.093   5.674  0.1064 -0.3670 -0.0270
 9784W        W 9784   7.580   4.973   0.893 -0.1685 -0.0204  0.0954
 9785W        W 9785   5.426   9.358   2.068 -0.1695  0.0127  0.1112
 9786W        W 9786   7.186   5.113   1.201  0.1362 -0.2640  0.1672
 9787W        W 9787   5.472   2.654   2.158 -0.1957  0.0144 -0.1765
 9788W        W 9788   2.971   6.224  10.312 -0.0819  0.1634  0.0760
 9789W        W 9789   7.945   4.817   0.636 -0.1058 -0.1164  0.3705
 9790W        W 9790   2.149   9.609  10.266  0.0655 -0.1565 -0.0005
 9791W        W 9791   8.475   9.633   9.338 -0.2419 -0.1626 -0.0545
 9792W        W 9792   9.219   1.403   6.096  0.2823 -0.2468 -0.3565
 9793W        W 9793   7.987   1.726   0.545  0.0533  0.1449 -0.0524
 9794W        W 9794   5.344   4.847   1.509 -0.1289  0.2361 -0.2035
 9795W        W 9795   9.374   3.494   4.285 -0.0357  0.2336 -0.3017
 9796W        W 9796   2.391   4.436   1.896  0.1604  0.2160 -0.2176
 9797W        W 9797   4.790   6.170  10.153 -0.0730 -0.1365  0.2981
 9798W        W 9798  10.131   5.461   9.779  0.2370  0.1319  0.0229
 9799W        W 9799   3.339   6.308   4.814 -0.0846  0.0415  0.1174
 9800W        W 9800   7.909   5.480   1.683  0.1077 -0.0817 -0.0202
 9801W        W 9801   6.889   9.723   8.399 -0.0634  0.0549  0.0195
 9802W        W 9802   3.176   5.774  10.140  0.0312 -0.1761 -0.2371
 9803W        W 9803   4.220   2.437   5.939 -0.0453  0.0084  0.0099
 9804W        W 9804   5.055   6.630   6.819  0.0727  0.0740 -0.1486
 9805W        W 9805   7.300   7.416   4.469  0.2493  0.1646  0.1702
 9806W        W 9806   0.954   5.310   7.666 -0.3417  0.0544  0.0707
 9807W        W 9807  10.155   8.558   3.403  0.2617 -0.1305 -0.1302
 9808W        W 9808   2.817   0.556   9.917 -0.1761  0.0857 -0.0207
 9809W        W 9809   4.415   0.385   5.533  0.0383  0.3223 -0.2511
 9810W        W 9810   1.684   9.765   7.398 -0.2144  0.3643 -0.0241
 9811W        W 9811  10.287   3.127   5.952 -0.0262 -0.0102 -0.3488
 9812W        W 9812   9.807   0.407   0.626 -0.1221  0.0683 -0.1317
 9813W        W 9813   8.241   3.547   0.202  0.2061 -0.0218  0.1687
 9814W        W 9814   8.488   2.891   9.799 -0.1756 -0.0884  0.1873
 9815W        W 9815   2.920   0.244   4.418  0.2427 -0.1573  0.2358
 9816W        W 9816   5.264  10.171   5.210  0.3452 -0.0925  0.0032
 9817W        W 9817   5.445   2.763   7.448  0.1755  0.0168 -0.1087
 9818W        W 9818   9.468   7.251   9.322 -0.3047  0.0917  0.0216
 9819W        W 9819   8.938   6.884   5.022 -0.2315 -0.2474 -0.0264
 9820W        W 9820   6.289   6.945   1.152 -0.3148 -0.1644  0.0133
 9821W        W 9821   1.003   8.221   0.022 -0.0369  0.0884  0.0441
 9822W        W 9822   7.365   4.987   7.208 -0.0196  0.1510 -0.1092
 9823W        W 9823   2.705   6.083   7.049  0.2636  0.1897 -0.0357
 9824W        W 9824   1.754  10.052   4.048  0.1718 -0.0549  0.4221
 9825W        W 9825   3.151   3.706   2.754  0.0143 -0.0793  0.4509
 9826W        W 9826   0.051   9.249   5.488  0.0291 -0.2812  0.2949
 9827W        W 9827   2.332   6.381   9.151  0.0484  0.1730 -0.1332
 9828W        W 9828   8.585   5.466   6.414  0.2811  0.0645 -0.0409
 9829W        W 9829   8.410   0.556   9.205  0.2196 -0.1500 -0.0516
 9830W        W 9830   3.471   7.408   9.461  0.0424  0.0212 -0.3500
 9831W        W 9831   3.390   1.905   5.934  0.1720 -0.0315 -0.5719
 9832W        W 9832   8.396   4.167   7.570  0.1170 -0.2879  0.4343
 9833W        W 9833   0.793   3.315   5.918  0.2423 -0.0502 -0.0985
 9834W        W 9834   4.515  10.008   7.213 -0.0901 -0.0270 -0.0542
 9835W        W 9835   7.002   3.013   2.803 -0.2453  0.1261 -0.0153
 9836W        W 9836   8.713   7.483   3.774  0.1227  0.7157  0.0387
 9837W        W 9837   7.617  10.038   0.174 -0.1145  0.0491 -0.0434
 9838W        W 9838   9.827   6.159   2.703 -0.0714  0.0010  0.3745
 9839W        W 9839   6.340   4.316   9.621 -0.0064 -0.0142  0.1691
 9840W        W 9840   2.133   2.579   9.773  0.1916  0.1580 -0.0327
 9841W        W 9841   9.294   9.561   7.242  0.1670  0.1365  0.0208
 9842W        W 9842   6.763   9.438   7.361 -0.5785 -0.0031 -0.1218
 9843W        W 9843   6.651   8.308   9.537 -0.3662  0.1077 -0.0272
 9844W        W 9844   9.004   8.512   7.435  0.0267  0.1549 -0.3106
 9845W        W 9845   8.179   5.203   6.814 -0.1192  0.1372  0.0275
 9846W        W 9846   9.952   3.705   1.108  0.0356  0.0499  0.0324
 9847W        W 9847   6.096   0.306   3.592 -0.3545 -0.2536  0.1644
 9848W        W 9848   6.349   4.673   0.668  0.1024  0.1214 -0.4048
 9849W        W 9849   9.806   1.467   0.692  0.1109 -0.1416  0.1128
 9850W        W 9850   1.456   1.227   5.070 -0.1154  0.1228  0.0109
 9851W        W 9851   2.267   5.084   4.919 -0.1126 -0.2216  0.0427
 9852W        W 9852   0.131  10.007   4.059  0.0014 -0.3110 -0.1796
 9853W        W 9853   2.475   3.081  10.213  0.2319 -0.0382 -0.1279
 9854W        W 9854   2.401   5.013   7.403 -0.3872 -0.1823  0.0650
 9855W        W 9855   2.468   8.921   7.287  0.0666  0.0115  0.3576
 9856W        W 9856   6.789   9.632   6.164 -0.1097 -0.0983  0.0583
 9857W        W 9857   5.667   3.461   9.157 -0.1278 -0.1878 -0.0698
 9858W        W 9858   5.475   2.135   5.248 -0.0336 -0.1640 -0.0566
 9859W        W 9859   6.837   2.439   0.203 -0.0027  0.1688  0.0831
 9860W        W 9860   4.741   7.508   3.818  0.0136  0.0847  0.1532
 9861W        W 9861   5.333   3.484   0.068 -0.0707  0.1415  0.0499
 9862W        W 9862   0.116   5.810   8.944  0.0947 -0.0922 -0.1308
 9863W        W 9863   1.358   9.665   4.213  0.0801 -0.0974  0.0301
 9864W        W 9864   3.710   1.217   6.580  0.0146  0.2440 -0.0339
 9865W        W 9865   7.621   3.440   1.684 -0.1016 -0.3496 -0.0074
 9866W        W 9866   5.020   9.403   0.897  0.0482 -0.3189 -0.1155
 9867W        W 9867   3.515  10.147   3.181  0.0699  0.2520 -0.0170
 9868W        W 9868   2.718   9.487   2.521 -0.0487 -0.1076 -0.1488
 9869W        W 9869   3.631   4.959   8.705  0.3051 -0.0875  0.0684
 9870W        W 9870   6.129   1.031   6.471 -0.1744 -0.1916  0.0110
 9871W        W 9871   1.771   2.253   8.900 -0.0433 -0.0388 -0.0198
 9872W        W 9872   6.270   2.216   7.840 -0.2774  0.1875 -0.1142
 9873W        W 9873   1.354   0.022   2.649  0.0420 -0.0658  0.0692
 9874W        W 9874   1.713   7.552  10.310 -0.0527  0.0001 -0.0706
 9875W        W 9875   0.355   7.508   7.186  0.1407  0.2271 -0.2228
 9876W        W 9876   5.072   0.263   4.787  0.0799 -0.1744  0.1524
 9877W        W 9877   3.222   2.353   8.880 -0.1960 -0.0856 -0.2227
 9878W        W 9878   1.395   8.217   1.017  0.0402 -0.2615  0.1781
 9879W        W 9879   8.780  10.207   7.694  0.1807 -0.1110 -0.0297
 9880W        W 9880   0.680   7.210   6.236 -0.1173 -0.1127  0.0259
 9881W        W 9881   5.039   7.622   1.044  0.0065 -0.3333  0.1386
 9882W        W 9882   2.669   8.206   5.729  0.1260 -0.0889 -0.1536
 9883W        W 9883   3.661   0.962   8.048 -0.0257  0.0018 -0.1774
 9884W        W 9884   1.887   9.159   6.771 -0.1409  0.1527 -0.0792
 9885W        W 9885   8.631   0.600   3.150  0.2040 -0.1141  0.0619
 9886W        W 9886   0.768   8.635   9.540  0.2636 -0.0384  0.4877
 9887W        W 9887   1.730   3.814   0.725 -0.1514 -0.1792 -0.0884
 9888W        W 9888   5.771   8.088   6.654 -0.1136  0.1531 -0.1149
 9889W        W 9889  10.133   5.343   9.269  0.1284  0.2178  0.0138
 9890W        W 9890   3.958   8.789   1.218 -0.3412 -0.2308 -0.2260
 9891W        W 9891   2.146   5.512   9.832 -0.1481  0.0269  0.0643
 9892W        W 9892   3.598   9.323   1.019 -0.1533 -0.1406  0.1221
 9893W        W 9893   4.786   6.064   8.445 -0.2178  0.0929  0.2754
 9894W        W 9894   1.795   6.223   4.134  0.0865  0.0053  0.0657
 9895W        W 9895   4.664   5.601   0.668  0.1041 -0.2842 -0.0748
 9896W        W 9896   9.457   8.403   7.228 -0.1384 -0.0304  0.1656
 9897W        W 9897   7.347   6.730   7.129  0.0379  0.2615 -0.4303
 9898W        W 9898   5.753   0.137   5.491 -0.2034  0.2764 -0.3112
 9899W        W 9899   6.801   9.044   0.691 -0.4532  0.0026  0.0839
 9900W        W 9900   5.617   4.525   2.940  0.0507  0.1312 -0.0631
 9901W        W 9901   3.147   8.034  10.186 -0.2226  0.2577 -0.1090
 9902W        W 9902   1.094   7.854   2.839  0.2894  0.2625  0.0143
 9903W        W 9903   8.884   9.363   4.004  0.1062  0.1962  0.0091
 9904W        W 9904   2.523   4.837   0.791  0.1445  0.1108  0.1306
 9905W        W 9905   4.019   7.167   0.277  0.1930 -0.0977 -0.0244
 9906W        W 9906   9.373   1.701   8.197 -0.1385 -0.1036  0.3338
 9907W        W 9907   3.368   3.475   7.399 -0.2946 -0.2673  0.0765
 9908W        W 9908   6.644   8.265   6.429 -0.2704  0.0883  0.1188
 9909W        W 9909   3.014   5.440   5.536  0.0496  0.0475  0.0521
 9910W        W 9910   4.030   2.254   4.063  0.0460  0.1460  0.1396
 9911W        W 9911   6.847   7.026   1.855 -0.0292 -0.1342  0.1715
 9912W        W 9912   8.277   2.131   5.265 -0.1642 -0.1531  0.3314
 9913W        W 9913   6.610   9.089   2.936  0.1264  0.0666  0.2232
 9914W        W 9914   6.651   9.174   2.408  0.0017  0.0630  0.0133
 9915W        W 9915   4.460   7.135   4.632 -0.1050  0.0671 -0.1657
 9916W        W 9916   1.861   5.881   7.545 -0.2108  0.1398  0.2207
 9917W        W 9917   8.573   5.954  10.063 -0.0097 -0.0549  0.0089
 9918W        W 9918   7.097   1.462   3.906  0.1809  0.1507  0.1539
 9919W        W 9919   8.402   1.490   5.671  0.0334  0.1352 -0.0227
 9920W        W 9920   1.657   2.921   9.670 -0.2823  0.1871  0.0102
 9921W        W 9921   3.319   7.844   2.173 -0.0134  0.3276  0.1643
 9922W        W 9922   3.841   8.373   3.219 -0.1530  0.1540  0.1650
 9923W        W 9923   8.332   5.340   7.245  0.2840 -0.1439 -0.0081
 9924W        W 9924   8.036   8.714   1.364  0.3120  0.1034  0.4696
 9925W        W 9925   2.855   7.553   3.182  0.1010 -0.0921 -0.1653
 9926W        W 9926   9.775   4.225   3.894 -0.3805  0.0306 -0.0478
 9927W        W 9927   2.385   4.071   5.234 -0.2173  0.0549 -0.0106
 9928W        W 9928  10.192   9.930   2.860  0.1586  0.0553 -0.0096
 9929W        W 9929  10.339   1.260   5.055 -0.1417  0.1114 -0.2913
 9930W        W 9930   9.286   8.016   0.975 -0.0977 -0.1133  0.0569
 9931W        W 9931   1.895   1.325   1.038 -0.1423 -0.4381  0.1537
 9932W        W 9932   0.758   6.288   4.666 -0.0600 -0.0658 -0.0263
 9933W        W 9933   0.051   4.564   4.687  0.0803 -0.0564  0.2048
 9934W        W 9934   3.321   1.822   0.999  0.0781  0.1332 -0.0399
 9935W        W 9935   5.263   9.691   4.433  0.2384 -0.1031  0.3503
 9936W        W 9936   1.238   7.374   8.369  0.2021 -0.1908 -0.1626
 9937W        W 9937   7.415  10.333   2.738  0.2205 -0.0901  0.1200
 9938W        W 9938   0.401   2.913   3.200 -0.0145 -0.3875  0.1808
 9939W        W 9939   3.116   5.876   6.055  0.1668  0.0677  0.0095
 9940W        W 9940   9.707   7.115   6.147  0.0376  0.1221 -0.1599
 9941W        W 9941   6.780   8.017   3.359  0.3198 -0.1651  0.0936
 9942W        W 9942   9.237   3.270   1.102 -0.0236  0.1519 -0.0443
 9943W        W 9943   7.228   3.755   7.650 -0.0042  0.2249  0.0514
 9944W        W 9944   0.580   5.580   3.834 -0.1476 -0.3508 -0.0477
 9945W        W 9945   7.469   7.797   4.719  0.0525 -0.2012  0.0313
 9946W        W 9946   8.407  10.019   5.867 -0.0562 -0.2047  0.0381
 9947W        W 9947   1.049   5.627   9.040 -0.4588  0.0926 -0.0419
 9948W        W 9948   2.253   2.152   9.496 -0.3293 -0.1139  0.0532
 9949W        W 9949   7.166   9.521   8.724  0.2880 -0.3626 -0.3019
 9950W        W 9950   6.905   8.818   4.633  0.0404 -0.1486 -0.0582
 9951W        W 9951   2.043   6.707   0.275 -0.1507  0.0570  0.0844
 9952W        W 9952   2.548   1.229   0.222  0.4801 -0.1067  0.1025
 9953W        W 9953   1.838   1.968   9.341  0.0337  0.1848  0.0116
 9954W        W 9954   3.595   9.527   0.225  0.0427 -0.1141 -0.3250
 9955W        W 9955   6.584   6.722   8.491  0.3676 -0.2154 -0.1608
 9956W        W 9956   3.985   4.391   6.794  0.0137 -0.1275 -0.3427
 9957W        W 9957   7.722   5.394   7.428 -0.1695  0.2082 -0.0431
 9958W        W 9958   4.683   4.773   1.276 -0.3013  0.0234  0.0645
 9959W        W 9959   4.838   8.595  10.111 -0.3994 -0.0366 -0.1460
 9960W        W 9960   9.323   2.677   2.429  0.2078 -0.0075  0.0324
 9961W        W 9961   9.380   4.940   3.415  0.1680  0.0372  0.3712
 9962W        W 9962   5.472   5.379   1.272 -0.1102 -0.0609  0.1369
 9963W        W 9963   5.927   6.977   2.526  0.1733  0.0905 -0.1427
 9964W        W 9964   1.023   4.447   1.555 -0.1976  0.0920  0.0902
 9965W        W 9965   2.129   3.201   3.518 -0.1025 -0.0212 -0.1827
 9966W        W 9966   2.596   2.429   8.164 -0.0656 -0.1398 -0.3029
 9967W        W 9967   1.891   1.126   3.838 -0.1570 -0.0910 -0.1419
 9968W        W 9968   5.119   5.868   0.573  0.0193 -0.3205  0.2707
 9969W        W 9969   8.451   2.501   2.590  0.0170  0.1532 -0.1148
 9970W        W 9970   8.716   6.267   0.113 -0.0221  0.2314  0.2731
 9971W        W 9971   5.278   1.184   3.932  0.1185 -0.0860 -0.3252
 9972W        W 9972   9.402   9.494   3.889  0.0726 -0.4413  0.0946
 9973W        W 9973   3.394   0.370   4.755 -0.0774  0.0737 -0.0169
 9974W        W 9974   0.750   5.345   6.850 -0.1290  0.0193 -0.1279
 9975W        W 9975   6.203   4.466   4.027  0.3169 -0.1353 -0.0477
 9976W        W 9976   0.294   8.541   2.700 -0.2760 -0.0239 -0.0421
 9977W        W 9977   8.607   4.260   2.999  0.1903  0.0838 -0.1676
 9978W        W 9978   3.073   7.258   4.761  0.3112 -0.0839  0.0707
 9979W        W 9979   1.942   0.699   1.850  0.0223  0.0983 -0.0630
 9980W        W 9980   5.824   1.436   1.268  0.1446 -0.0025  0.0506
 9981W        W 9981   3.726   5.693   1.122 -0.0700 -0.1996 -0.1430
 9982W        W 9982   8.212   1.123   9.063  0.0163  0.0786 -0.2482
 9983W        W 9983   8.389   2.493   8.423 -0.0436 -0.1577 -0.2396
 9984W        W 9984   0.435   6.687   3.111  0.0978  0.1953 -0.2940
 9985W        W 9985   2.169   8.399   9.395 -0.1747 -0.0230  0.0029
 9986W        W 9986  10.134   7.437   0.755  0.2750 -0.2359 -0.2084
 9987W        W 9987   7.190   9.979   2.453 -0.1699  0.0702  0.0446
 9988W        W 9988   9.629   0.667   2.776 -0.3321 -0.1436  0.0592
 9989W        W 9989   8.905  10.265   4.115  0.2586  0.0691 -0.1073
 9990W        W 9990   1.097   4.482   4.799 -0.1570  0.3529  0.4257
 9991W        W 9991   0.896   2.774   6.606 -0.1409 -0.1782  0.1016
 9992W        W 9992   5.124   1.021   9.195 -0.1229 -0.1728  0.1597
 9993W        W 9993   1.706   4.872   5.622  0.2211  0.4561 -0.0028
 9994W        W 9994   2.969   1.231   5.368  0.1690 -0.1956  0.1385
 9995W        W 9995   6.155   6.508   2.369 -0.1573 -0.0811 -0.0839
 9996W        W 9996   5.432   9.763   4.899 -0.0049 -0.1143  0.0114
 9997W        W 9997   9.638   8.246   0.083 -0.2758 -0.1037 -0.2642
 9998W        W 9998   3.292   0.925   9.602 -0.3046 -0.1637  0.2076
 9999W        W 9999   3.307   0.630   7.259  0.0838 -0.1302 -0.1962
10000W        W10000   6.220   6.717   0.088 -0.1304  0.1427  0.2670
10001W        W10001   6.189   5.875   5.224 -0.2595  0.1901  0.1375
10002W        W10002   7.193   1.691   5.405  0.0742 -0.3054 -0.0109
10003W        W10003   7.995   4.374   9.192  0.1779  0.0773  0.0993
10004W        W10004   6.677   3.731   3.222  0.4126 -0.2266 -0.2221
10005W        W10005   9.875   9.016   7.642 -0.0343  0.3054 -0.2590
10006W        W10006   9.139   6.756   3.037 -0.0899 -0.1629 -0.3011
10007W        W10007   1.054   6.997   5.090  0.1134 -0.0062 -0.0690
10008W        W10008   8.357   4.770   0.109 -0.0081 -0.2227  0.1622
10009W        W10009   4.926   6.544   1.034  0.0329 -0.0989  0.2103
10010W        W10010   0.557   2.365   5.136  0.3073  0.1414 -0.3519
10011W        W10011  10.212   7.530   7.286  0.2198  0.0307  0.3787
10012W        W10012  10.081   8.235   4.212 -0.0383 -0.1609  0.0977
10013W        W10013   0.432   9.106   1.869 -0.1363 -0.1392  0.2496
10014W        W10014   9.611   8.193   2.424 -0.1422  0.0470  0.2867
10015W        W10015   4.108   6.885   9.667  0.0355  0.0159 -0.0424
10016W        W10016   4.145   4.156   5.235  0.2756 -0.0733 -0.0214
10017W        W10017   2.342   2.929   2.040 -0.1941  0.1800  0.0191
10018W        W10018   1.898   5.630   2.123  0.0639  0.0447 -0.0540
10019W        W10019   2.182   9.859   8.077 -0.3273 -0.0299  0.5644
10020W        W10020   0.762   2.874  10.120  0.2788  0.1426  0.1706
10021W        W10021   1.333   8.326   5.246  0.1091 -0.0144  0.0687
10022W        W10022   7.539   8.083   7.491  0.1160  0.1210  0.0640
10023W        W10023   9.943   5.029   8.567  0.0580  0.1447  0.2306
10024W        W10024   2.553   0.172   4.744 -0.1710 -0.2921 -0.0020
10025W        W10025   1.509   4.782   8.896  0.0822 -0.0891 -0.4498
10026W        W10026   5.593   1.094   4.497 -0.1599 -0.1100  0.0152
10027W        W10027   0.809   0.185   3.470  0.1812 -0.2370 -0.0095
10028W        W10028   2.314   4.646   4.600 -0.4137  0.1199  0.1837
10029W        W10029   8.149   1.302   1.916  0.0561  0.2543  0.3004
10030W        W10030   0.017   3.369   5.173 -0.0421 -0.2360  0.0773
10031W        W10031   4.238   5.245   6.521 -0.0525 -0.1663 -0.2241
10032W        W10032   9.089   8.360   4.028 -0.1466  0.4354 -0.3553
10033W        W10033   4.025   9.134   0.872 -0.0186 -0.1421  0.0819
10034W        W10034   2.743   8.780   1.123 -0.1231  0.3391  0.1391
10035W        W10035   5.679   6.645   2.289 -0.1220 -0.0749 -0.1785
10036W        W10036   2.293   3.711   6.097 -0.0926  0.0086  0.0545
10037W        W10037   6.602   0.091   6.286 -0.1396 -0.0699 -0.0102
10038W        W10038   8.710   3.851   8.488  0.0059  0.0787  0.0417
10039W        W10039   7.642   3.439   3.885  0.2406 -0.1509  0.0991
10040W        W10040   6.933   0.559  10.280 -0.1224 -0.1417 -0.1644
10041W        W10041   1.354   4.245   7.546  0.1490 -0.2052 -0.1770
10042W        W10042   6.448   5.681   9.654 -0.1725 -0.2108  0.2124
10043W        W10043   5.815   3.071   6.612 -0.0667  0.0538  0.1617
10044W        W10044   6.611   0.569   0.391  0.0382  0.1513 -0.3858
10045W        W10045   7.709   5.369   4.708  0.2670  0.0418  0.2941
10046W        W10046   4.384   4.473   1.473  0.3280 -0.1140 -0.0028
10047W        W10047   0.357   3.823   3.789 -0.2083  0.0931  0.3628
10048W        W10048   8.838  10.013   5.545 -0.2867  0.1794 -0.0105
10049W        W10049   3.785   6.387   6.222  0.0145  0.1403  0.1423
10050W        W10050   6.570   4.948   9.098 -0.2172 -0.0662 -0.0382
10051W        W10051   3.333   2.191   1.422  0.0856  0.1986 -0.1647
10052W        W10052   7.287   6.311   1.955 -0.0849 -0.0910 -0.1452
10053W        W10053   4.063   8.223   8.391  0.0635 -0.1544 -0.0577
10054W        W10054   7.896   0.445   4.461  0.1616  0.1420 -0.0680
10055W        W10055   3.020   9.350   7.882 -0.0042  0.0287 -0.2744
10056W        W10056   0.063   3.884   0.452  0.0218 -0.2259 -0.0292
10057W        W10057   7.345   1.391   5.903  0.0980  0.0005  0.0358
10058W        W10058   7.646   5.355   5.966  0.0676 -0.1022  0.2149
10059W        W10059   7.439   7.121   8.498 -0.2502  0.1788  0.2116
10060W        W10060   7.026   5.827   7.531  0.1119  0.0351  0.0633
10061W        W10061   7.192   2.758   5.004  0.1694  0.0635 -0.1491
10062W        W10062   7.603   4.457   9.591  0.0959  0.2546 -0.0670
10063W        W10063   8.818   0.632   6.445  0.1513 -0.2528 -0.4345
10064W        W10064   5.621   4.934   0.332  0.3108 -0.0295 -0.0931
10065W        W10065   5.798   5.938   3.946  0.0642 -0.0329 -0.0015
10066W        W10066   5.989   0.199   9.112  0.1500  0.0766 -0.1474
10067W        W10067   2.371   3.645   4.428  0.1282 -0.0519 -0.1842
10068W        W10068   1.483   6.281   5.893  0.3997 -0.1127 -0.0820
10069W        W10069   6.998   0.375   1.227  0.0941 -0.2674 -0.1741
10070W        W10070   3.053   1.103   7.246  0.0872  0.4120 -0.1796
10071W        W10071   4.702   7.923   8.931  0.2200 -0.0881  0.1455
10072W        W10072   6.226   9.638   9.387 -0.2865  0.0427  0.0244
10073W        W10073   2.970   4.296   2.629  0.1229 -0.0330  0.0712
10074W        W10074   1.326   5.225   9.808 -0.1490  0.2005  0.2954
10075W        W10075   5.768   3.543   5.821 -0.2205  0.0055 -0.0344
10076W        W10076   9.678   9.561   0.380  0.1242 -0.1301  0.1914
10077W        W10077   7.973   2.208   3.942 -0.3812 -0.0691 -0.1389
10078W        W10078   3.819   5.310   6.219 -0.0347  0.0471  0.1124
10079W        W10079   8.104   9.227   8.584 -0.2096  0.2965  0.1075
10080W        W10080   7.681   1.205   4.524  0.1654 -0.3371  0.0758
10081W        W10081   5.814   4.756   0.807 -0.2053  0.2768  0.1803
10082W        W10082  10.088   2.920   6.959  0.3237  0.1793 -0.1371
10083W        W10083   3.272   4.434   1.552 -0.1979 -0.1746  0.1353
10084W        W10084   2.456   7.121   3.837 -0.2168  0.0099 -0.0118
10085W        W10085   0.562   8.056   2.071  0.0401 -0.0090 -0.2370
10086W        W10086   5.062   4.514   1.074  0.2099 -0.0673  0.0969
10087W        W10087   5.142   6.756   2.215  0.0020  0.0853  0.0097
10088W        W10088   8.302   3.033   3.351  0.0317 -0.1106  0.1340
10089W        W10089   9.327   5.753   8.725 -0.0518 -0.1286  0.0149
10090W        W10090   9.630   7.811   3.443 -0.0072 -0.0862  0.1100
10091W        W10091  10.276   4.294   6.454  0.1380 -0.0712 -0.0924
10092W        W10092   5.610  10.068  10.203  0.2396  0.1463 -0.1441
10093W        W10093   8.669   0.937   9.068  0.2126 -0.0455  0.1015
10094W        W10094   0.675   0.902   6.508 -0.2329 -0.0062  0.0627
10095W        W10095   7.724   0.012   0.655 -0.0795 -0.0104 -0.2757
10096W        W10096   0.199   1.834   8.193 -0.1111 -0.0168  0.0997
10097W        W10097   6.913  10.209   4.688  0.3213 -0.1607  0.3041
10098W        W10098   6.009   0.572   5.608  0.1392  0.1037  0.0878
10099W        W10099   5.410   2.209   0.972 -0.0598  0.1839 -0.0505
10100W        W10100   7.175   1.376   1.848 -0.0099  0.2007  0.2084
10101W        W10101   4.031   8.440   5.446  0.0892 -0.0838 -0.0447
10102W        W10102  10.189   5.717   4.538  0.1283 -0.2057  0.3247
10103W        W10103   3.352   8.936   0.100  0.0889  0.2543  0.1140
10104W        W10104   2.695   7.968   7.749  0.0571 -0.1957 -0.1852
10105W        W10105   0.474   2.888   2.654 -0.1656 -0.1037  0.4700
10106W        W10106   8.450   9.255   9.895  0.2344 -0.4496 -0.1402
10107W        W10107   0.921   8.909   6.501 -0.2596  0.1085  0.2795
10108W        W10108   8.750   7.263   0.703 -0.0658  0.0540 -0.2396
10109W        W10109   7.207   8.550   4.929  0.1376  0.0479 -0.0772
10110W        W10110   7.379   2.707   3.175  0.0558  0.3574  0.0279
10111W        W10111   2.948   8.928  10.028 -0.0187  0.0583 -0.1217
10112W        W10112   7.184   0.181   2.327  0.0236 -0.0309  0.0291
10113W        W10113   0.974   8.096   7.738  0.1222  0.1238  0.0352
10114W        W10114   4.104   9.888   8.448  0.0533  0.0626  0.2420
10115W        W10115   8.466   5.393   3.456 -0.2970  0.1412  0.0717
10116W        W10116   5.413   7.715   8.398 -0.2462 -0.1561 -0.0651
10117W        W10117   6.695   9.759   4.743  0.1218  0.1163  0.0169
10118W        W10118   1.770   4.161   2.309 -0.1543  0.4549  0.2877
10119W        W10119   0.413   6.612   3.631  0.0718 -0.0637  0.1765
10120W        W10120   4.364   0.485   7.019  0.0897  0.0183  0.1771
10121W        W10121   4.172   5.617   0.934 -0.1076  0.0440  0.3295
10122W        W10122   1.690   5.837   1.719 -0.1630 -0.0206 -0.0727
10123W        W10123   0.493   9.970   0.704  0.1129  0.4737  0.0882
10124W        W10124   7.967   4.484   7.433  0.3016 -0.0324  0.6339
10125W        W10125   0.260   4.036   4.600  0.0797  0.1088  0.0237
10126W        W10126   0.553   9.275   8.126 -0.0251 -0.0645  0.4670
10127W        W10127   1.983   8.456   1.587  0.0385 -0.3708  0.2671
10128W        W10128   6.065   3.105   5.552 -0.0253 -0.1927 -0.1611
10129W        W10129   2.664   6.550   0.287 -0.0381  0.1461 -0.0017
10130W        W10130   1.029   0.286   0.926  0.1219 -0.0363 -0.0513
10131W        W10131   8.169   4.696   2.027  0.0068  0.1073 -0.2308
10132W        W10132   7.539   3.576   3.441 -0.1642  0.1725 -0.0678
10133W        W10133   9.672   8.238   5.880 -0.0195  0.1208 -0.0627
10134W        W10134   3.510   9.134   4.252  0.2190 -0.0606  0.0101
10135W        W10135   5.650   0.856   0.072 -0.0162  0.2301  0.2235
10136W        W10136   5.093   1.346   0.755  0.0937  0.2776  0.1848
10137W        W10137   3.958   2.289   3.550 -0.1200 -0.1593  0.0974
10138W        W10138   6.567   9.766   2.717  0.0561 -0.2477  0.0219
10139W        W10139   1.618   0.484   0.111  0.2469  0.3359  0.2810
10140W        W10140   0.776   1.400   1.444  0.0459  0.2264  0.0806
10141W        W10141   9.886   5.958   8.597  0.1800  0.2298  0.2220
10142W        W10142   9.837   5.845   9.846  0.3824  0.1215 -0.1641
10143W        W10143   3.294   8.497   4.314 -0.1410 -0.2801 -0.1867
10144W        W10144   5.613   5.293   5.341  0.0627  0.2093 -0.1741
10145W        W10145   8.677   1.255   7.583 -0.0118  0.1316 -0.1524
10146W        W10146   3.575   9.222   3.296 -0.0073  0.0383  0.2028
10147W        W10147   0.366   2.558   7.628  0.0425 -0.2553  0.2797
10148W        W10148   8.393   8.101   6.707 -0.2430  0.0731  0.0413
10149W        W10149   1.886   6.567   9.022 -0.2124 -0.1814  0.1060
10150W        W10150   4.913   1.209   4.969 -0.0894  0.5112 -0.1388
10151W        W10151   5.752   2.629   0.941  0.2320 -0.0908  0.0263
10152W        W10152   4.930   4.178   0.696 -0.0159  0.0258 -0.3720
10153W        W10153   1.364   5.777   4.708  0.2296  0.1013  0.2246
10154W        W10154   4.108   0.715   5.788 -0.1694  0.1108 -0.1324
10155W        W10155   9.323   2.212   5.427 -0.1557 -0.0902  0.4152
10156W        W10156   8.125   8.393   8.778  0.1054 -0.0998 -0.1325
10157W        W10157   7.911   3.033   9.678 -0.3285 -0.3647 -0.1156
10158W        W10158   2.702   5.138   9.571 -0.1910  0.0630  0.0973
10159W        W10159   3.070  10.255   8.792  0.0250  0.1303 -0.0068
10160W        W10160   6.150   5.198   7.707 -0.2333  0.3540  0.0945
10161W        W10161   5.960   5.898   1.135  0.1007 -0.2223  0.0404
10162W        W10162   3.091   7.609   7.963 -0.2883 -0.0451 -0.5264
10163W        W10163   0.265   2.869  10.180  0.0426  0.1156  0.0410
10164W        W10164   4.628   7.462   7.807 -0.1742 -0.0939  0.0931
10165W        W10165   1.804   5.622   4.938  0.0628  0.0667  0.0807
10166W        W10166   3.277   8.862   3.911  0.0630  0.1244  0.1631
10167W        W10167   4.741   4.058   4.701  0.1088  0.0423  0.2123
10168W        W10168   5.736   2.011   2.287  0.3160 -0.0449 -0.0144
10169W        W10169   4.861   0.029   6.387  0.1122  0.0525  0.2591
10170W        W10170   4.053   2.928   2.558 -0.1558  0.2787 -0.0376
10171W        W10171   1.053   4.634   1.014 -0.4145 -0.0963 -0.1154
10172W        W10172   7.341   1.362   7.108 -0.0823  0.2283 -0.0256
10173W        W10173   7.804   8.832   2.674  0.1128  0.1956 -0.1331
10174W        W10174   7.166   7.762   7.477 -0.1277 -0.3314 -0.4847
10175W        W10175   5.074   6.256   5.051 -0.0791 -0.1058 -0.0032
10176W        W10176   7.690   3.534   0.991  0.0655 -0.3676  0.2035
10177W        W10177   7.806   1.106   8.800 -0.1414  0.1409 -0.0490
10178W        W10178   2.638   2.319   6.095 -0.0585  0.0067 -0.1662
10179W        W10179   5.357   8.536   6.146 -0.1007  0.3253 -0.1724
10180W        W10180   1.776   2.302   7.796 -0.1954 -0.1664  0.0490
10181W        W10181   4.712   4.610   8.006  0.2058 -0.0525 -0.0833
10182W        W10182  10.312   6.753  10.011  0.4481  0.1284  0.0248
10183W        W10183   3.258   4.586   0.154 -0.2882  0.0551  0.1088
10184W        W10184  10.217   4.233   0.829  0.0365 -0.0430 -0.1612
10185W        W10185   2.664   3.377   0.247  0.0612  0.0468 -0.3581
10186W        W10186   7.250   9.882   4.542 -0.2661  0.2287  0.1508
10187W        W10187   4.364  10.200   2.630 -0.0289 -0.0244  0.2524
10188W        W10188   7.139   4.272   9.448 -0.0259 -0.0074  0.0358
10189W        W10189   7.375   0.762   8.202  0.2890 -0.0305 -0.1663
10190W        W10190   7.294   7.498   2.818 -0.1446 -0.0183 -0.5504
10191W        W10191   5.287   5.355   9.235 -0.1822 -0.1590 -0.1611
10192W        W10192   1.801   4.359  10.219  0.2221  0.3964 -0.4079
10193W        W10193   2.701   1.251   4.516  0.2846  0.1600  0.0582
10194W        W10194   4.321   1.365   6.764 -0.1096  0.1427 -0.1978
10195W        W10195   6.671   7.529   4.411  0.0566  0.1224  0.0814
10196W        W10196   8.435   0.412   5.718  0.2507  0.2090  0.4344
10197W        W10197   9.571   0.868   0.698 -0.1829  0.2388 -0.2418
10198W        W10198   3.730   6.856   5.739  0.3393  0.1036 -0.2059
10199W        W10199   1.790   5.110  10.022 -0.2563 -0.1709  0.1642
10200W        W10200   2.082   6.705   5.435  0.2187 -0.2544 -0.2894
10201W        W10201   2.292   7.404   0.694 -0.0712  0.2217 -0.2599
10202W        W10202   6.096   3.130   8.360 -0.0431 -0.1226  0.1920
10203W        W10203   0.841   6.709   2.176  0.2905 -0.0802  0.3848
10204W        W10204   4.922   4.604   9.671  0.1220 -0.0443  0.0194
10205W        W10205   3.707   6.239   0.442 -0.0022 -0.2230 -0.0724
10206W        W10206   1.036   7.555   5.038  0.3020 -0.2193 -0.2225
10207W        W10207   1.731   8.571   5.507 -0.1308  0.0835 -0.0177
10208W        W10208   8.619   5.086   1.240  0.3095  0.2077 -0.1428
10209W        W10209   5.074   9.692   3.554 -0.0490 -0.0096 -0.3847
10210W        W10210   5.130   3.522   6.411 -0.3005 -0.0020  0.1620
10211W        W10211   3.220   6.009   7.136  0.4249  0.0352 -0.0738
10212W        W10212   3.758   7.817   0.784 -0.5839 -0.0882  0.1326
10213W        W10213   6.376   5.109   6.405 -0.0562  0.1748 -0.0444
10214W        W10214   5.221   4.043   2.054 -0.1616  0.1004  0.0379
10215W        W10215   5.679   6.940   6.011  0.1218  0.2905  0.0013
10216W        W10216   5.127   7.155   9.547  0.2431 -0.0127 -0.2097
10217W        W10217   9.251   8.477   9.704  0.0090 -0.1160  0.3707
10218W        W10218   3.213   4.081   4.627 -0.2252 -0.2044 -0.0143
10219W        W10219   6.196   8.363   4.885  0.4670 -0.1594  0.2120
10220W        W10220   7.040   3.545   1.299  0.1129 -0.0463  0.1814
10221W        W10221   8.671   7.848  10.278 -0.1508  0.1717  0.1099
10222W        W10222   7.269   2.894   6.803  0.2632  0.3349 -0.0695
10223W        W10223   6.001   0.577   8.216  0.0075  0.2781  0.0619
10224W        W10224   5.962   2.341   4.455  0.2912  0.3417 -0.2251
10225W        W10225   7.173   4.408   3.653  0.2436  0.1177 -0.4322
10226W        W10226   1.957   4.378   4.393  0.0774 -0.0402  0.1270
10227W        W10227   3.897   3.692   3.015  0.3042  0.1763 -0.1034
10228W        W10228   1.931   2.447   6.495 -0.2442  0.1009 -0.0368
10229W        W10229   8.883   5.499   5.273 -0.0291  0.2271  0.1845
10230W        W10230   9.551   0.554  10.221  0.0534  0.0218  0.1609
10231W        W10231   9.689   4.674   5.991  0.0835  0.2398  0.2956
10232W        W10232   6.901   0.616   2.444 -0.0076 -0.2548 -0.1184
10233W        W10233   8.344   7.698   2.180 -0.0708 -0.2090 -0.3760
10234W        W10234   9.487   7.943   0.475 -0.2449  0.2413  0.0605
10235W        W10235   4.111   8.658   9.115  0.0414 -0.2993 -0.0778
10236W        W10236   0.729   5.602   5.380 -0.1569 -0.1059 -0.1771
10237W        W10237   0.238  10.305   3.411 -0.0106  0.2250  0.2626
10238W        W10238   9.070   0.305   0.059 -0.0532 -0.0068  0.3477
10239W        W10239   8.893   9.633   4.709 -0.1835  0.2581 -0.1040
10240W        W10240   5.642   4.095   5.413 -0.2453 -0.0493  0.1739
10241W        W10241   5.467   8.898   9.260  0.0719 -0.2077  0.0705
10242W        W10242   4.966   3.992   1.185 -0.4284 -0.1045  0.1867
10243W        W10243   5.475   7.691   5.804  0.0250  0.1173  0.0599
10244W        W10244   4.350   3.882   4.204  0.2750 -0.0496  0.0973
10245W        W10245   6.160   9.929   4.439 -0.0481 -0.3100  0.1424
10246W        W10246   9.106   0.987   4.138 -0.0756 -0.3649  0.2562
10247W        W10247   7.097   8.245   6.221  0.3029 -0.0266  0.1095
10248W        W10248   9.262   7.684   1.382 -0.1618 -0.0558 -0.2920
10249W        W10249   7.648   8.455   4.841 -0.1627 -0.2090  0.3489
10250W        W10250   8.335   0.417   0.346  0.0818  0.0425  0.0119
10251W        W10251   2.544  10.281   7.276 -0.1508  0.0378  0.1947
10252W        W10252   7.160   4.691   0.698 -0.2478 -0.2087  0.1982
10253W        W10253   6.023   7.355   3.834 -0.0340 -0.1811  0.2317
10254W        W10254   7.256   9.478   3.338 -0.0944 -0.2777  0.4841
10255W        W10255   0.136   1.185   6.631 -0.1473  0.0276 -0.1131
10256W        W10256   4.304   1.672   8.075 -0.0840  0.1030  0.0753
10257W        W10257   4.921  10.291   3.719 -0.3946  0.0827 -0.0796
10258W        W10258   0.663   3.468   0.549 -0.1661  0.1320  0.1644
10259W        W10259   6.165   5.328   9.398  0.0832  0.1714 -0.3341
10260W        W10260   0.667   0.623   9.137 -0.2067 -0.3486 -0.1706
10261W        W10261   0.641   4.358   7.873  0.2037 -0.0209 -0.1277
10262W        W10262   0.818   2.157   6.143 -0.1123  0.0775  0.1175
10263W        W10263   1.136   3.011   7.394  0.3180 -0.1246  0.1079
10264W        W10264   9.510   4.481   9.079  0.0356  0.3323  0.0850
10265W        W10265   8.031  10.072   8.992  0.1228  0.0233  0.4386
10266W        W10266   6.431   1.118   4.327 -0.2421  0.0965  0.1996
10267W        W10267   7.326  10.051   0.565 -0.0700  0.2162  0.1038
10268W        W10268   5.753   2.421   1.397 -0.2645  0.0760 -0.0347
10269W        W10269   4.468   5.869   5.779  0.1839 -0.1211  0.1530
10270W        W10270   5.676  10.175   4.520 -0.2927 -0.2429  0.0837
10271W        W10271   0.894   4.163   5.773  0.1329 -0.3407  0.0840
10272W        W10272   0.606   9.752   6.575 -0.0995  0.2683  0.2873
10273W        W10273   6.119   3.722   6.174 -0.1829 -0.0149 -0.0777
10274W        W10274   2.901   9.315   0.812 -0.1907  0.1320 -0.0389
10275W        W10275   9.607   5.240   0.236 -0.2235 -0.2510 -0.1095
10276W        W10276   8.886   0.351   8.158 -0.1078 -0.3879  0.0366
10277W        W10277   2.607   5.798   8.423 -0.0299  0.0351  0.3220
10278W        W10278   1.742   3.812   8.586 -0.4614 -0.0802 -0.1725
10279W        W10279   7.231  10.227   7.016  0.0958  0.1178  0.0552
10280W        W10280   8.310   5.633   7.749  0.1918 -0.1075 -0.1411
10281W        W10281   2.564   5.782   6.019  0.0377  0.0221  0.0775
10282W        W10282   7.257   1.163   0.526 -0.2753 -0.0663  0.1232
10283W        W10283   5.622   2.397   6.195  0.3447  0.0113  0.1550
10284W        W10284   1.678   7.563   9.081 -0.0548  0.1893 -0.2738
10285W        W10285   2.142   5.542   8.067 -0.1710 -0.1841  0.2209
10286W        W10286   1.559   7.042   1.943  0.1589  0.2541 -0.2161
10287W        W10287   3.975   6.420   5.436 -0.3529 -0.0455 -0.4282
10288W        W10288   7.924   1.507   2.313 -0.0904 -0.1437 -0.2666
10289W        W10289   2.137   2.660   6.017  0.1536  0.3106 -0.0780
10290W        W10290   9.415  10.330   0.729  0.0778 -0.1561 -0.0821
10291W        W10291   0.084   6.874   1.650  0.0801 -0.0255  0.1703
10292W        W10292   3.957   5.512   5.769  0.1068  0.0769  0.4032
10293W        W10293   2.710   1.409   1.595 -0.0751  0.0827  0.0436
10294W        W10294   5.319   1.411   6.234  0.1296  0.4067  0.0937
10295W        W10295   6.532   8.139   5.907  0.2022  0.0741 -0.1044
10296W        W10296   2.513   9.382   0.495 -0.0131 -0.1385  0.0379
10297W        W10297   4.145   7.485   6.309 -0.0267 -0.1868  0.3119
10298W        W10298   3.476   5.638   4.720 -0.0719 -0.0762 -0.1052
10299W        W10299   1.455   6.803   7.302 -0.1542 -0.4862 -0.3173
10300W        W10300   3.455  10.068  10.297  0.0107  0.0670 -0.0935
10301W        W10301   8.716   1.811   7.391  0.0006  0.0590 -0.1452
10302W        W10302   2.546   9.771   0.804  0.3150 -0.0068  0.2755
10303W        W10303   8.465   3.928   0.581 -0.0264 -0.1712 -0.0388
10304W        W10304  10.195   5.584   8.436 -0.1515 -0.1044 -0.0984
10305W        W10305   5.033   7.854   5.658 -0.0247  0.1457 -0.1372
10306W        W10306   3.979   1.295   1.072 -0.4460  0.0091 -0.0186
10307W        W10307   7.582   0.129   6.247 -0.2314  0.1018 -0.0027
10308W        W10308   5.009   4.082   6.548  0.1392  0.3844  0.2031
10309W        W10309   5.375   6.913   7.648 -0.0286 -0.1429  0.0208
10310W        W10310   9.651   1.199   6.240 -0.0052  0.2156 -0.4102
10311W        W10311   2.071   5.778   8.531 -0.1112 -0.1250  0.0123
10312W        W10312   8.827   1.055   9.848 -0.2665 -0.1214 -0.1549
10313W        W10313   9.082   9.149   9.404 -0.3997  0.3166  0.2610
10314W        W10314   2.293   8.781   2.789  0.2616 -0.0943 -0.0991
10315W        W10315   0.527   6.753   8.181  0.0148 -0.0543 -0.0092
10316W        W10316   9.985   1.530   6.472  0.2875 -0.1029  0.3391
10317W        W10317  10.098   3.333   2.898  0.0021  0.0589 -0.1305
10318W        W10318   5.853   6.957   3.596  0.1223  0.0370  0.0772
10319W        W10319   4.446   3.429   8.300 -0.2704  0.0448  0.1302
10320W        W10320   3.524   4.580   7.463 -0.4481  0.1743 -0.0368
10321W        W10321   2.418   0.931   2.652  0.0051 -0.0135 -0.0169
10322W        W10322   0.781  10.321   4.986 -0.2110  0.1498 -0.2604
10323W        W10323   3.925   2.066  10.047  0.1071 -0.1146  0.0796
10324W        W10324   0.104   2.929   7.308  0.0398  0.0653 -0.3210
10325W        W10325   9.267   8.142   2.712 -0.0027 -0.2683  0.3652
10326W        W10326   0.111   2.861   8.460  0.1112 -0.3843  0.0107
10327W        W10327   9.690   2.481   2.208  0.0113  0.4079 -0.0119
10328W        W10328   3.142   2.501   9.803 -0.1325 -0.0215  0.0722
10329W        W10329   6.990   0.270   7.416  0.1229 -0.2645 -0.2513
10330W        W10330   6.896   9.902   0.757 -0.1346 -0.2327 -0.1223
10331W        W10331   7.919   8.087   6.955  0.0342  0.2990 -0.2107
10332W        W10332   1.583   6.362   1.269  0.0459 -0.0804  0.0065
10333W        W10333   9.174   7.642   3.375 -0.2559 -0.0003  0.1059
10334W        W10334   6.459   7.525   0.193 -0.0259 -0.2322 -0.3339
10335W        W10335   3.517   8.097   6.096  0.2192 -0.1003 -0.0351
10336W        W10336   9.605   1.991   2.436  0.2624 -0.0881  0.0571
10337W        W10337   2.273   7.498   7.074 -0.0647  0.1182  0.0368
10338W        W10338   6.142   9.703   6.789  0.2215 -0.1823  0.1881
10339W        W10339   0.152   9.541   2.621 -0.1064  0.1265 -0.0796
10340W        W10340   4.919   7.054   4.765 -0.3030  0.0964  0.1473
10341W        W10341   9.880   0.971   2.348  0.0269  0.1183  0.0408
10342W        W10342   9.420   9.332   1.762 -0.0563 -0.0392  0.0652
10343W        W10343   7.684   6.930   4.419 -0.0102 -0.1657 -0.3069
10344W        W10344   2.802   1.113   8.284  0.3513 -0.3103 -0.0266
10345W        W10345   2.802   2.693   2.386 -0.2118 -0.1642 -0.0491
10346W        W10346   5.403   8.548  10.257  0.1487 -0.2437 -0.0073
10347W        W10347   4.768   1.990   8.132 -0.1059 -0.0925 -0.0436
10348W        W10348   7.368   7.144   2.424 -0.0910 -0.2580  0.0033
10349W        W10349   7.395   2.056   1.162  0.1209 -0.3296  0.2063
10350W        W10350  10.157   1.583   0.368  0.2189 -0.0495 -0.1080
10351W        W10351   8.935   7.918   7.462  0.0957 -0.1020 -0.0189
10352W        W10352   1.277   9.804   7.943  0.1808  0.1705  0.0797
10353W        W10353   2.998   8.621   4.890  0.1362  0.1591  0.3068
10354W        W10354   9.601   9.334   2.663  0.1982 -0.2114  0.2051
10355W        W10355   1.753   3.022   3.758 -0.2965  0.0043 -0.3171
10356W        W10356   0.825   8.469   5.383 -0.0019 -0.1838 -0.1776
10357W        W10357   1.921   1.790   5.963 -0.3593 -0.1649 -0.0045
10358W        W10358   3.794   2.862   4.747 -0.1216 -0.1743  0.2351
10359W        W10359   0.470   1.415   4.674 -0.1508 -0.1187 -0.0700
10360W        W10360   5.097   8.972   6.311 -0.0355  0.0902  0.2850
10361W        W10361   9.581   7.283   7.937  0.2896 -0.1539 -0.0997
10362W        W10362   3.928   1.066   1.513  0.1137  0.1076 -0.2141
10363W        W10363   6.866   0.819   5.774  0.1160 -0.2002  0.1277
10364W        W10364   2.694   5.642   5.262 -0.1432 -0.3090 -0.2330
10365W        W10365   9.611   2.537   5.950  0.0691  0.1705 -0.0839
10366W        W10366   4.723   7.060   6.793  0.2593 -0.1017 -0.0596
10367W        W10367   7.620   3.946   9.166  0.2528 -0.1371 -0.0647
10368W        W10368   0.003   6.740   8.919  0.1985  0.0925  0.0763
10369W        W10369   9.786   7.442   2.942 -0.1694 -0.2218  0.2521
10370W        W10370   9.707   5.842   4.260 -0.1963 -0.1329 -0.0125
10371W        W10371  10.135   0.355   3.636  0.0810 -0.1258  0.0960
10372W        W10372   9.031   7.779   5.542 -0.1745  0.2712  0.2013
10373W        W10373   8.904   5.221   1.706 -0.1504  0.0117 -0.1360
10374W        W10374   7.907   0.221   3.969 -0.2262  0.0677 -0.1737
10375W        W10375   5.897  10.331   4.123  0.4019 -0.1127  0.2121
10376W        W10376   6.176  10.280   1.184 -0.0531  0.0671 -0.0486
10377W        W10377   2.629   8.540   8.646 -0.6950 -0.4140  0.2015
10378W        W10378   9.586   1.681   7.624  0.0305 -0.1468 -0.0861
10379W        W10379   5.690   1.664   5.312 -0.0816  0.2356  0.0140
10380W        W10380   6.406   0.954   0.257 -0.5071 -0.2939  0.0671
10381W        W10381   5.050   6.208   9.717 -0.0236 -0.1059 -0.1227
10382W        W10382   1.176   1.706   1.598  0.0145 -0.0877  0.2974
10383W        W10383   3.947   1.759   4.254 -0.3212  0.0156  0.0203
10384W        W10384   5.020   7.371   0.609  0.0385 -0.0929  0.0383
10385W        W10385   8.821   0.971   1.401 -0.2263  0.1632  0.2282
10386W        W10386   5.089   1.932   3.529  0.1009 -0.1527  0.2341
10387W        W10387   3.714   0.967   3.526 -0.1085  0.0199  0.0485
10388W        W10388   3.286   5.008   5.609  0.0795  0.1115  0.2303
10389W        W10389   6.701   3.768   3.877  0.1103  0.1987 -0.0613
10390W        W10390   9.413   4.299   8.460  0.2740 -0.2189 -0.0379
10391W        W10391   5.985   0.530   4.021 -0.2204  0.0610  0.3072
10392W        W10392   1.343   1.339   1.146 -0.2097 -0.2541 -0.0069
10393W        W10393   4.915   3.608   0.788 -0.0527  0.0702 -0.2288
10394W        W10394   3.800   4.735   2.562 -0.1503  0.1834 -0.0042
10395W        W10395   2.595   2.212   6.559 -0.2568 -0.1515 -0.2208
10396W        W10396   0.956   4.239   0.233 -0.1346 -0.0223  0.1355
10397W        W10397   9.548   8.645   2.221 -0.0349  0.0457 -0.2411
10398W        W10398   3.061   6.090   2.098 -0.1819 -0.1212  0.0321
10399W        W10399   2.116   9.976   9.456  0.2144  0.2348  0.1043
10400W        W10400   5.413   7.422   7.966 -0.0308  0.1042 -0.1516
10401W        W10401   8.898   8.445   2.930 -0.0546 -0.0462 -0.0996
10402W        W10402   1.975   3.018   8.240 -0.0208  0.1148 -0.0090
10403W        W10403   7.889   3.269   3.212 -0.0034 -0.0694 -0.0558
10404W        W10404   2.751   9.996   3.557 -0.1616 -0.1107 -0.2354
10405W        W10405   9.371   7.935   6.986 -0.1316 -0.1167  0.2622
10406W        W10406   6.869   6.851   5.719  0.3863  0.0342  0.0342
10407W        W10407  10.258   9.893   2.343  0.0484 -0.0745  0.1251
10408W        W10408   1.182   9.901   6.585 -0.1809  0.2365  0.1825
10409W        W10409   2.251   1.600   7.140  0.1781  0.0916 -0.1009
10410W        W10410   4.854   4.019   6.041 -0.3119  0.4591  0.3346
10411W        W10411   1.679   9.253   6.178 -0.0217 -0.1677  0.1426
10412W        W10412   2.943   0.672   8.057  0.0062  0.2295  0.0222
10413W        W10413   4.165   1.849   8.896 -0.3262  0.3368 -0.2357
10414W        W10414   1.476   6.610   3.460  0.2406  0.0880 -0.2331
10415W        W10415   9.169   3.407   3.612  0.0059  0.1036  0.1098
10416W        W10416   1.798   0.530   7.468  0.1226  0.0351 -0.0847
10417W        W10417   5.177   3.901   0.283  0.0036 -0.1503 -0.2335
10418W        W10418   0.634   7.104   8.508  0.3001 -0.0034  0.1020
10419W        W10419   9.383   1.200   2.768  0.0605  0.2001 -0.2330
10420W        W10420   0.183   8.113   6.347 -0.1418 -0.1840 -0.1517
10421W        W10421   6.783   7.759   5.629  0.4071 -0.0100  0.1858
10422W        W10422   3.265   6.498  10.007  0.1282  0.1958 -0.4118
10423W        W10423   8.339   8.755   5.909  0.1957 -0.1904  0.3221
10424W        W10424   0.990   8.115   6.681 -0.1280  0.0904  0.1292
10425W        W10425   0.649   9.279   2.395  0.0794 -0.4479  0.0234
10426W        W10426   9.091   7.289   5.325  0.2972 -0.0081 -0.0306
10427W        W10427   5.873   9.565   1.986  0.2059 -0.1904 -0.3387
10428W        W10428  10.268   9.339   8.919 -0.2273  0.1667  0.1183
10429W        W10429   8.476   0.618   9.724  0.1324  0.1403  0.0983
10430W        W10430   6.223  10.240  10.042  0.1913  0.0734  0.0520
10431W        W10431   8.253   7.547   0.836 -0.2103 -0.0023  0.0773
10432W        W10432   8.677   1.278   8.094  0.1025 -0.0231  0.1812
10433W        W10433   3.438   9.902   5.165  0.0169 -0.3464 -0.2390
10434W        W10434   5.956   4.924   2.187  0.3441 -0.2004  0.2256
10435W        W10435   6.177   6.718   4.941 -0.4813 -0.4731  0.0054
10436W        W10436   6.122   9.447   3.572  0.1142 -0.2034  0.3845
10437W        W10437   2.086   3.772   9.061  0.0859 -0.0253  0.0707
10438W        W10438   6.534   0.698   9.701  0.1229 -0.2543 -0.0720
10439W        W10439   5.570   1.923   6.134 -0.0645  0.0192 -0.1981
10440W        W10440   9.918   0.910   8.185 -0.1648 -0.2101 -0.1060
10441W        W10441   5.103   7.939   0.669  0.0696 -0.0939  0.0637
10442W        W10442   0.041   9.736  10.266  0.1129  0.1623 -0.1589
10443W        W10443   1.931   6.034   8.959 -0.0159  0.2848 -0.2342
10444W        W10444   4.190   9.084   7.097  0.3901 -0.0139  0.2188
10445W        W10445  10.026   3.406   0.137 -0.0342  0.3027  0.0808
10446W        W10446   0.259   6.659   7.268 -0.0842 -0.2120  0.2818
10447W        W10447   0.626   6.819   4.799 -0.0201  0.1020 -0.1362
10448W        W10448   9.945   1.169   3.785 -0.4313 -0.1054 -0.1353
10449W        W10449   6.878   3.469   5.500  0.1449  0.4506  0.1373
10450W        W10450   8.332   0.884   1.660 -0.2039 -0.3748  0.0310
10451W        W10451   0.319   7.156   8.072  0.1185 -0.1330 -0.0581
10452W        W10452   2.995   6.293   2.569 -0.2236 -0.0603  0.4897
10453W        W10453   3.317   1.934   1.901  0.1229  0.0803 -0.1351
10454W        W10454   3.812  10.002   1.494  0.1095  0.3162  0.0006
10455W        W10455   9.140   0.306   8.572 -0.0856  0.1328  0.0286
10456W        W10456   8.501   9.669   2.324  0.3937  0.0773  0.0455
10457W        W10457   4.264   7.935   4.984 -0.0335  0.1831  0.1303
10458W        W10458   4.223   0.995   7.190  0.2086 -0.3280 -0.1067
10459W        W10459   7.357   4.153   6.508  0.1496 -0.0908  0.3109
10460W        W10460   6.090   7.487   6.700 -0.0050  0.1757 -0.1807
10461W        W10461   8.470   3.715   1.445 -0.1720 -0.3665 -0.1911
10462W        W10462   3.632  10.030   7.525 -0.2777  0.1373  0.1216
10463W        W10463  10.250   8.962   6.343  0.0917 -0.1667  0.0262
10464W        W10464   8.370   0.033   7.995  0.0442 -0.1956  0.1160
10465W        W10465   5.355   3.064   9.505  0.2111  0.1424  0.0671
10466W        W10466   0.249   5.195   3.918 -0.0975  0.2427 -0.2581
10467W        W10467   7.676   0.877   5.293 -0.0670  0.0111  0.2052
10468W        W10468   6.962   4.891   3.710 -0.1381  0.1232 -0.1808
10469W        W10469   6.773   6.583   2.191 -0.1458 -0.3033 -0.0183
10470W        W10470   8.589   5.012   6.250  0.0914  0.0831  0.0735
10471W        W10471  10.314   8.894   0.305  0.2056 -0.1729 -0.2704
10472W        W10472   8.520   2.127   2.121  0.0350 -0.1698  0.2283
10473W        W10473   4.844   2.515   4.584  0.0487  0.1015  0.1019
10474W        W10474   7.091   8.007   5.170  0.0444  0.2004  0.0010
10475W        W10475   0.889   9.873   7.455 -0.0466 -0.2124  0.2736
10476W        W10476   3.508   5.350   5.847 -0.0533 -0.0907  0.0671
10477W        W10477   5.878   9.009   3.632 -0.0471  0.1657 -0.0148
10478W        W10478   0.006   8.193   1.150 -0.1158  0.1000 -0.1944
10479W        W10479   5.902   4.477   6.830  0.2610  0.1114  0.0814
10480W        W10480   6.956   7.010   9.982  0.2553 -0.0310  0.3021
10481W        W10481  10.033  10.340   3.304 -0.0540 -0.0227 -0.1000
10482W        W10482   4.274   5.188   3.468 -0.0113 -0.2964 -0.2525
10483W        W10483   6.627   2.555   3.460  0.0990  0.2945  0.0472
10484W        W10484   5.005   8.861   8.419 -0.0175  0.3537  0.3419
10485W        W10485   1.188   9.404   4.644  0.2352  0.0832  0.2271
10486W        W10486   1.746   2.590   3.365 -0.2147 -0.0097 -0.1034
10487W        W10487   6.834   5.901   0.606  0.1216 -0.2878 -0.0399
10488W        W10488   9.668   8.286   2.987  0.1712  0.2842  0.3337
10489W        W10489   0.787   5.590   5.900 -0.2328 -0.1706  0.2747
10490W        W10490   3.277   6.973   4.341  0.1005  0.0086  0.0937
10491W        W10491   5.464   8.303   0.862  0.0177 -0.0267 -0.3789
10492W        W10492   7.848   7.633   3.828 -0.3517 -0.2030  0.0667
10493W        W10493   7.483   4.125   0.346 -0.1831  0.1452  0.0420
10494W        W10494   7.356   8.237   8.809 -0.3070 -0.2352 -0.2986
10495W        W10495   5.717   5.098   9.388  0.4416  0.0575 -0.2040
10496W        W10496   1.501   1.096   9.193 -0.2572 -0.3142  0.1051
10497W        W10497   3.346   7.100   8.997  0.1480  0.2742 -0.0509
10498W        W10498   6.314   9.979   0.780 -0.1475  0.0981 -0.1440
10499W        W10499   9.852   0.716   3.946  0.0177 -0.0204 -0.1168
10500W        W10500   3.146   2.542   4.446  0.0300 -0.0015  0.1767
10501W        W10501   0.811   5.592   8.080 -0.0882 -0.1852  0.0583
10502W        W10502   7.202   6.372   2.424  0.0501  0.1187  0.5348
10503W        W10503   2.556   4.577   0.362  0.2346 -0.0092 -0.1165
10504W        W10504   5.588   5.664   0.827 -0.2940 -0.1921 -0.1475
10505W        W10505   1.554   6.150   4.993 -0.0509  0.0639 -0.0966
10506W        W10506   8.812   3.423   7.245 -0.2953  0.1683 -0.0225
10507W        W10507   6.053   6.552   1.872  0.1831 -0.0063 -0.5396
10508W        W10508   3.260   9.715   3.323 -0.1612 -0.0665  0.1187
10509W        W10509   7.523   7.954   6.070 -0.1572 -0.0849  0.2381
10510W        W10510   2.832  10.225   0.518 -0.0093  0.0758 -0.0918
10511W        W10511   8.844   7.029   7.439  0.1937 -0.2212 -0.1128
10512W        W10512   6.523   0.304   1.303  0.0960  0.1373  0.0294
10513W        W10513   8.021   1.332  10.167  0.0224 -0.1572  0.0807
10514W        W10514   5.815   9.503   2.461  0.2249 -0.2227  0.0024
10515W        W10515   0.249   3.856   6.351 -0.0075 -0.2038 -0.0405
10516W        W10516   0.741   3.948   4.694 -0.0193  0.1240 -0.1882
10517W        W10517   4.398  10.338   3.100  0.0583  0.2201 -0.0058
10518W        W10518   0.331   4.410   1.658  0.1345  0.1442  0.0961
10519W        W10519   3.226   6.785   4.972  0.2386  0.0469  0.3092
10520W        W10520   8.644   4.811   6.786  0.1145  0.2362  0.0556
10521W        W10521  10.090   4.378   0.358  0.1125  0.3206  0.0133
10522W        W10522   3.826   1.722   1.269  0.2421  0.2591 -0.0422
10523W        W10523   1.207   2.076   3.799 -0.1341  0.1676  0.2369
10524W        W10524   0.710   4.509   7.009  0.2148  0.1856  0.0712
10525W        W10525   4.152   3.802   7.235  0.3113 -0.0149 -0.2776
10526W        W10526  10.104   2.062   3.002  0.1790 -0.0828  0.1761
10527W        W10527   3.470   2.921   9.509  0.4546 -0.0653 -0.3488
10528W        W10528   0.900   3.803   8.296 -0.2677 -0.3763  0.1741
10529W        W10529   7.835   0.138   2.599  0.1419 -0.0912  0.3175
10530W        W10530   6.940   5.756   5.824  0.1287 -0.0762  0.1751
10531W        W10531   9.260   4.400   6.219  0.1170 -0.4976  0.1667
10532W        W10532   3.033   2.664   5.945  0.1593 -0.0440  0.0597
10533W        W10533   9.037   4.671   7.204 -0.2825 -0.4754 -0.1714
10534W        W10534   1.165   0.727   6.332  0.1117  0.2107 -0.1184
10535W        W10535   9.128   4.670   5.254  0.2009 -0.0251  0.2961
10536W        W10536   0.040   8.451   3.839 -0.0326 -0.1672  0.0822
10537W        W10537  10.058   4.993   3.077 -0.0159  0.0518  0.1395
10538W        W10538   1.103   2.844   8.404  0.1476  0.0855  0.0773
10539W        W10539   5.440   6.404   6.045 -0.3542  0.0803  0.2683
10540W        W10540   0.877   3.255   5.465  0.2100 -0.0572  0.0947
10541W        W10541   7.793   9.429   3.913  0.2228 -0.2285 -0.1784
10542W        W10542   9.729   6.201   9.456 -0.1544  0.1262 -0.3375
10543W        W10543   6.977   1.564   0.488  0.0515  0.1920  0.0416
10544W        W10544   7.100   6.453   8.166  0.4957  0.2692 -0.1376
10545W        W10545   7.192   9.137   1.126  0.0287 -0.1501 -0.1210
10546W        W10546   9.313   3.024   3.290 -0.2068  0.3999 -0.1858
10547W        W10547   0.735   3.718   1.023  0.0352  0.1408 -0.0207
10548W        W10548   5.469   7.181   4.929  0.2150 -0.1286  0.3147
10549W        W10549   1.710   1.171   1.878 -0.2075 -0.1323  0.5358
10550W        W10550   5.154   1.051   6.656  0.0918  0.2595  0.1765
10551W        W10551   6.453   4.973   2.197 -0.0629  0.0667  0.0252
10552W        W10552   3.313   9.541   9.241  0.0405  0.2505  0.0100
10553W        W10553   7.387   9.892   5.536 -0.0635 -0.0429  0.0960
10554W        W10554   2.698   7.190   9.981  0.1519  0.0549 -0.0091
10555W        W10555   8.918   8.390   1.280  0.1421  0.2136  0.0771
10556W        W10556   1.286   3.834   2.863  0.2578 -0.2448 -0.1000
10557W        W10557   5.788   4.938   1.251 -0.2413 -0.0269  0.0497
10558W        W10558   8.980   6.886   2.494  0.1596  0.2764 -0.2920
10559W        W10559   9.307   9.450   2.248  0.1661 -0.2393  0.0895
10560W        W10560   0.685   2.628   6.195 -0.0954 -0.1247  0.2011
10561W        W10561   5.380   2.617   5.599  0.1382  0.1084  0.1711
10562W        W10562   8.409   4.730   4.969 -0.1056 -0.2101  0.5741
10563W        W10563  10.048   9.288   9.398 -0.0468  0.1142 -0.1096
10564W        W10564   2.057   1.476   9.330  0.1415 -0.2455  0.2742
10565W        W10565   9.615   6.651   4.419 -0.2027 -0.1553 -0.0400
10566W        W10566   7.087  10.077   0.111 -0.3639 -0.1845 -0.0699
10567W        W10567   8.436   8.546   3.970  0.0613 -0.2375  0.0215
10568W        W10568   8.920   7.418   8.952  0.0231 -0.1849  0.3288
10569W        W10569   9.443   6.226   4.233  0.3272  0.2133  0.0234
10570W        W10570   2.365   7.227   8.915  0.1784  0.0480  0.2232
10571W        W10571   8.942   1.750   2.290  0.0472 -0.1216 -0.2871
10572W        W10572   1.166   6.737   1.239  0.0561  0.0365 -0.0539
10573W        W10573  10.142   3.651   3.929  0.1449 -0.0063 -0.2285
10574W        W10574   0.267   6.400   4.782 -0.0743 -0.1499 -0.1986
10575W        W10575   7.105   4.147   8.980  0.0466 -0.1720 -0.3598
10576W        W10576  10.081   4.153   9.260 -0.0496  0.1341 -0.3412
10577W        W10577   6.946   7.450  10.302 -0.1337  0.1822  0.2692
10578W        W10578   1.275  10.235   5.168 -0.0746 -0.3495 -0.0007
10579W        W10579   0.495   7.989   3.567  0.0931 -0.2397  0.0298
10580W        W10580   5.573   9.711   8.881  0.0753 -0.1789 -0.3153
10581W        W10581   4.683   7.492   2.987 -0.1890  0.0068  0.1459
10582W        W10582   3.156   5.927   5.221  0.0700 -0.2239  0.2839
10583W        W10583   8.152  10.153   2.423  0.1175 -0.0028  0.0302
10584W        W10584   8.106   4.346   3.140 -0.2371  0.2639 -0.0508
10585W        W10585   9.357   4.911   1.109 -0.0573  0.1537 -0.0740
10586W        W10586   2.798   2.052   3.812  0.0299  0.0730 -0.2959
10587W        W10587   6.103   5.630   3.667  0.0128 -0.3227 -0.0998
10588W        W10588   0.071   8.758   1.895  0.0154  0.1624 -0.2971
10589W        W10589   2.452   3.898   9.382 -0.1972  0.1392 -0.2369
10590W        W10590   9.732   4.101   3.419  0.1884 -0.1453 -0.1491
10591W        W10591   1.654   2.601   0.282  0.1003 -0.0928 -0.0190
10592W        W10592   2.875   0.524   0.072  0.0707 -0.1941  0.0348
10593W        W10593   5.573   4.541   7.570 -0.1817  0.2438  0.1068
10594W        W10594   2.251   3.297   8.835  0.4813  0.0075 -0.2206
10595W        W10595   1.849   7.259   7.180 -0.2928  0.1057  0.1773
10596W        W10596   7.757   2.112   4.740 -0.0712  0.1923 -0.0159
10597W        W10597   7.304   8.743   8.639  0.0556  0.0437  0.2569
10598W        W10598   3.750   0.698   2.493 -0.0684  0.1228  0.1029
10599W        W10599   5.294   6.265   6.593 -0.0607 -0.2824  0.1377
10600W        W10600   1.581   6.157  10.172  0.2736  0.1217  0.0036
10601W        W10601   4.822   8.463   5.409 -0.0505  0.1082  0.0712
10602W        W10602   6.218   3.364   1.464  0.2251  0.0042 -0.1550
10603W        W10603   8.959   8.374   0.721  0.0298  0.2127 -0.0560
10604W        W10604   6.951   0.837   9.343 -0.2602 -0.1189  0.0987
10605W        W10605   2.189   6.750   6.600  0.2534  0.1442  0.1398
10606W        W10606   4.297   4.918   8.012 -0.0997 -0.0658 -0.0807
10607W        W10607   4.618   2.687   7.689  0.0869 -0.1544 -0.2187
10608W        W10608   5.882   9.846   9.749 -0.4041  0.1052  0.1332
10609W        W10609   0.756   4.618   0.603  0.2900 -0.2086  0.0166
10610W        W10610   0.742   6.804   9.463  0.0088  0.1076  0.2803
10611W        W10611   5.350  10.128   3.344 -0.1336  0.1506  0.0570
10612W        W10612   0.098   6.263   3.760  0.1453  0.0845  0.3167
10613W        W10613   0.874   1.540   2.616 -0.0550  0.2609 -0.0854
10614W        W10614   8.343   8.248   3.555 -0.0436 -0.1638 -0.1138
10615W        W10615   3.424   3.212   6.999  0.2679 -0.0940 -0.0064
10616W        W10616   7.193   7.866  10.343  0.3563  0.0296  0.1450
10617W        W10617   6.665   1.175   9.827  0.1120  0.3941  0.0037
10618W        W10618  10.336   8.041   5.331  0.1820 -0.0502  0.0054
10619W        W10619   9.181   1.894   5.833  0.1955 -0.2182 -0.0983
10620W        W10620   5.653   3.211   8.736 -0.4614  0.2834 -0.0734
10621W        W10621   2.371   6.884   1.025 -0.2206  0.1378 -0.2334
10622W        W10622   2.556   0.344   8.222  0.4837 -0.0567 -0.0289
10623W        W10623   3.744   1.295   2.447  0.0892 -0.0194 -0.1279
10624W        W10624   2.297   6.187   0.351  0.3490 -0.2044 -0.1375
10625W        W10625   3.761   9.602   7.715  0.2998  0.1211  0.0375
10626W        W10626   1.145   3.836   3.463 -0.0750  0.1650  0.2427
10627W        W10627   2.323   8.667   7.962 -0.0231 -0.1279 -0.0719
10628W        W10628   3.008   0.798   5.955  0.1543 -0.0922  0.2628
10629W        W10629   5.281   0.896   8.743 -0.0158 -0.0290 -0.0567
10630W        W10630   8.762   5.966   9.527 -0.2513  0.0807  0.0632
10631W        W10631   4.617   3.835   3.382 -0.1511  0.2453 -0.4039
10632W        W10632   4.492   8.574   8.378  0.1022  0.0168  0.1757
10633W        W10633   8.882   0.848   5.781 -0.2416 -0.4514 -0.0714
10634W        W10634   7.499   9.557   5.917 -0.2450 -0.1450 -0.1319
10635W        W10635   1.677   9.821   1.778 -0.0210 -0.2740  0.1666
10636W        W10636   6.164   1.222   2.508 -0.2782  0.1019 -0.2043
10637W        W10637   7.542   8.120   0.255  0.0743  0.0814 -0.2698
10638W        W10638   2.605   4.557   2.417 -0.0161  0.3064  0.2092
10639W        W10639   8.622   9.953   8.161  0.2270  0.4136 -0.0582
10640W        W10640   8.746   8.035   3.225  0.2135 -0.0729  0.1204
10641W        W10641   5.502   2.264   8.782  0.1669 -0.0343  0.0089
10642W        W10642   5.683   7.387   0.630 -0.0128  0.0601  0.0906
10643W        W10643   0.592   2.797   8.201  0.1700 -0.2382 -0.2286
10644W        W10644   4.276   3.617   6.281  0.0199  0.1150  0.2735
10645W        W10645   1.395   6.657   7.791 -0.2044 -0.2180 -0.0090
10646W        W10646   6.492   3.608   7.624  0.1138  0.0680 -0.2482
10647W        W10647   2.467   1.808   7.536  0.0497 -0.1348 -0.1967
10648W        W10648   8.005   3.169   9.060 -0.2359 -0.2392 -0.0286
10649W        W10649   1.412   9.080   6.573 -0.0419  0.0588  0.1295
10650W        W10650   6.170   3.105   0.844 -0.2852  0.0663 -0.0784
10651W        W10651   0.188   3.680   4.299 -0.0633 -0.2141  0.0401
10652W        W10652   7.623   1.344   5.500  0.0834  0.1833  0.1868
10653W        W10653   9.601   3.376   4.859  0.5268 -0.0477  0.0139
10654W        W10654   0.845   0.653   7.780  0.0132  0.3588 -0.0428
10655W        W10655   0.358   6.321   2.789  0.2908 -0.0103  0.1852
10656W        W10656  10.067   8.392   5.588 -0.1727 -0.1017  0.0153
10657W        W10657   6.611   1.589   0.858 -0.0754 -0.1448 -0.1945
10658W        W10658   1.284   3.723   0.493 -0.1099 -0.4490  0.2153
10659W        W10659   7.775   8.831   0.606  0.1963 -0.1736 -0.2902
10660W        W10660   8.914   1.547   6.462 -0.2780  0.1252 -0.0306
10661W        W10661   9.852   2.494   8.066  0.0585  0.2080 -0.0216
10662W        W10662   2.841   0.685   3.203 -0.3696 -0.1465 -0.3835
10663W        W10663   0.625   4.674   1.361  0.3153  0.2870  0.2408
10664W        W10664   0.770   0.375   1.344 -0.2092 -0.0738  0.0598
10665W        W10665   7.480   2.888   7.286  0.1864 -0.2800 -0.2163
10666W        W10666   2.006   6.768   7.137  0.3130  0.3901 -0.1206
10667W        W10667   2.808   4.152   8.627 -0.0199  0.1878 -0.0733
10668W        W10668   4.456   9.499   7.372  0.3792 -0.2846 -0.0666
10669W        W10669  10.005   2.059   3.611 -0.1110 -0.4365 -0.0468
10670W        W10670   6.098   1.406   5.079 -0.1248  0.1833 -0.1460
10671W        W10671   5.505   7.371   3.742 -0.2105  0.2222  0.3510
10672W        W10672   7.849   7.921   6.432  0.0057  0.3832  0.4143
10673W        W10673   6.563   8.326   6.968 -0.0130  0.3461  0.1198
10674W        W10674   0.309   3.254   7.628  0.0455 -0.2162  0.2931
10675W        W10675   7.857   6.383   4.355 -0.1609 -0.1308  0.0201
10676W        W10676   8.978   9.072   8.145 -0.0319 -0.0481  0.2322
10677W        W10677   6.034   8.495   0.592 -0.0844  0.1091  0.1790
10678W        W10678   7.535   6.265   8.355  0.1689 -0.0041  0.0206
10679W        W10679   8.390   7.418   9.546 -0.0018  0.0296  0.0717
10680W        W10680   4.504   2.758   9.151  0.2262  0.1631 -0.0002
10681W        W10681   8.343   7.102   0.063  0.1221  0.4390 -0.0106
10682W        W10682   2.006   7.265   1.779 -0.1351  0.0822  0.0464
10683W        W10683   0.824  10.285   6.508  0.0255 -0.1636 -0.1015
10684W        W10684   5.978   3.681   0.640 -0.0193 -0.0070  0.0286
10685W        W10685   4.665   1.665   3.755  0.1289  0.0683 -0.2516
10686W        W10686   0.538   8.525   2.027 -0.1614 -0.1116  0.1571
10687W        W10687   6.994   0.090   9.978 -0.0477 -0.2452  0.1936
10688W        W10688   2.859   9.430   6.410 -0.1139  0.2507  0.0305
10689W        W10689   0.803   8.331   7.171  0.2490  0.2029  0.1741
10690W        W10690  10.317   5.995   1.964 -0.0734  0.3193  0.0467
10691W        W10691   3.431   5.862   5.657 -0.0110  0.0720  0.1994
10692W        W10692   8.466   2.306   3.926  0.1622 -0.1397 -0.2253
10693W        W10693   3.116   9.416   0.267 -0.2016  0.0065  0.1647
10694W        W10694   0.933   1.053   4.830  0.2227  0.1099  0.0704
10695W        W10695   6.032   1.143   7.242 -0.0787  0.0977 -0.1173
10696W        W10696   0.023   2.130   1.128 -0.2621  0.0505 -0.0026
10697W        W10697  10.208   8.845   1.379  0.1025  0.5496  0.2005
10698W        W10698   4.710  10.148   8.352  0.1521 -0.0214  0.1900
10699W        W10699   5.995   3.548   2.254  0.1337  0.0028  0.2453
10700W        W10700   0.404   2.517   3.498 -0.0402 -0.2253  0.0018
10701W        W10701   8.330   5.626   8.792 -0.1892 -0.0147  0.2543
10702W        W10702   2.268   2.352   7.731 -0.0220  0.2911  0.0385
10703W        W10703   0.598   1.858   7.090 -0.2297  0.0353  0.1678
10704W        W10704   7.377   6.134   7.833  0.0637  0.3431 -0.1511
10705W        W10705   8.106   8.573   0.877 -0.1946  0.0489  0.0245
10706W        W10706   4.380   6.223   8.623 -0.1361  0.3123  0.2086
10707W        W10707   4.634   6.181   1.008 -0.0436  0.0741  0.3426
10708W        W10708   8.941   6.305   5.843 -0.0589  0.0286  0.0605
10709W        W10709   5.552   1.425   0.310  0.2525 -0.1704 -0.1482
10710W        W10710   5.927   1.675   3.682  0.0452 -0.0564  0.2119
10711W        W10711   9.283   0.033   8.965 -0.1136 -0.2247 -0.0521
10712W        W10712   0.511   1.194   8.293  0.2627  0.2265 -0.2776
10713W        W10713   3.893   9.851   5.449 -0.0770  0.2049 -0.0458
10714W        W10714   3.040   3.018   0.247 -0.1191 -0.1791 -0.5954
10715W        W10715   6.577   8.087   1.824 -0.3444  0.1265 -0.1723
10716W        W10716   2.295   7.932   5.009  0.0066  0.3295 -0.2138
10717W        W10717   8.474   3.466   3.124 -0.1336 -0.0071 -0.0459
10718W        W10718   0.605  10.233   8.976 -0.2935 -0.0091  0.0151
10719W        W10719   8.844   2.576   2.156 -0.1731 -0.0271 -0.2026
10720W        W10720   9.459  10.330   6.900  0.4586 -0.2670  0.0915
10721W        W10721   3.098   9.786   4.793  0.1268 -0.1636 -0.2052
10722W        W10722   0.570   7.539   4.599 -0.0313 -0.0118 -0.2393
10723W        W10723   2.095   4.819   2.288  0.0476 -0.0107  0.0855
10724W        W10724   0.984   7.029   7.404  0.1378 -0.0046 -0.0112
10725W        W10725   0.363   0.304   4.836  0.1032 -0.3152  0.0453
10726W        W10726   0.270   2.516   6.631  0.0110 -0.0814  0.0446
10727W        W10727   2.835   0.586   8.518 -0.0455 -0.0652  0.4050
10728W        W10728   1.968   4.324   1.190 -0.2902 -0.4039 -0.2820
10729W        W10729   3.860   7.854   4.709 -0.0848 -0.0649 -0.0264
10730W        W10730   7.445   7.903   8.412  0.1611  0.1946 -0.0402
10731W        W10731   2.328   4.946   3.414  0.2856 -0.0969 -0.1034
10732W        W10732   6.940   5.401   0.499 -0.1130 -0.2124  0.3102
10733W        W10733   1.334   9.687   8.842 -0.1221 -0.3137  0.1613
10734W        W10734   4.988   3.057   6.243  0.0672 -0.0731 -0.2216
10735W        W10735   8.604   9.796   5.091 -0.1785 -0.0363  0.3156
10736W        W10736   8.547   8.239   1.014  0.1205 -0.3635 -0.3322
10737W        W10737   9.840  10.338   7.842 -0.2443  0.2129 -0.1863
10738W        W10738   0.356   8.059   3.010  0.0895 -0.0008 -0.1096
10739W        W10739   1.456   9.090   0.360  0.0086 -0.0482 -0.4735
10740W        W10740   1.197   8.878   3.576  0.0408  0.0869  0.2309
10741W        W10741   9.007   9.456   1.577 -0.1450  0.1067 -0.0104
10742W        W10742   5.439   0.296   8.255 -0.0613  0.0847  0.2898
10743W        W10743   0.895   6.374   3.627  0.0156  0.0010 -0.0912
10744W        W10744   7.083   6.879   0.989 -0.1587  0.0089  0.0300
10745W        W10745   5.903   6.972   3.080  0.1732  0.0972  0.3135
10746W        W10746   2.682   1.901   0.631  0.1025 -0.2068 -0.1356
10747W        W10747   2.998   8.225   6.825  0.1151  0.0849 -0.1032
10748W        W10748   2.141   4.661   3.006 -0.0562 -0.3428 -0.0849
10749W        W10749   0.321   9.750   1.743 -0.1899 -0.1120  0.1539
10750W        W10750   8.403   0.125   2.705 -0.0764  0.5047  0.2482
10751W        W10751   5.961   7.136   5.100 -0.0541  0.0678  0.1077
10752W        W10752   5.160   2.867   2.609 -0.0772 -0.1772 -0.0716
10753W        W10753   4.490   3.089   7.959  0.1323  0.0121  0.0710
10754W        W10754   5.944   8.644   3.302  0.0892  0.2820 -0.0005
10755W        W10755   1.272   2.946   1.390 -0.0790 -0.2504  0.0512
10756W        W10756   1.793   9.539   3.981  0.2905 -0.2143 -0.1245
10757W        W10757   7.513  10.087   3.188 -0.0007  0.1290 -0.0245
10758W        W10758   4.242   1.133   5.531 -0.2152 -0.2149  0.0453
10759W        W10759   9.102  10.225   8.085 -0.0129  0.3137  0.0563
10760W        W10760   2.731   3.278   4.787  0.3587 -0.1353  0.3475
10761W        W10761   4.785  10.144   5.073  0.2048  0.0029 -0.1237
10762W        W10762   1.709   9.023   4.083  0.3099  0.0568 -0.0676
10763W        W10763   2.548   4.553   7.035 -0.2070 -0.2229  0.0380
10764W        W10764   1.924   3.945   0.163 -0.0203  0.2227  0.4991
10765W        W10765   6.085   3.515   7.917 -0.2053  0.1744 -0.3188
10766W        W10766   0.293   4.436   2.636 -0.1946  0.1385  0.0113
10767W        W10767   2.461   4.409   8.286 -0.3996  0.2103 -0.1350
10768W        W10768  10.102  10.301   9.290 -0.0102  0.2279 -0.0538
10769W        W10769   7.545  10.236   3.896  0.2795 -0.2142  0.0791
10770W        W10770   0.296   9.258   3.670 -0.1592  0.2169 -0.0565
10771W        W10771   2.911   8.583   5.355 -0.3233 -0.0690 -0.2246
10772W        W10772   3.267   0.717   0.597 -0.0038  0.2215 -0.1005
10773W        W10773   6.360   4.979   3.158 -0.0072 -0.0321 -0.0003
10774W        W10774   3.096   3.553   4.564 -0.1237  0.1877 -0.1356
10775W        W10775  10.155   2.444   1.602  0.2016  0.1774  0.0075
10776W        W10776   0.994   5.995   6.000  0.1944 -0.0287 -0.1375
10777W        W10777   1.606   0.626   9.437  0.0228  0.1229 -0.0237
10778W        W10778   8.545   6.917   7.038  0.2010 -0.0712  0.0877
10779W        W10779   7.666   6.419   0.394  0.2428  0.1972 -0.3295
10780W        W10780   3.075   1.588   4.250 -0.1681 -0.1864 -0.0631
10781W        W10781   9.642   9.999   6.490 -0.0416  0.1724  0.0156
10782W        W10782   7.640   4.522   2.860 -0.0166 -0.0676  0.2453
10783W        W10783   3.633   2.822   2.345 -0.1277 -0.0813  0.2217
10784W        W10784  10.013   9.747   7.207  0.2255 -0.1455  0.3431
10785W        W10785   7.579   1.968   6.765  0.1878 -0.0061 -0.1366
10786W        W10786   4.335   6.241   3.788  0.0311 -0.0976  0.0898
10787W        W10787   3.124   5.284   8.824  0.0280 -0.0325 -0.1117
10788W        W10788   8.890   7.696   4.239  0.2484 -0.0025  0.0677
10789W        W10789   6.355   1.284   7.747 -0.3846 -0.5313 -0.0122
10790W        W10790   1.238   4.182   6.198 -0.0426  0.0323 -0.0055
10791W        W10791   3.016   3.536   5.255 -0.1678  0.0858  0.0037
10792W        W10792   4.407   3.494   6.857  0.2815 -0.0458 -0.2355
10793W        W10793   2.201   4.395   9.659 -0.1665  0.1273 -0.1712
10794W        W10794   0.746   8.333   0.436  0.0181 -0.3971  0.1945
10795W        W10795   5.734   4.684   3.491 -0.1136 -0.1902  0.0365
10796W        W10796   5.166   5.680  10.299 -0.0606  0.0573  0.2689
10797W        W10797   5.598   0.363  10.267 -0.1513 -0.2429  0.1036
10798W        W10798   5.178   1.730   0.304  0.0277 -0.0646 -0.0116
10799W        W10799   4.868   5.032   0.777 -0.1994 -0.2113 -0.3898
10800W        W10800   1.769   8.302   8.436 -0.1672 -0.0962 -0.3105
10801W        W10801   7.243   2.637   1.721  0.0236 -0.1678 -0.1021
10802W        W10802   4.500   8.273   9.947 -0.0052 -0.0420 -0.1426
10803W        W10803   5.824   2.109   9.598 -0.0986  0.2844 -0.0271
10804W        W10804   4.612   8.617   2.234 -0.0980 -0.1889  0.1060
10805W        W10805   5.281   4.312   9.431 -0.4389 -0.0104  0.1879
10806W        W10806   7.849   7.236  10.240 -0.0663 -0.1397  0.1768
10807W        W10807   1.429   6.674   5.095  0.0441  0.0128  0.0037
10808W        W10808   7.186   1.248   6.639 -0.0460  0.1290  0.3850
10809W        W10809   0.561   3.038   7.267  0.3187 -0.0410 -0.1199
10810W        W10810  10.191   7.333   3.837  0.5008 -0.1956  0.0150
10811W        W10811   5.642   0.688   7.825  0.0812  0.0657  0.4017
10812W        W10812   9.673   9.676   4.307 -0.0954  0.0558 -0.2349
10813W        W10813   3.578   7.853   8.014 -0.0748  0.0004  0.0714
10814W        W10814   6.788   1.949   3.312  0.0644  0.0104 -0.0879
10815W        W10815   2.299   6.088   8.099 -0.0880  0.0686 -0.0364
10816W        W10816   0.312   5.938   4.634 -0.1336 -0.1908  0.2035
10817W        W10817   9.627   9.836   7.542 -0.0887 -0.0101  0.0534
10818W        W10818   2.982   2.789   8.553  0.1085 -0.1548  0.0892
10819W        W10819   9.421  10.208   4.215 -0.1307 -0.0775 -0.1354
10820W        W10820   7.530   1.900   7.262  0.0938  0.1283 -0.0922
10821W        W10821  10.017   8.272   1.611 -0.0610 -0.3666 -0.2143
10822W        W10822   8.924   2.402   4.640 -0.3050 -0.0015 -0.0969
10823W        W10823   7.969   2.613   2.651  0.0343 -0.1238  0.2959
10824W        W10824   3.820   8.223   0.335 -0.0364  0.1404 -0.0926
10825W        W10825   7.520   1.785   0.459  0.0443  0.0569  0.0874
10826W        W10826   7.986   3.921   7.878 -0.0147 -0.1487  0.0174
10827W        W10827   4.158   6.969   5.416 -0.1968 -0.0599 -0.2958
10828W        W10828   6.995  10.008   8.872  0.3007  0.1837 -0.1608
10829W        W10829   1.423   2.494   9.740  0.1826  0.1698 -0.2122
10830W        W10830   5.367   3.608   5.463  0.0771  0.0996 -0.2022
10831W        W10831   6.313   9.013   3.881 -0.1170  0.2780  0.1743
10832W        W10832   3.256   1.364   8.031  0.0827  0.0388 -0.0817
10833W        W10833   7.769   4.820   6.810  0.4560  0.1968 -0.0176
10834W        W10834   8.622   4.627   5.393  0.2000  0.2243 -0.1526
10835W        W10835   1.775   9.712   2.281  0.2834  0.0183  0.1937
10836W        W10836   5.897   6.987   9.831  0.0307 -0.0139  0.0962
10837W        W10837   6.298   2.805   6.407 -0.1550  0.0624 -0.3739
10838W        W10838   8.617   5.521   9.819  0.1216  0.3665  0.3984
10839W        W10839   2.428   7.350   2.965  0.2428 -0.0715  0.1654
10840W        W10840   4.645   5.056   5.069 -0.0364  0.0070 -0.0141
10841W        W10841   2.038   0.468   4.381 -0.0681  0.0040  0.2908
10842W        W10842   0.668   8.548   3.020 -0.0103  0.0512  0.3295
10843W        W10843   2.457   3.565   5.155  0.0212 -0.0484  0.1862
10844W        W10844   0.610   5.553   3.319  0.1874  0.0374 -0.1202
10845W        W10845   0.154   2.963   0.804 -0.1031  0.2007 -0.2281
10846W        W10846   5.173   5.145   3.674 -0.0561  0.1709 -0.1196
10847W        W10847   2.156   6.009   1.020 -0.3965  0.0173 -0.1347
10848W        W10848   0.906  10.008   9.887 -0.0687  0.2983 -0.1071
10849W        W10849   7.655   2.109   9.545 -0.3534  0.1461  0.1179
10850W        W10850   9.709   4.060   7.401 -0.0902  0.1692 -0.1015
10851W        W10851   7.861   8.934   6.691 -0.2298 -0.2103 -0.5675
10852W        W10852   7.664   1.516   3.073 -0.2028 -0.3305 -0.1703
10853W        W10853   5.537   9.451   9.284  0.1508 -0.1071  0.0808
10854W        W10854  10.171   1.202   1.940 -0.2081 -0.0308 -0.1517
10855W        W10855   1.476   6.073   6.351 -0.0151 -0.1885 -0.2070
10856W        W10856   8.671   5.125   9.141  0.2556 -0.2153 -0.0596
10857W        W10857   1.993   8.352   6.271 -0.3063  0.1279 -0.3679
10858W        W10858   9.851   8.851   9.655  0.2352 -0.0268 -0.4055
10859W        W10859   3.907   9.203   2.620 -0.0908 -0.4079 -0.2039
10860W        W10860   4.440   5.654   6.651 -0.1219 -0.0358 -0.0967
10861W        W10861   1.544   4.190   0.347 -0.1056 -0.0706  0.4133
10862W        W10862   1.089   4.666   1.986 -0.2246 -0.0597 -0.1612
10863W        W10863   4.724   9.878   6.684  0.0122 -0.1396  0.2414
10864W        W10864   6.428   9.420   5.643  0.0782 -0.0740  0.2074
10865W        W10865   5.974   5.677   4.786  0.3065 -0.0660 -0.1498
10866W        W10866   8.850   8.748   9.471 -0.1017  0.2626  0.0257
10867W        W10867   6.514   7.884   8.797  0.0028  0.0538  0.1983
10868W        W10868   0.779   7.532   7.413 -0.0150  0.2555  0.2717
10869W        W10869   1.020   0.705  10.336 -0.1546 -0.0473 -0.2140
10870W        W10870   2.503   1.721   9.389  0.0032 -0.4115 -0.0667
10871W        W10871   7.554   3.001  10.119 -0.1026 -0.0280 -0.0077
10872W        W10872   5.686   4.594   9.058  0.1683  0.0546  0.1046
10873W        W10873   6.244   8.223   3.414  0.1000 -0.1979  0.0508
10874W        W10874   7.414   5.652   7.743 -0.1467  0.0694 -0.1067
10875W        W10875   8.938   0.744   6.986 -0.4609  0.1497 -0.1495
10876W        W10876   5.615   8.094   6.117 -0.2086  0.1574 -0.1927
10877W        W10877   0.966   7.185   4.640  0.1688  0.2231  0.1232
10878W        W10878   4.503   7.478   8.994  0.1471 -0.0328 -0.1399
10879W        W10879   1.967  10.012   3.178 -0.1632 -0.1735  0.1483
10880W        W10880   7.144   4.801   8.077  0.2317 -0.0259 -0.0054
10881W        W10881   5.395   6.984   2.858 -0.1704  0.1244  0.1437
10882W        W10882   2.568  10.157   0.137  0.0088 -0.1596 -0.2384
10883W        W10883   4.046   1.428   5.887 -0.0352  0.1902  0.0997
10884W        W10884   6.587   7.644   5.043  0.3953 -0.1052  0.2547
10885W        W10885   0.063   6.189   3.184 -0.0974  0.0548  0.2949
10886W        W10886   3.651   5.539   9.591 -0.1707 -0.2341  0.0039
10887W        W10887   9.491   7.428   4.328  0.0061  0.1304  0.0392
10888W        W10888   2.519   7.143   3.368 -0.1480  0.2405  0.2023
10889W        W10889   6.356  10.203   4.857  0.0918  0.1491 -0.3671
10890W        W10890   9.974   9.083   6.794 -0.1500  0.0445 -0.2317
10891W        W10891   0.620   2.156   3.195  0.2904 -0.2411  0.0625
10892W        W10892   8.108   0.038   5.524  0.0686 -0.3455 -0.2744
10893W        W10893   1.099   1.789   9.255 -0.0065  0.0285 -0.1137
10894W        W10894   0.300   3.981   5.488 -0.2382  0.1766  0.0268
10895W        W10895   6.407   6.699   4.493  0.0835 -0.1273 -0.0320
10896W        W10896   4.413   6.346   5.662  0.1826 -0.0030  0.0827
10897W        W10897   5.362   7.838   6.492 -0.2068  0.1071  0.0385
10898W        W10898   5.427   6.157   3.588  0.0294 -0.1264  0.1777
10899W        W10899   8.404   1.722   2.402 -0.0123 -0.2815 -0.3042
10900W        W10900   3.064   8.037   3.620 -0.0095  0.0832  0.1456
10901W        W10901   4.766   9.143   7.064  0.0485  0.0338 -0.3223
10902W        W10902   8.646   6.776  10.050  0.0756 -0.1554 -0.0497
10903W        W10903   8.093   6.169   7.225 -0.0272 -0.1318 -0.0353
10904W        W10904  10.066   5.029   5.674 -0.1218 -0.0209 -0.0835
10905W        W10905   6.437   6.774   1.673  0.2329 -0.1280 -0.0792
10906W        W10906   2.756   1.617   2.721 -0.0170 -0.2920 -0.3395
10907W        W10907   4.179   3.646   1.958 -0.2192 -0.0230 -0.0980
10908W        W10908   1.078   9.602   0.699  0.0777  0.1412 -0.1151
10909W        W10909   4.958   1.525   4.158  0.2191  0.0487  0.0985
10910W        W10910   2.817   7.949   4.862 -0.1439 -0.0120 -0.0749
10911W        W10911   4.676   5.648   6.190 -0.2621 -0.0717  0.1999
10912W        W10912   5.879   7.554   0.161  0.1167  0.0835  0.1513
10913W        W10913   2.097  10.269   0.059 -0.1165 -0.1157  0.0343
10914W        W10914   1.851   8.007   3.407 -0.1871 -0.1619  0.0177
10915W        W10915   8.725   7.707   7.940  0.2223  0.0771 -0.0803
10916W        W10916   2.007   7.282   6.664 -0.1802  0.2357 -0.2772
10917W        W10917   4.018   7.137   8.378  0.2164  0.3437  0.2311
10918W        W10918   9.032  10.097   4.607 -0.5048 -0.2263  0.0349
10919W        W10919   0.926   1.234   2.244 -0.3694 -0.0182 -0.1641
10920W        W10920   6.817   6.854   0.583 -0.0211 -0.0865 -0.0587
10921W        W10921   0.381   2.475   8.557 -0.2098  0.0980  0.0728
10922W        W10922   0.232   4.387   0.531 -0.0958 -0.0009 -0.1597
10923W        W10923   3.038   7.367   3.745  0.1369  0.3154 -0.0533
10924W        W10924   8.409   6.499   5.360  0.2145  0.2753 -0.0879
10925W        W10925   0.320   2.981   6.826  0.1760  0.0447  0.1000
10926W        W10926   1.149   1.673   7.171  0.2384 -0.3873  0.0786
10927W        W10927   4.465   7.518   6.815  0.3195 -0.1969 -0.0669
10928W        W10928   3.993   6.819   7.926 -0.3928 -0.3185  0.1987
10929W        W10929   1.307   3.505   1.716  0.3155 -0.3542  0.1443
10930W        W10930   0.109   6.662   0.231 -0.1342  0.0869 -0.1727
10931W        W10931   7.709  10.097   8.329  0.1857 -0.1053 -0.0712
10932W        W10932   7.132   6.936   5.258  0.0535 -0.0707 -0.0004
10933W        W10933   9.329   7.008   3.881 -0.4392  0.0218 -0.3471
10934W        W10934   4.818   0.542   1.707  0.2055  0.0048 -0.2256
10935W        W10935   2.337   7.800   3.222  0.1053 -0.2465 -0.0833
10936W        W10936   4.891   8.607   5.985 -0.0289 -0.1300 -0.0126
10937W        W10937   8.229   9.188   6.373  0.3350  0.1663 -0.3363
10938W        W10938   4.418   8.885   2.675 -0.0780  0.1887  0.0162
10939W        W10939   0.163   9.694   5.594  0.1613  0.0869  0.4295
10940W        W10940   5.911   3.801   8.305  0.1275 -0.3220  0.2728
10941W        W10941   4.501   8.986   7.464 -0.0363 -0.1295 -0.1046
10942W        W10942   5.777   9.595   4.536  0.2188  0.2548  0.0551
10943W        W10943   0.539   7.017   4.320 -0.1141  0.4330  0.1403
10944W        W10944   9.546   0.137   9.968  0.1634  0.3033 -0.0665
10945W        W10945   6.321   8.554   8.267 -0.3051 -0.4090 -0.0979
10946W        W10946   1.685   9.834   6.167 -0.0560  0.0650 -0.0344
10947W        W10947   0.661   4.130   0.642 -0.2130 -0.1512  0.0762
10948W        W10948  10.150   1.685   2.077 -0.0673 -0.0255  0.0917
10949W        W10949   0.754   3.780   2.972  0.1207  0.0541  0.1029
10950W        W10950   5.284   2.079   8.250  0.2320 -0.4641 -0.3125
10951W        W10951   4.117   1.055   4.016  0.0397  0.1817 -0.0547
10952W        W10952   2.869   9.207   5.908 -0.0032  0.0335 -0.1387
10953W        W10953   2.557   8.918   5.129 -0.0280  0.0938 -0.1400
10954W        W10954  10.313   1.720   1.577  0.1260 -0.0443 -0.0541
10955W        W10955   1.068   1.963  10.043  0.0670  0.1936  0.0824
10956W        W10956   9.334   1.013   5.709  0.1142 -0.1264 -0.1733
10957W        W10957   1.402   7.000   8.743 -0.1656 -0.0254 -0.0744
10958W        W10958   0.914   1.627   9.720  0.4664 -0.0889 -0.1035
10959W        W10959   7.029   2.459   1.295  0.2521 -0.0752  0.1096
10960W        W10960   9.201   5.531   8.265 -0.3243 -0.0526  0.0111
10961W        W10961   1.099   3.915   1.428 -0.1134  0.1561  0.1470
10962W        W10962   0.578   2.675   3.932  0.2143  0.0002 -0.1030
10963W        W10963   0.200   8.354   1.586  0.0822  0.1166 -0.2943
10964W        W10964   8.612   7.297   5.102 -0.1390  0.3544  0.1516
10965W        W10965   3.511   5.632   4.223 -0.1405  0.1186  0.0788
10966W        W10966   2.021   2.340   4.348  0.0004 -0.0279 -0.0199
10967W        W10967   1.756   4.786   6.090 -0.2516  0.2538  0.0115
10968W        W10968   9.736   2.276   3.266  0.0500  0.1562  0.0583
10969W        W10969   4.157   0.856   6.694  0.2847  0.0606  0.2401
10970W        W10970   5.921   1.145   1.940  0.0720  0.2133 -0.2819
10971W        W10971   5.811   8.323   1.848 -0.2584  0.0880  0.0889
10972W        W10972   9.794   9.319   5.418  0.0197 -0.1889  0.2024
10973W        W10973   3.559   4.489   3.386  0.0900 -0.0416 -0.0989
10974W        W10974   1.898   8.440   2.612 -0.0751  0.0650 -0.0639
10975W        W10975   1.594   4.318   4.740  0.0854  0.1180 -0.1726
10976W        W10976   9.530   0.184   8.200 -0.2930  0.1514 -0.1593
10977W        W10977   4.208   6.013   5.281 -0.0358  0.2238 -0.0177
10978W        W10978   3.458   2.541   4.876 -0.2767  0.1256  0.1850
10979W        W10979   6.237   9.529   4.720 -0.2343  0.2370 -0.1740
10980W        W10980   0.908   4.876   4.535 -0.0729  0.3991  0.2763
10981W        W10981   8.259   7.091   3.976  0.3801  0.1615 -0.3005
10982W        W10982   0.681   2.590   0.615 -0.5356  0.1093  0.2492
10983W        W10983   1.673   7.984   5.534 -0.0635  0.0266 -0.1910
10984W        W10984   1.617   4.279   8.566  0.0508  0.0889  0.0184
10985W        W10985   8.276   5.853   9.626  0.0241  0.0262 -0.3669
10986W        W10986   4.204   7.674   1.678  0.2114  0.5020 -0.0228
10987W        W10987   9.460   2.242   0.263  0.0761  0.2846 -0.0852
10988W        W10988   8.759   8.827   2.192 -0.1061 -0.1504 -0.2702
10989W        W10989   6.138   3.441   6.614 -0.1585 -0.2161 -0.2083
10990W        W10990   1.822   5.155   0.922  0.0711  0.0230  0.1047
10991W        W10991   2.651   2.325   4.454 -0.0027  0.2806  0.2665
10992W        W10992   3.828   6.371   4.134  0.0856 -0.0037 -0.3063
10993W        W10993   8.129   4.978   1.279  0.1393  0.1133 -0.2513
10994W        W10994   5.247   4.404   6.113 -0.1229 -0.2632  0.0644
10995W        W10995   2.434   7.079   6.872  0.0343  0.4302 -0.0532
10996W        W10996   6.914  10.153   5.813  0.3514  0.3279  0.1187
10997W        W10997   4.308   7.804   2.147  0.2080 -0.0231  0.1335
10998W        W10998   4.816   0.372   7.872  0.1625  0.0896 -0.2880
10999W        W10999   9.910   0.357   7.100 -0.2064 -0.1340 -0.0572
11000W        W11000   2.397   1.949   8.198  0.0680  0.1409 -0.1367
11001W        W11001   8.305   4.804   9.143 -0.2196  0.0332 -0.0566
11002W        W11002   3.122   7.992   1.292 -0.1737 -0.0864 -0.2109
11003W        W11003   8.586   8.738   2.684 -0.0212  0.0570  0.0102
11004W        W11004   1.952   4.197   1.706  0.1156 -0.1190  0.0079
11005W        W11005   1.564   8.195   2.941  0.0302 -0.0366 -0.0874
11006W        W11006   0.013   4.622   9.660  0.1308  0.1728 -0.3995
11007W        W11007   4.612   1.757   7.628 -0.2503  0.0820 -0.1743
11008W        W11008   1.447   2.251  10.238 -0.0132  0.3700  0.2605
11009W        W11009   0.032   7.685   8.069 -0.0158  0.2953 -0.1949
11010W        W11010   7.600   4.944   7.669  0.0177  0.0054 -0.3496
11011W        W11011   0.237   8.534   5.374  0.0692 -0.1275 -0.0263
11012W        W11012   2.024   4.368   6.277 -0.2249  0.1523  0.0886
11013W        W11013   8.374   6.759   2.691 -0.0167 -0.1176  0.0526
11014W        W11014   8.611   9.286   3.582 -0.1518  0.0390  0.1620
11015W        W11015   4.980   5.747   8.076  0.1447 -0.2453  0.1840
11016W        W11016   7.115   2.317   3.578  0.0536  0.1695 -0.2423
11017W        W11017   5.790   1.134   4.011  0.2060 -0.3081 -0.1900
11018W        W11018   2.729   9.953   8.993 -0.1400  0.1475  0.1746
11019W        W11019   7.028   2.560   2.596  0.0131 -0.1911  0.0366
11020W        W11020   9.882   2.971   1.446 -0.0090  0.1180 -0.0860
11021W        W11021   8.881   7.797   6.737 -0.0528 -0.0726 -0.0125
11022W        W11022   0.847   9.706   1.117 -0.2652  0.0401 -0.1327
11023W        W11023   4.683   8.506   3.692  0.0573 -0.1240 -0.0497
11024W        W11024   9.554   9.576   3.346  0.1861  0.3993  0.0904
11025W        W11025   3.577   4.928   0.386 -0.1748  0.0925  0.0770
11026W        W11026   3.017   8.637   6.001 -0.1074  0.3057 -0.1796
11027W        W11027   0.559   0.088  10.036  0.1236  0.1936 -0.2438
11028W        W11028  10.107   8.187   7.959 -0.4065 -0.1014 -0.3122
11029W        W11029   8.345   9.224   2.043 -0.0707 -0.0198  0.3121
11030W        W11030   1.832   4.504   3.371 -0.1301  0.0596 -0.0442
11031W        W11031   6.520   2.223  10.200  0.1698  0.2050 -0.0119
11032W        W11032   2.116   4.483   5.689 -0.0112  0.1020  0.0890
11033W        W11033   9.323   6.325   3.287 -0.0975 -0.3934  0.0964
11034W        W11034   4.571   7.806  10.117  0.0290 -0.3716  0.0435
11035W        W11035   6.786   7.808   9.790 -0.0896 -0.0490  0.2552
11036W        W11036   9.068   1.784   1.100 -0.1598 -0.2595  0.2084
11037W        W11037   5.940   9.842   4.986 -0.4339  0.1204  0.1478
11038W        W11038   2.352   9.901   2.303  0.1984 -0.0409 -0.1439
11039W        W11039   3.803   0.370   5.557  0.0523  0.0608  0.0566
11040W        W11040   0.166   8.357   2.280  0.0453  0.1866 -0.2126
11041W        W11041   8.074   3.581   2.461  0.3097  0.1200 -0.1249
11042W        W11042   0.665   7.781   8.047  0.1506  0.0737  0.1572
11043W        W11043   8.689   1.153   1.847 -0.3737 -0.2377 -0.2045
11044W        W11044   5.126   9.835   8.584 -0.0944 -0.0628 -0.0240
11045W        W11045   7.740   9.303   0.735 -0.1505 -0.1620 -0.1619
11046W        W11046   3.004   4.857   0.585  0.0219  0.2250  0.2154
11047W        W11047   7.533   4.915   4.890  0.0571 -0.1434 -0.0444
11048W        W11048   7.863   0.190   4.916 -0.1438 -0.2045  0.0146
11049W        W11049   9.347   0.067   5.902 -0.3283  0.0770 -0.0447
11050W        W11050   3.498   3.978   9.232  0.2133  0.0037  0.2683
11051W        W11051   4.171   5.064   1.613  0.0719 -0.2188  0.0372
11052W        W11052   9.570   8.826   0.837 -0.1960  0.1300 -0.1251
11053W        W11053   4.572   3.161   3.527 -0.1768  0.2415 -0.1395
11054W        W11054   5.819   6.392   8.260 -0.1230 -0.1127 -0.0458
11055W        W11055  10.179   2.350   4.353 -0.1258  0.1456  0.0238
11056W        W11056   4.011   8.109   3.871 -0.3649 -0.2170  0.1885
11057W        W11057  10.291   8.847   4.847 -0.1001 -0.1084 -0.0817
11058W        W11058   1.610   7.462   9.791 -0.0890 -0.2074 -0.1775
11059W        W11059   9.900   3.632   8.928 -0.0869 -0.1021  0.0304
11060W        W11060   9.710   4.758   8.159  0.0626  0.0107 -0.1329
11061W        W11061   1.120   0.206   4.707  0.1641  0.1321 -0.1005
11062W        W11062   6.271   1.226   0.734 -0.1236 -0.1249 -0.0748
11063W        W11063   9.315   1.065   9.226 -0.1816 -0.4384  0.0963
11064W        W11064   2.078   4.651   7.433 -0.1731 -0.4151  0.2848
11065W        W11065   5.480   1.278   7.971 -0.0762 -0.3570 -0.2360
11066W        W11066   5.169   1.367   2.116 -0.1704 -0.2699  0.2873
11067W        W11067   2.908   4.120   7.014  0.2084 -0.1846 -0.0940
11068W        W11068   6.106   4.082   5.752 -0.2201 -0.0346 -0.0720
11069W        W11069   6.311   3.115  10.244  0.1194  0.0057 -0.0575
11070W        W11070   7.316   0.467   9.179 -0.2748 -0.0884  0.3611
11071W        W11071   1.091   3.821   6.672  0.0332 -0.0934 -0.1896
11072W        W11072   0.276   0.619   7.655 -0.2836 -0.0392  0.0180
11073W        W11073   5.906   3.141   1.935 -0.0983  0.2502  0.1232
11074W        W11074   8.653   2.906  10.284  0.1967 -0.0482  0.0968
11075W        W11075   3.643   3.156   3.717 -0.2405  0.1672  0.0282
11076W        W11076   6.736   0.273   3.433 -0.0997  0.2274  0.0977
11077W        W11077   7.395   7.536   9.958  0.0235 -0.1765  0.2693
11078W        W11078   3.970   7.393   4.560 -0.0454 -0.0109  0.5934
11079W        W11079   5.846   9.004   1.303 -0.0062  0.1411 -0.0632
11080W        W11080   2.520   8.447   2.122  0.1695  0.0748  0.0385
11081W        W11081   3.707   8.051   1.315  0.0357  0.1768  0.3793
11082W        W11082   8.683   8.532   5.020 -0.2602 -0.0068 -0.0943
11083W        W11083   0.107   3.761   1.034 -0.0367 -0.1975  0.1595
11084W        W11084   0.877   7.850   1.346  0.1886 -0.0240  0.1334
11085W        W11085   3.095   9.397   7.044 -0.4675 -0.2216  0.0494
11086W        W11086   5.750   6.380   7.513  0.1122  0.1659 -0.1706
11087W        W11087   3.412   6.910   2.219  0.1405 -0.2205  0.4585
11088W        W11088   1.687   7.504   8.087 -0.3109  0.0537  0.1827
11089W        W11089   7.109   6.556   4.585 -0.1078 -0.1452  0.0315
11090W        W11090   3.995   2.668   9.271  0.3617  0.0869 -0.3898
11091W        W11091   4.645   7.788   9.542  0.1698 -0.3718 -0.4239
11092W        W11092   8.602   3.390   0.597 -0.1989 -0.2887  0.1241
11093W        W11093   6.963   5.478   5.400 -0.2459 -0.0552 -0.0428
11094W        W11094   1.137   3.382   2.517 -0.0941  0.0853  0.0252
11095W        W11095   0.436   9.059   2.783 -0.2271 -0.0872  0.0441
11096W        W11096   9.269   1.231   8.195 -0.0600  0.3386 -0.2041
11097W        W11097   9.251   2.219   2.131 -0.1360 -0.1153  0.2732
11098W        W11098   5.928   2.095   6.888  0.1705 -0.3686 -0.3000
11099W        W11099   0.541   5.596   0.809  0.2174  0.1676  0.0678
11100W        W11100   5.532   6.301   1.950  0.2030  0.1951 -0.1437
11101W        W11101   7.240   7.165   7.330 -0.0378 -0.2294  0.3689
11102W        W11102   0.116   7.162   3.324  0.1477 -0.0659  0.0291
11103W        W11103   1.101   4.856   6.736 -0.1886  0.3759  0.2131
11104W        W11104  10.126   8.357   2.599  0.0841  0.0162 -0.1729
11105W        W11105   8.531   3.137   5.412 -0.1391  0.0262  0.2038
11106W        W11106   0.448   2.983   5.870 -0.0614 -0.1708 -0.0334
11107W        W11107   2.803   5.472   0.519 -0.0105 -0.1478  0.3397
11108W        W11108   5.637   3.356   8.109  0.0573 -0.2321 -0.2436
11109W        W11109   9.663   3.560   3.771  0.1356 -0.1421 -0.2443
11110W        W11110   1.528   9.350   7.081 -0.0676 -0.0749 -0.2502
11111W        W11111   0.929   3.027   4.167  0.1555  0.0742  0.1973
11112W        W11112   1.633   9.585   3.141  0.2269 -0.0166 -0.0680
11113W        W11113   1.281   3.718   9.877 -0.2039 -0.0584  0.2986
11114W        W11114   8.341   0.352   8.400 -0.0181  0.1149 -0.3819
11115W        W11115   4.778   4.109   7.909 -0.0066 -0.0208  0.0751
11116W        W11116  10.020   1.952   7.789 -0.0349  0.2193  0.0743
11117W        W11117   4.419   9.966   4.231  0.2102  0.0244 -0.1401
11118W        W11118  10.073   1.602   9.777 -0.1121  0.0117 -0.0536
11119W        W11119   9.896   3.569   5.290 -0.0340 -0.2477  0.0009
11120W        W11120   5.949   2.222   0.735  0.1265 -0.1430  0.0600
11121W        W11121   2.286   2.124  10.026 -0.0079  0.2174 -0.1380
11122W        W11122   9.598   9.853   6.932  0.0851  0.3204 -0.0152
11123W        W11123   2.789   3.634   9.623 -0.0164 -0.1446 -0.1544
11124W        W11124   9.534   1.512   5.695 -0.2021  0.0236 -0.1483
11125W        W11125   3.676   8.473   8.118 -0.0442  0.0009 -0.2150
11126W        W11126   7.729   9.691   3.261 -0.2507 -0.0654  0.0410
11127W        W11127   3.015   9.898   0.218 -0.0085 -0.0547 -0.1726
11128W        W11128   3.659   1.255   8.419 -0.0905 -0.1086 -0.1665
11129W        W11129   3.334   5.342   0.521 -0.1421  0.1552  0.1949
11130W        W11130   3.776   8.808   9.985  0.0952 -0.1836  0.0605
11131W        W11131   8.314   3.692   7.570  0.3023 -0.1132  0.2162
11132W        W11132   8.021   4.842   2.762 -0.2693  0.0032  0.2541
11133W        W11133   6.182   0.887   3.773 -0.0114  0.0204  0.2940
11134W        W11134   2.142   0.442   5.335  0.1653  0.1103  0.3707
11135W        W11135   6.771   8.081   4.212  0.0858 -0.2516  0.1048
11136W        W11136   9.882   1.128   1.026  0.0907 -0.2114  0.1315
11137W        W11137   4.092   2.265   0.132  0.0892 -0.3165 -0.0185
11138W        W11138   8.114   7.103   9.239  0.1376 -0.0546  0.2630
11139W        W11139   2.760   9.946   5.243 -0.1346 -0.0245 -0.0527
11140W        W11140   6.012   2.103   3.995  0.4184 -0.0317 -0.1296
11141W        W11141   4.344   8.231   3.525 -0.2242  0.1689  0.1160
11142W        W11142   2.645   9.568   0.048 -0.2749 -0.1706 -0.2112
11143W        W11143   4.123   0.359   6.101 -0.1575  0.1639  0.0040
11144W        W11144   0.352   8.531   0.201  0.0546 -0.0232 -0.0887
11145W        W11145   8.781   8.067   0.388 -0.0999  0.1156  0.0730
11146W        W11146   1.492   8.929   0.794 -0.1751  0.0014 -0.1510
11147W        W11147   5.407   8.023   9.933 -0.3427 -0.2401  0.3355
11148W        W11148   3.021   0.907   4.951  0.0686  0.2248  0.0081
10.3433 10.3433 10.3433 0.0000 0.0000 0.0000 0.0000 0.0000 0.0000
