t=20000.0 ps
11148
    1COH    COH    1   6.693   4.080   6.577 -0.0109 -0.0581 -0.0456
    2COC    COC    2   6.889   4.139   6.744  0.5574  0.1850  0.4053
    3COC    COC    3   6.995   4.406   6.620 -0.2906 -0.1109  0.0721
    4COC    COC    4   7.195   4.608   6.798 -0.2480 -0.2152 -0.3279
    5COC    COC    5   7.239   4.471   7.056 -0.0341  0.1719  0.0074
    6COC    COC    6   7.204   4.176   7.034 -0.0003  0.2915 -0.2235
    7COC    COC    7   7.256   3.929   7.243  0.3676 -0.2998 -0.0555
    8COC    COC    8   7.551   3.894   7.338 -0.2889  0.4205  0.4198
    9COC    COC    9   7.862   3.908   7.298 -0.1434 -0.1131  0.0847
   10COC    COC   10   7.984   3.779   7.051 -0.0514  0.1632 -0.0145
   11COC    COC   11   8.277   3.635   7.102 -0.1673  0.1527  0.0064
   12COC    COC   12   8.482   3.502   6.915  0.1247 -0.2754  0.3174
   13COC    COC   13   8.701   3.631   6.718  0.0903  0.0034 -0.2281
   14COC    COC   14   8.974   3.714   6.693 -0.3230  0.2580 -0.0106
   15COC    COC   15   9.119   3.534   6.485  0.3662 -0.1114 -0.2551
   16COC    COC   16   9.063   3.526   6.199  0.1319 -0.4150  0.0014
   17COC    COC   17   9.334   3.404   6.070  0.1929 -0.0999  0.1136
   18COC    COC   18   9.324   3.098   5.963 -0.0121  0.1071 -0.0042
   19COC    COC   19   9.282   2.974   5.683 -0.1937 -0.3726  0.1114
   20COC    COC   20   9.524   2.878   5.500  0.4373  0.0744  0.4718
   21COC    COC   21   9.657   2.724   5.268 -0.1021 -0.3599 -0.0769
   22COC    COC   22   9.789   2.660   4.992  0.1094  0.1767 -0.3414
   23COC    COC   23   9.578   2.547   4.809 -0.2341  0.2110  0.3030
   24COC    COC   24   9.652   2.272   4.669  0.3621  0.0059  0.1142
   25COC    COC   25   9.566   1.961   4.708  0.0511  0.1755 -0.1102
   26COC    COC   26   9.354   1.772   4.700  0.2478  0.1864  0.3441
   27COC    COC   27   9.084   1.665   4.655  0.1832 -0.1274  0.2185
   28COC    COC   28   8.995   1.840   4.860  0.1823  0.3689 -0.2514
   29COC    COC   29   8.876   1.646   5.139 -0.0321 -0.2210  0.2173
   30COC    COC   30   9.073   1.435   5.166  0.0787  0.0440  0.1958
   31COC    COC   31   9.311   1.376   5.018 -0.2659  0.0568 -0.1720
   32COC    COC   32   9.295   1.279   4.762 -0.2896  0.2139  0.2627
   33COC    COC   33   9.577   1.156   4.668 -0.0657 -0.2937  0.1117
   34COC    COC   34   9.759   1.056   4.879 -0.2503 -0.0312  0.2663
   35COC    COC   35   9.758   0.857   5.137 -0.4865  0.0868  0.3228
   36COC    COC   36   9.985   0.668   5.039 -0.2571  0.1022  0.3481
   37COC    COC   37   9.893   0.396   5.011 -0.0883  0.0013 -0.0245
   38COC    COC   38   9.630   0.245   5.004 -0.1399 -0.2602  0.7935
   39COC    COC   39   9.586   0.041   5.178 -0.2607 -0.3104  0.3170
   40COC    COC   40   9.809  10.191   5.289 -0.3552 -0.0062 -0.3336
   41COC    COC   41  10.079  10.295   5.311  0.0627 -0.0616 -0.0146
   42COC    COC   42  10.231  10.130   5.504 -0.6165  0.0710  0.2179
   43COC    COC   43  10.286   9.947   5.704  0.0329  0.0104 -0.2320
   44COC    COC   44   0.248   9.878   5.681 -0.0681 -0.2049  0.0487
   45COC    COC   45   0.417   9.992   5.447 -0.6302  0.0424 -0.3644
   46COH    COH   46   0.491   9.788   5.284  0.1488  0.1673 -0.1996
   47COH    COH   47   0.919   8.098   0.755  0.0958  0.0645  0.0586
   48COC    COC   48   0.886   7.834   0.803  0.0642  0.0737 -0.1738
   49COC    COC   49   0.936   7.536   0.716 -0.4088  0.1523 -0.0412
   50COC    COC   50   0.909   7.390   0.488 -0.5201  0.2352 -0.1841
   51COC    COC   51   0.662   7.421   0.338  0.1514 -0.0825 -0.0354
   52COC    COC   52   0.609   7.305   0.045  0.6515 -0.1710 -0.0203
   53COC    COC   53   0.857   7.197  10.326 -0.3187  0.0217 -0.1976
   54COC    COC   54   0.804   7.063  10.049 -0.2475 -0.1648  0.0476
   55COC    COC   55   0.558   7.236   9.952 -0.1878  0.2234 -0.0025
   56COC    COC   56   0.602   7.554   9.940  0.5263  0.2731 -0.2067
   57COC    COC   57   0.420   7.590   9.711 -0.0086  0.0691 -0.1645
   58COC    COC   58   0.264   7.394   9.563 -0.2905  0.1486  0.2717
   59COC    COC   59   0.227   7.117   9.721 -0.4206  0.0564  0.1229
   60COC    COC   60   0.019   6.871   9.685 -0.3121  0.1331 -0.0339
   61COC    COC   61  10.179   7.060   9.547  0.0853  0.5198  0.0532
   62COC    COC   62  10.125   7.374   9.586 -0.2523  0.0018  0.0115
   63COC    COC   63   9.995   7.568   9.396 -0.0985  0.4990 -0.1530
   64COC    COC   64  10.057   7.869   9.454  0.1457 -0.1307 -0.1884
   65COC    COC   65  10.090   7.877   9.771 -0.1708 -0.3597  0.0437
   66COC    COC   66   0.034   7.747   9.832 -0.3309  0.1814  0.3111
   67COC    COC   67   0.101   7.530   9.965 -0.0258 -0.2152 -0.3146
   68COC    COC   68   0.162   7.513  10.286  0.3046 -0.0704 -0.0072
   69COC    COC   69   0.283   7.568   0.219 -0.1857 -0.1003 -0.3404
   70COC    COC   70   0.117   7.409   0.444 -0.1901 -0.2370 -0.1989
   71COC    COC   71   0.319   7.182   0.568  0.0161  0.0104 -0.4037
   72COC    COC   72   0.549   7.206   0.717  0.1706  0.0519  0.0736
   73COC    COC   73   0.700   7.301   0.980  0.2096  0.1353  0.1816
   74COC    COC   74   0.873   7.303   1.229  0.2631 -0.1648 -0.2236
   75COC    COC   75   1.153   7.222   1.248  0.0859  0.0548 -0.3444
   76COC    COC   76   1.405   7.360   1.315 -0.0110  0.1464  0.2020
   77COC    COC   77   1.593   7.130   1.419 -0.2635  0.5063 -0.1555
   78COC    COC   78   1.486   6.852   1.517 -0.2819 -0.2983 -0.0113
   79COC    COC   79   1.365   6.685   1.681  0.1537 -0.4440  0.2015
   80COC    COC   80   1.079   6.473   1.669 -0.1258 -0.1261 -0.3477
   81COC    COC   81   1.119   6.303   1.911  0.2975  0.4009 -0.1629
   82COC    COC   82   0.919   6.103   1.864  0.4286  0.0951  0.2109
   83COC    COC   83   1.015   5.807   1.854 -0.0550  0.0191  0.0735
   84COC    COC   84   0.905   5.619   1.655 -0.0200 -0.1093 -0.0681
   85COC    COC   85   0.756   5.362   1.610  0.3046  0.1933 -0.0672
   86COC    COC   86   0.863   5.105   1.756  0.2024 -0.0818  0.1430
   87COC    COC   87   0.895   5.114   2.074 -0.5623  0.4706 -0.0877
   88COC    COC   88   1.167   5.115   2.269  0.2971  0.3730 -0.0214
   89COC    COC   89   1.149   4.831   2.428 -0.1441 -0.1778 -0.1819
   90COC    COC   90   0.846   4.744   2.378  0.5156 -0.0448  0.0102
   91COC    COC   91   0.846   4.651   2.079  0.0946 -0.0963  0.0179
   92COH    COH   92   0.683   4.499   1.935 -0.1026  0.2044  0.1319
   93COH    COH   93   4.388   8.722   1.570 -0.4832  0.0805  0.1620
   94COC    COC   94   4.333   8.716   1.339  0.1975 -0.1383  0.3027
   95COC    COC   95   4.510   8.767   1.075  0.0670  0.1618 -0.2194
   96COC    COC   96   4.770   8.626   1.018 -0.1415 -0.3003 -0.0176
   97COC    COC   97   4.842   8.507   0.718 -0.8288  0.2796 -0.3426
   98COC    COC   98   4.617   8.400   0.514 -0.3422  0.2608 -0.0865
   99COC    COC   99   4.755   8.265   0.248 -0.0515  0.1132  0.1361
  100COC    COC  100   4.957   8.446   0.108  0.0962  0.0826 -0.2049
  101COC    COC  101   4.849   8.648  10.236  0.0152  0.0751  0.0633
  102COC    COC  102   4.878   8.953  10.329  0.0496 -0.1038 -0.0186
  103COC    COC  103   4.707   9.213   0.032  0.1084  0.0711 -0.0078
  104COC    COC  104   4.622   9.487  10.214 -0.1211  0.3540 -0.1281
  105COC    COC  105   4.824   9.677  10.280 -0.0490 -0.1577  0.5257
  106COC    COC  106   5.102   9.730   0.074 -0.0914 -0.3459 -0.4421
  107COC    COC  107   5.303   9.580  10.305 -0.2456  0.0203 -0.2699
  108COC    COC  108   5.148   9.328   0.092 -0.1836  0.1303  0.0781
  109COC    COC  109   5.217   9.245   0.388 -0.0488 -0.1796 -0.2724
  110COC    COC  110   5.275   9.381   0.615 -0.1552  0.2245 -0.4677
  111COC    COC  111   5.033   9.589   0.661 -0.3236 -0.2982  0.1832
  112COC    COC  112   5.031   9.861   0.800 -0.3652 -0.4535 -0.2777
  113COC    COC  113   5.222   9.933   1.064  0.0639  0.1574 -0.1841
  114COC    COC  114   5.238  10.085   1.307  0.2596  0.0205  0.1844
  115COC    COC  115   5.142   0.047   1.330 -0.0552 -0.0544  0.1499
  116COC    COC  116   4.956   0.256   1.428 -0.0485  0.3295 -0.1816
  117COC    COC  117   4.714   0.335   1.242  0.2513 -0.2431 -0.1679
  118COC    COC  118   4.504   0.158   1.111  0.4893  0.1379  0.1390
  119COC    COC  119   4.284   0.380   1.052  0.3294 -0.3975  0.3100
  120COC    COC  120   4.126   0.604   1.193  0.1377 -0.2820  0.0775
  121COC    COC  121   4.071   0.694   1.517  0.0065  0.0926  0.2428
  122COC    COC  122   4.339   0.668   1.623  0.0333  0.3647 -0.0604
  123COC    COC  123   4.462   0.589   1.921  0.3225  0.3314  0.1597
  124COC    COC  124   4.347   0.658   2.202 -0.1441  0.2289 -0.4055
  125COC    COC  125   4.187   0.422   2.253 -0.3247 -0.0765  0.0689
  126COC    COC  126   3.870   0.464   2.215 -0.1319 -0.1527  0.1202
  127COC    COC  127   3.789   0.652   2.407  0.2009 -0.3737  0.0643
  128COC    COC  128   3.742   0.792   2.689  0.3423 -0.2149  0.4510
  129COC    COC  129   4.006   0.693   2.793  0.3444 -0.0455  0.2580
  130COC    COC  130   4.251   0.658   2.651 -0.3144  0.0971 -0.3033
  131COC    COC  131   4.469   0.484   2.704  0.0252 -0.1468 -0.2438
  132COC    COC  132   4.590   0.636   2.902 -0.3884  0.1228 -0.0559
  133COC    COC  133   4.524   0.943   2.912  0.0326 -0.2742 -0.0147
  134COC    COC  134   4.364   1.214   2.959  0.0124  0.4435  0.3682
  135COC    COC  135   4.256   1.425   2.799  0.2097  0.4772  0.4038
  136COC    COC  136   4.252   1.732   2.739 -0.3708 -0.0552 -0.1510
  137COC    COC  137   4.340   1.825   2.451 -0.4690  0.4976 -0.1640
  138COH    COH  138   4.500   2.042   2.476  0.1789 -0.3305 -0.1476
  139COH    COH  139   8.215   2.259  10.218 -0.2652  0.1118  0.3147
  140COC    COC  140   8.291   2.487  10.300  0.3525 -0.2462  0.0012
  141COC    COC  141   8.401   2.677  10.132  0.2892 -0.3322  0.3376
  142COC    COC  142   8.484   2.748   9.841 -0.1403  0.3112 -0.1957
  143COC    COC  143   8.754   2.641   9.838  0.1527 -0.0927 -0.2892
  144COC    COC  144   9.062   2.721   9.862  0.3484 -0.3853  0.0143
  145COC    COC  145   9.254   2.931   9.799  0.2581  0.0417 -0.0117
  146COC    COC  146   9.433   2.802   9.577  0.3008  0.0265  0.0634
  147COC    COC  147   9.304   2.542   9.469  0.2306 -0.4438 -0.2187
  148COC    COC  148   9.034   2.546   9.325  0.0111  0.0462  0.3298
  149COC    COC  149   8.765   2.476   9.420 -0.3326 -0.1262 -0.4589
  150COC    COC  150   8.543   2.653   9.408  0.2345 -0.1982 -0.1724
  151COC    COC  151   8.243   2.671   9.433 -0.4479  0.3070  0.2922
  152COC    COC  152   8.168   2.634   9.150  0.3571 -0.0834  0.0700
  153COC    COC  153   8.248   2.774   8.929  0.2242 -0.3761  0.4101
  154COC    COC  154   8.389   2.670   8.664  0.5441  0.2406 -0.0080
  155COC    COC  155   8.403   2.649   8.368  0.0397 -0.0372  0.1273
  156COC    COC  156   8.148   2.717   8.218  0.0460  0.2804  0.1114
  157COC    COC  157   7.862   2.814   8.186  0.1761 -0.1855  0.1507
  158COC    COC  158   7.806   3.114   8.237 -0.1520  0.4337  0.1397
  159COC    COC  159   7.786   3.065   8.531  0.2517 -0.4965 -0.1820
  160COC    COC  160   7.909   3.313   8.627  0.5480 -0.3376  0.1207
  161COC    COC  161   7.713   3.489   8.498 -0.2047  0.0648 -0.0220
  162COC    COC  162   7.552   3.721   8.619 -0.2980  0.5168 -0.0539
  163COC    COC  163   7.443   4.005   8.542 -0.0218  0.0131  0.2244
  164COC    COC  164   7.508   4.241   8.341  0.0760 -0.2008  0.1866
  165COC    COC  165   7.631   4.289   8.110  0.1229  0.3287  0.1858
  166COC    COC  166   7.566   4.486   7.872 -0.0660  0.3467  0.1116
  167COC    COC  167   7.454   4.738   7.770  0.1880  0.0634 -0.0828
  168COC    COC  168   7.210   4.717   7.578 -0.2133 -0.1985  0.0030
  169COC    COC  169   7.109   4.944   7.421 -0.0332  0.0469 -0.0432
  170COC    COC  170   6.974   4.818   7.163 -0.2820 -0.1127  0.2271
  171COC    COC  171   7.016   4.995   6.897 -0.1373 -0.1813 -0.4309
  172COC    COC  172   6.930   5.270   6.864  0.1414  0.1157 -0.3093
  173COC    COC  173   7.019   5.523   7.010 -0.0180  0.1401 -0.0442
  174COC    COC  174   7.260   5.395   7.157 -0.4692 -0.2399 -0.1528
  175COC    COC  175   7.461   5.264   6.949 -0.5571 -0.5453  0.0496
  176COC    COC  176   7.377   5.239   6.685 -0.3539  0.0492 -0.2134
  177COC    COC  177   7.300   4.963   6.548 -0.3084  0.0947 -0.1026
  178COC    COC  178   7.485   4.898   6.331 -0.1524  0.1175  0.4087
  179COC    COC  179   7.568   5.127   6.146 -0.0849 -0.2484 -0.0970
  180COC    COC  180   7.443   5.065   5.877 -0.3891 -0.1784  0.4456
  181COC    COC  181   7.222   4.891   5.786  0.0629 -0.0555  0.1036
  182COC    COC  182   7.384   4.731   5.592  0.1909 -0.1317 -0.4171
  183COC    COC  183   7.676   4.816   5.524  0.1053 -0.2796 -0.5495
  184COH    COH  184   7.853   4.957   5.477  0.1394  0.0821 -0.3414
  185COH    COH  185   0.643   5.859   1.403 -0.2804 -0.0297  0.0354
  186COC    COC  186   0.650   5.654   1.231 -0.4347 -0.0652 -0.1224
  187COC    COC  187   0.595   5.662   0.959 -0.1602 -0.0747 -0.0995
  188COC    COC  188   0.865   5.684   0.843 -0.0638 -0.1042 -0.2646
  189COC    COC  189   0.940   5.846   0.586  0.0048 -0.3774  0.0534
  190COC    COC  190   1.237   5.971   0.519 -0.3742 -0.0736 -0.0089
  191COC    COC  191   1.392   5.718   0.434 -0.0580 -0.2295 -0.0641
  192COC    COC  192   1.509   5.571   0.648  0.2341 -0.1911 -0.3215
  193COC    COC  193   1.322   5.377   0.807  0.1753  0.2709 -0.0512
  194COC    COC  194   1.057   5.195   0.809  0.0068 -0.3071  0.0338
  195COC    COC  195   1.042   4.964   0.596  0.0242 -0.0591  0.3597
  196COC    COC  196   0.936   4.983   0.318  0.5146 -0.1063  0.3094
  197COC    COC  197   1.072   4.951   0.033  0.5241  0.1347 -0.3235
  198COC    COC  198   1.317   4.754   0.083  0.0578  0.2327 -0.3222
  199COC    COC  199   1.450   4.634  10.204  0.0081 -0.0521  0.3414
  200COC    COC  200   1.725   4.632  10.015  0.3297  0.3222  0.0290
  201COC    COC  201   1.682   4.314  10.049 -0.3257 -0.3334  0.4856
  202COC    COC  202   1.824   4.109  10.253 -0.0076 -0.0004 -0.1534
  203COC    COC  203   1.749   3.981   0.178  0.2938  0.1695 -0.2553
  204COC    COC  204   1.533   3.806   0.268  0.3160  0.1564  0.0366
  205COC    COC  205   1.612   3.591   0.447  0.0955  0.4461 -0.0110
  206COC    COC  206   1.755   3.664   0.681 -0.0417  0.3651 -0.1574
  207COC    COC  207   1.682   3.462   0.933  0.1246 -0.1098 -0.3988
  208COC    COC  208   1.813   3.220   1.079  0.1285 -0.5155 -0.4346
  209COC    COC  209   1.968   3.052   0.911  0.2379 -0.2613  0.5929
  210COC    COC  210   1.952   2.768   0.811 -0.0689 -0.0758  0.0395
  211COC    COC  211   2.108   2.596   0.996 -0.0518 -0.0595 -0.1859
  212COC    COC  212   2.161   2.524   1.262 -0.3278 -0.3289  0.2210
  213COC    COC  213   2.266   2.724   1.430  0.0040  0.0036 -0.1223
  214COC    COC  214   2.370   2.683   1.709  0.2125 -0.1121  0.1007
  215COC    COC  215   2.616   2.830   1.764 -0.2388 -0.3311 -0.1616
  216COC    COC  216   2.887   2.818   1.848  0.0400  0.0426  0.4966
  217COC    COC  217   3.128   2.986   1.955 -0.0273  0.4207  0.1424
  218COC    COC  218   3.385   3.065   1.784 -0.1728  0.1070 -0.1228
  219COC    COC  219   3.614   2.991   1.611  0.1066 -0.0979 -0.3807
  220COC    COC  220   3.624   2.706   1.732 -0.4902  0.0671 -0.0321
  221COC    COC  221   3.437   2.483   1.734 -0.2476 -0.2476 -0.2521
  222COC    COC  222   3.147   2.510   1.626 -0.0066 -0.2865 -0.2858
  223COC    COC  223   2.883   2.404   1.721  0.1500  0.3064  0.1630
  224COC    COC  224   2.851   2.066   1.722  0.0677  0.6471 -0.5074
  225COC    COC  225   2.789   1.923   1.447  0.3196  0.0359 -0.0106
  226COC    COC  226   2.831   1.993   1.169 -0.3384 -0.1915  0.2400
  227COC    COC  227   2.921   2.287   1.191  0.0557  0.0717 -0.2065
  228COC    COC  228   3.027   2.401   0.916 -0.0238  0.2687  0.3823
  229COC    COC  229   2.833   2.379   0.687  0.0878 -0.3198  0.1021
  230COH    COH  230   2.658   2.574   0.637 -0.2117 -0.3269 -0.0782
  231COH    COH  231   6.966   0.646   5.279 -0.0318 -0.0160  0.2157
  232COC    COC  232   6.851   0.773   5.080  0.1659  0.1039 -0.1075
  233COC    COC  233   6.695   0.581   4.898  0.1070  0.4004  0.1333
  234COC    COC  234   6.777   0.370   4.696 -0.2559 -0.0284 -0.1693
  235COC    COC  235   6.730   0.220   4.452 -0.3560  0.2300 -0.1398
  236COC    COC  236   6.807  10.308   4.317  0.2270  0.0088 -0.0002
  237COC    COC  237   7.023  10.211   4.163 -0.1003  0.1969 -0.2085
  238COC    COC  238   7.101   9.918   4.046  0.2628 -0.0970 -0.4239
  239COC    COC  239   7.341   9.750   4.141 -0.1981  0.0632 -0.3057
  240COC    COC  240   7.344   9.585   4.420 -0.1138  0.0683 -0.2907
  241COC    COC  241   7.168   9.332   4.416 -0.0252 -0.0196 -0.1226
  242COC    COC  242   7.311   9.157   4.216 -0.1502 -0.3673  0.4093
  243COC    COC  243   7.299   8.829   4.209 -0.2514  0.1616 -0.0737
  244COC    COC  244   7.453   8.716   4.486 -0.1748 -0.0057  0.6751
  245COC    COC  245   7.512   8.426   4.449  0.0773  0.1568  0.1476
  246COC    COC  246   7.536   8.155   4.579  0.4237 -0.3577  0.1926
  247COC    COC  247   7.632   7.956   4.342  0.1806  0.3980  0.3005
  248COC    COC  248   7.772   7.741   4.545 -0.0381  0.1473 -0.0237
  249COC    COC  249   7.847   7.931   4.767  0.4417  0.2031 -0.0965
  250COC    COC  250   7.851   8.162   4.880  0.1774  0.2200 -0.0076
  251COC    COC  251   8.012   8.274   5.117  0.1410  0.0025 -0.2463
  252COC    COC  252   8.047   8.585   5.088  0.2308  0.1359 -0.1265
  253COC    COC  253   7.994   8.769   5.324  0.1153 -0.0446  0.1793
  254COC    COC  254   8.008   8.644   5.597  0.0224  0.1773 -0.0873
  255COC    COC  255   8.077   8.357   5.611 -0.4365  0.5377 -0.0236
  256COC    COC  256   8.125   8.083   5.608  0.0331  0.0910 -0.3083
  257COC    COC  257   8.446   8.137   5.538  0.5153 -0.0462 -0.0732
  258COC    COC  258   8.436   8.014   5.285 -0.0541 -0.2743 -0.1420
  259COC    COC  259   8.276   7.770   5.330  0.0479  0.1737  0.1126
  260COC    COC  260   8.107   7.668   5.067  0.0479  0.2865 -0.1841
  261COC    COC  261   7.871   7.530   4.989 -0.1315 -0.0555 -0.1629
  262COC    COC  262   7.579   7.554   4.901  0.2433 -0.1213  0.2441
  263COC    COC  263   7.459   7.358   4.682  0.1200 -0.2330 -0.0099
  264COC    COC  264   7.491   7.234   4.411 -0.1190 -0.0558  0.2926
  265COC    COC  265   7.572   7.447   4.197 -0.0243 -0.1001  0.2570
  266COC    COC  266   7.746   7.462   3.947 -0.5120 -0.2500  0.2954
  267COC    COC  267   8.023   7.370   4.080 -0.5804 -0.1170 -0.0619
  268COC    COC  268   8.317   7.417   4.024  0.1099 -0.2324  0.1384
  269COC    COC  269   8.496   7.187   3.965  0.2186 -0.0469 -0.0194
  270COC    COC  270   8.793   7.247   3.958  0.2991 -0.1331 -0.3474
  271COC    COC  271   9.017   7.080   4.032 -0.0120  0.3430 -0.2905
  272COC    COC  272   9.300   6.986   3.898 -0.1128  0.1714  0.0971
  273COC    COC  273   9.263   6.782   3.627  0.1131 -0.2194 -0.1600
  274COC    COC  274   9.076   6.805   3.376  0.1970  0.1457 -0.0321
  275COC    COC  275   9.101   6.971   3.136 -0.1532 -0.3398  0.3189
  276COH    COH  276   8.926   6.873   2.998 -0.7176 -0.1258  0.3181
  277COH    COH  277   3.602   1.020   8.918 -0.1988 -0.0127  0.5756
  278COC    COC  278   3.785   0.812   8.997 -0.1372 -0.0210  0.0907
  279COC    COC  279   3.828   0.883   9.317 -0.0071 -0.0658  0.1400
  280COC    COC  280   4.032   1.023   9.473  0.1869 -0.0491 -0.1771
  281COC    COC  281   4.073   1.305   9.332  0.1644 -0.4069  0.2561
  282COC    COC  282   3.896   1.340   9.108  0.1040 -0.2901  0.3372
  283COC    COC  283   3.650   1.517   9.055  0.0485 -0.0328  0.0311
  284COC    COC  284   3.576   1.834   9.019  0.3222  0.1888 -0.1575
  285COC    COC  285   3.348   1.973   8.900  0.1903  0.0767 -0.0814
  286COC    COC  286   3.181   2.143   9.088  0.5024 -0.0892 -0.3285
  287COC    COC  287   3.322   2.389   8.958 -0.0035 -0.0758 -0.2586
  288COC    COC  288   3.267   2.399   8.683 -0.2151 -0.0868  0.0821
  289COC    COC  289   3.348   2.443   8.415 -0.3452 -0.1603 -0.1964
  290COC    COC  290   3.627   2.495   8.336  0.4035 -0.0296  0.0540
  291COC    COC  291   3.787   2.571   8.600  0.4765 -0.2360 -0.0110
  292COC    COC  292   3.709   2.552   8.872  0.0377 -0.0056 -0.2713
  293COC    COC  293   3.576   2.803   8.977 -0.2962  0.0178 -0.1161
  294COC    COC  294   3.446   3.074   8.870 -0.1395  0.2062  0.1390
  295COC    COC  295   3.516   3.273   8.673 -0.0778  0.2165  0.3028
  296COC    COC  296   3.741   3.475   8.738 -0.0638  0.1049  0.2952
  297COC    COC  297   4.012   3.409   8.643  0.0854 -0.0773  0.3406
  298COC    COC  298   4.271   3.261   8.601 -0.2628 -0.0397 -0.0665
  299COC    COC  299   4.436   3.363   8.403 -0.0232 -0.2628 -0.0812
  300COC    COC  300   4.450   3.683   8.427  0.1155 -0.4014  0.2583
  301COC    COC  301   4.617   3.928   8.473  0.0905 -0.5982  0.1369
  302COC    COC  302   4.859   3.961   8.280 -0.0884  0.0060 -0.1567
  303COC    COC  303   4.973   3.905   8.041 -0.1518 -0.1815  0.3221
  304COC    COC  304   5.181   3.706   8.168  0.0487 -0.2095  0.1829
  305COC    COC  305   5.306   3.457   8.166  0.2396  0.0016  0.1110
  306COC    COC  306   5.068   3.271   8.278  0.1650  0.0666 -0.0282
  307COC    COC  307   5.151   3.200   8.554 -0.0112 -0.0866  0.0751
  308COC    COC  308   5.318   3.100   8.798  0.1463 -0.2731  0.2515
  309COC    COC  309   5.252   2.788   8.880  0.1021 -0.2273  0.2438
  310COC    COC  310   5.339   2.600   8.620 -0.1646  0.0418  0.2891
  311COC    COC  311   5.181   2.780   8.430 -0.1930 -0.3097  0.2081
  312COC    COC  312   4.885   2.787   8.508 -0.1725  0.1364 -0.2231
  313COC    COC  313   4.770   2.615   8.766 -0.1789 -0.1812 -0.0280
  314COC    COC  314   4.852   2.768   9.049  0.2228 -0.3001 -0.1162
  315COC    COC  315   5.010   2.555   9.131 -0.1275  0.1515  0.0188
  316COC    COC  316   4.833   2.311   9.093 -0.0135 -0.0565  0.3128
  317COC    COC  317   5.073   2.107   9.145 -0.1109  0.2455 -0.1259
  318COC    COC  318   5.073   1.807   9.306  0.3040  0.5684 -0.2766
  319COC    COC  319   4.775   1.701   9.194  0.2249 -0.4462 -0.1192
  320COC    COC  320   4.764   1.387   9.114  0.1298 -0.2000  0.1645
  321COC    COC  321   5.039   1.351   8.998 -0.5702  0.1260 -0.1334
  322COH    COH  322   5.162   1.254   9.222  0.5419  0.0075  0.1916
  323COH    COH  323  10.125   6.338   1.695 -0.2570  0.4015  0.1661
  324COC    COC  324  10.220   6.351   1.453 -0.1299  0.3432 -0.2640
  325COC    COC  325   0.182   6.469   1.427 -0.2365 -0.2951 -0.0771
  326COC    COC  326   0.242   6.518   1.132  0.3689  0.1155  0.1797
  327COC    COC  327   0.558   6.596   1.053 -0.0210  0.6065 -0.1998
  328COC    COC  328   0.557   6.888   1.085  0.2040  0.0004  0.2884
  329COC    COC  329   0.244   6.954   1.040  0.3070 -0.4141  0.3636
  330COC    COC  330   0.120   7.228   0.963  0.0772  0.1793  0.2140
  331COC    COC  331   0.001   7.320   1.216 -0.1324  0.3094  0.0912
  332COC    COC  332  10.081   7.446   1.276  0.1349 -0.0084  0.0738
  333COC    COC  333   9.861   7.615   1.099  0.0220  0.2792 -0.2015
  334COC    COC  334   9.591   7.498   1.035  0.0253  0.3934  0.0872
  335COC    COC  335   9.469   7.346   1.306  0.2137  0.1241  0.1844
  336COC    COC  336   9.247   7.468   1.444 -0.4856  0.0948 -0.1232
  337COC    COC  337   8.986   7.431   1.584 -0.1138 -0.4214  0.5486
  338COC    COC  338   8.936   7.738   1.695 -0.4894  0.2597 -0.1200
  339COC    COC  339   8.865   7.912   1.466  0.4484 -0.3781  0.1825
  340COC    COC  340   8.655   8.113   1.415  0.6177  0.0003 -0.5098
  341COC    COC  341   8.544   8.179   1.144 -0.0659 -0.0228  0.2470
  342COC    COC  342   8.521   8.401   0.923 -0.4302  0.6468  0.0400
  343COC    COC  343   8.619   8.673   1.029 -0.2507 -0.1872  0.4345
  344COC    COC  344   8.580   8.677   1.324 -0.0007 -0.3775 -0.1916
  345COC    COC  345   8.339   8.816   1.495  0.2262  0.3394 -0.0320
  346COC    COC  346   8.427   8.955   1.720 -0.2262 -0.1786  0.0423
  347COC    COC  347   8.739   8.914   1.720 -0.1394 -0.0545  0.4825
  348COC    COC  348   8.827   8.591   1.716  0.4737 -0.2846 -0.0085
  349COC    COC  349   8.538   8.460   1.673  0.1060  0.3620  0.4768
  350COC    COC  350   8.257   8.398   1.809  0.4527  0.0246 -0.2032
  351COC    COC  351   8.034   8.641   1.875  0.0210  0.0602 -0.4547
  352COC    COC  352   7.752   8.546   1.846  0.3027  0.2212  0.4142
  353COC    COC  353   7.514   8.600   1.648 -0.0776 -0.0592 -0.0191
  354COC    COC  354   7.230   8.543   1.544  0.2703  0.6051  0.0668
  355COC    COC  355   7.153   8.231   1.490  0.0917 -0.0574 -0.3592
  356COC    COC  356   6.891   8.084   1.569  0.1317 -0.2628  0.0552
  357COC    COC  357   6.644   8.216   1.608  0.3225 -0.2989  0.0734
  358COC    COC  358   6.385   8.133   1.785 -0.0439  0.1280  0.0923
  359COC    COC  359   6.436   7.833   1.849 -0.0955  0.2456  0.0867
  360COC    COC  360   6.712   7.717   1.736 -0.0584  0.2409 -0.0172
  361COC    COC  361   6.821   7.686   1.465 -0.0406 -0.0045 -0.0045
  362COC    COC  362   6.669   7.669   1.181  0.3134 -0.5296 -0.0041
  363COC    COC  363   6.423   7.859   1.108  0.2616 -0.1685  0.0726
  364COC    COC  364   6.419   7.864   0.796  0.3077 -0.0015 -0.1763
  365COC    COC  365   6.637   7.997   0.620 -0.2991  0.1280 -0.1586
  366COC    COC  366   6.914   8.102   0.687  0.0806 -0.0790 -0.1219
  367COC    COC  367   6.939   8.408   0.771 -0.3196  0.0401 -0.2738
  368COH    COH  368   6.758   8.570   0.898 -0.1120 -0.1987 -0.0292
  369COH    COH  369   4.097   0.647   6.071  0.0968  0.3797  0.1655
  370COC    COC  370   3.895   0.510   6.116  0.2335  0.1144  0.2536
  371COC    COC  371   3.677   0.461   5.938 -0.1093  0.1851  0.0505
  372COC    COC  372   3.423   0.328   6.083  0.1461  0.1430 -0.1196
  373COC    COC  373   3.217   0.456   6.263  0.0934 -0.1192 -0.1053
  374COC    COC  374   3.278   0.609   6.550 -0.6258  0.0187 -0.2405
  375COC    COC  375   3.138   0.616   6.830  0.0467 -0.2695 -0.1212
  376COC    COC  376   2.965   0.428   6.951  0.0158 -0.1691 -0.3982
  377COC    COC  377   3.183   0.315   7.138  0.5276  0.2570  0.0185
  378COC    COC  378   3.177   0.339   7.425  0.1234  0.0979 -0.0365
  379COC    COC  379   2.958   0.117   7.447 -0.1205  0.4979 -0.3207
  380COC    COC  380   2.704   0.103   7.264 -0.0057  0.2486 -0.4891
  381COC    COC  381   2.383   0.093   7.265  0.0058 -0.5191 -0.3009
  382COC    COC  382   2.207   0.314   7.415 -0.0794  0.2028  0.1430
  383COC    COC  383   2.317   0.425   7.677 -0.1967  0.2985 -0.1208
  384COC    COC  384   2.256   0.180   7.872 -0.0871 -0.4241 -0.0492
  385COC    COC  385   2.105   0.011   7.714  0.2602 -0.3939  0.1058
  386COC    COC  386   1.819   0.048   7.773 -0.1482 -0.0416  0.1825
  387COC    COC  387   1.676  10.298   8.024  0.0272  0.1880  0.3196
  388COC    COC  388   1.515   0.156   8.186 -0.6981  0.0237 -0.0762
  389COC    COC  389   1.650   0.410   8.341  0.1347  0.0645  0.4995
  390COC    COC  390   1.471   0.424   8.587 -0.2590  0.3802  0.0147
  391COC    COC  391   1.335   0.702   8.585  0.1030 -0.2450  0.3117
  392COC    COC  392   1.406   0.703   8.897 -0.1467  0.2441 -0.0182
  393COC    COC  393   1.336   0.970   9.043  0.0862  0.4917 -0.1501
  394COC    COC  394   1.397   1.170   8.816 -0.3359 -0.1159 -0.1678
  395COC    COC  395   1.392   1.395   8.676  0.1671  0.0253 -0.1390
  396COC    COC  396   1.552   1.431   8.461 -0.4017  0.1715  0.0789
  397COC    COC  397   1.834   1.329   8.426 -0.3810 -0.1138  0.0598
  398COC    COC  398   1.878   1.067   8.608  0.0657 -0.4333  0.2712
  399COC    COC  399   2.126   1.066   8.774 -0.4353  0.1320 -0.2733
  400COC    COC  400   2.368   0.961   8.664  0.2130  0.6473  0.5850
  401COC    COC  401   2.316   0.962   8.344 -0.1211 -0.2734 -0.0866
  402COC    COC  402   2.525   0.860   8.100 -0.0706 -0.0730  0.2839
  403COC    COC  403   2.552   0.562   8.076  0.0097 -0.0666  0.1459
  404COC    COC  404   2.705   0.349   8.211  0.0373  0.2951  0.3300
  405COC    COC  405   2.645   0.071   8.140  0.2600 -0.2689 -0.0140
  406COC    COC  406   2.564  10.206   7.957  0.2277  0.2769 -0.1200
  407COC    COC  407   2.790  10.034   8.050  0.1677  0.2184 -0.0785
  408COC    COC  408   2.939  10.086   8.304  0.0295  0.4789  0.1545
  409COC    COC  409   2.985   9.880   8.512  0.0631  0.1854 -0.1845
  410COC    COC  410   3.139   9.665   8.622 -0.4141  0.0969 -0.0302
  411COC    COC  411   3.166   9.456   8.412 -0.0771 -0.2335 -0.3983
  412COC    COC  412   3.081   9.194   8.563 -0.2981 -0.4532  0.3830
  413COC    COC  413   2.793   9.162   8.607  0.0189  0.3398 -0.0886
  414COH    COH  414   2.709   9.019   8.437 -0.2492  0.5545  0.1467
  415COH    COH  415   0.389   4.368   8.869  0.1414  0.0840 -0.1742
  416COC    COC  416   0.217   4.285   8.688 -0.2211  0.4150  0.1424
  417COC    COC  417   0.183   3.958   8.600 -0.0927  0.6643  0.1064
  418COC    COC  418   0.158   3.664   8.593 -0.0544  0.2607  0.0525
  419COC    COC  419   0.281   3.605   8.845  0.0440 -0.2735  0.2904
  420COC    COC  420  10.337   3.642   8.974  0.2251 -0.0723 -0.1011
  421COC    COC  421  10.116   3.632   8.777  0.3702 -0.1295  0.2199
  422COC    COC  422  10.035   3.879   8.603  0.1624  0.0259  0.1536
  423COC    COC  423  10.115   3.891   8.283 -0.1574  0.2729 -0.0683
  424COC    COC  424  10.005   3.806   8.015 -0.2220  0.2585  0.0157
  425COC    COC  425   9.906   3.972   7.744 -0.2116  0.1049  0.0922
  426COC    COC  426  10.076   4.020   7.510 -0.0018  0.0903  0.0778
  427COC    COC  427   0.014   4.161   7.627  0.3830  0.3211  0.2038
  428COC    COC  428   0.228   4.365   7.542 -0.0025 -0.1592  0.1228
  429COC    COC  429   0.558   4.414   7.608 -0.0933 -0.0369 -0.1310
  430COC    COC  430   0.697   4.180   7.540 -0.3980  0.3548  0.3487
  431COC    COC  431   0.942   4.061   7.398  0.1764 -0.3101  0.2769
  432COC    COC  432   0.893   3.757   7.336  0.3261 -0.1977  0.1280
  433COC    COC  433   1.091   3.553   7.253  0.0978 -0.2407 -0.2468
  434COC    COC  434   1.253   3.572   6.983  0.3167 -0.4601  0.0688
  435COC    COC  435   1.278   3.352   6.820 -0.0295 -0.3998 -0.1630
  436COC    COC  436   1.567   3.193   6.752 -0.3076 -0.3896  0.2436
  437COC    COC  437   1.609   3.025   6.961  0.2140  0.0865  0.3093
  438COC    COC  438   1.889   3.022   6.981 -0.2581  0.2291 -0.0965
  439COC    COC  439   2.033   2.756   6.997 -0.0300  0.3336  0.0032
  440COC    COC  440   1.854   2.500   6.970  0.0419 -0.4558 -0.0633
  441COC    COC  441   2.005   2.272   7.059  0.1420  0.1030  0.0537
  442COC    COC  442   1.993   2.227   7.323  0.2940  0.0056 -0.3802
  443COC    COC  443   2.153   2.478   7.476  0.6043 -0.3044 -0.1350
  444COC    COC  444   2.337   2.746   7.375  0.3338  0.1673  0.0517
  445COC    COC  445   2.162   3.022   7.413  0.0929 -0.0545 -0.1055
  446COC    COC  446   2.232   3.288   7.420 -0.2877 -0.5063  0.0250
  447COC    COC  447   2.136   3.496   7.203 -0.2185  0.4045 -0.0094
  448COC    COC  448   2.205   3.773   7.285  0.0862 -0.0577  0.1436
  449COC    COC  449   2.388   3.801   7.504  0.2705  0.0425  0.1677
  450COC    COC  450   2.228   3.805   7.752  0.1305 -0.1352 -0.0015
  451COC    COC  451   2.031   3.781   7.966 -0.0579 -0.1608 -0.0178
  452COC    COC  452   1.770   3.855   8.066  0.2451 -0.0015 -0.3908
  453COC    COC  453   1.600   3.633   7.998  0.2257 -0.0844  0.2043
  454COC    COC  454   1.624   3.397   7.810  0.0426 -0.4151  0.0197
  455COC    COC  455   1.821   3.139   7.861  0.1774 -0.3250 -0.1455
  456COC    COC  456   2.065   3.327   7.828 -0.1067  0.3876 -0.2836
  457COC    COC  457   2.295   3.106   7.904 -0.2866  0.1253  0.2587
  458COC    COC  458   2.523   3.001   7.739 -0.1670  0.3131  0.1327
  459COC    COC  459   2.789   2.856   7.758  0.1712  0.0469  0.2841
  460COH    COH  460   2.916   2.671   7.935 -0.4724 -0.1576 -0.3942
  461COH    COH  461   3.137   4.959   4.121 -0.1000  0.1256 -0.3146
  462COC    COC  462   3.168   4.967   3.896 -0.3326 -0.2143 -0.5361
  463COC    COC  463   3.064   5.125   3.671  0.2315 -0.1347  0.1442
  464COC    COC  464   3.042   5.414   3.683 -0.0074 -0.0601 -0.1993
  465COC    COC  465   3.288   5.510   3.752 -0.0077 -0.4555  0.1480
  466COC    COC  466   3.291   5.727   3.956 -0.2581 -0.1772  0.0432
  467COC    COC  467   3.370   5.706   4.276 -0.0234 -0.0342  0.2091
  468COC    COC  468   3.401   5.781   4.592 -0.1409  0.3177  0.0468
  469COC    COC  469   3.444   6.068   4.653  0.1411  0.2897  0.0039
  470COC    COC  470   3.361   6.183   4.376 -0.3469 -0.0597  0.1944
  471COC    COC  471   3.638   6.236   4.205 -0.1777 -0.2173  0.0498
  472COC    COC  472   3.745   6.007   4.076  0.0961  0.3688 -0.1911
  473COC    COC  473   3.820   6.120   3.806  0.0899 -0.1179  0.3134
  474COC    COC  474   4.041   5.975   3.617  0.3544 -0.0785 -0.4774
  475COC    COC  475   4.232   5.744   3.684  0.2011  0.0435 -0.0501
  476COC    COC  476   4.486   5.601   3.866  0.0009 -0.1036  0.1589
  477COC    COC  477   4.459   5.343   4.022  0.1380  0.1571 -0.1724
  478COC    COC  478   4.732   5.159   4.049  0.0545 -0.4281 -0.1850
  479COC    COC  479   4.898   5.419   3.998  0.0176 -0.0942 -0.4361
  480COC    COC  480   4.950   5.656   4.236 -0.2163 -0.3206  0.0253
  481COC    COC  481   5.106   5.895   4.224 -0.0954  0.1493  0.4203
  482COC    COC  482   5.322   5.996   4.352 -0.3708  0.4798  0.2608
  483COC    COC  483   5.213   6.209   4.522 -0.1561  0.0651  0.0383
  484COC    COC  484   5.336   6.345   4.749  0.2335  0.0367 -0.2962
  485COC    COC  485   5.618   6.299   4.716  0.0438  0.0850 -0.1110
  486COC    COC  486   5.776   6.300   4.951  0.6827 -0.2770 -0.1451
  487COC    COC  487   5.742   6.059   5.177  0.0786 -0.1971  0.3083
  488COC    COC  488   5.625   5.822   5.263  0.0157  0.1672  0.0050
  489COC    COC  489   5.733   5.550   5.310 -0.3073  0.0596 -0.1843
  490COC    COC  490   5.629   5.271   5.375 -0.4168 -0.4028  0.0483
  491COC    COC  491   5.629   5.110   5.109  0.2107  0.2041 -0.2259
  492COC    COC  492   5.556   5.350   4.965  0.0230  0.0693  0.1742
  493COC    COC  493   5.297   5.352   4.806 -0.1838 -0.0081 -0.2329
  494COC    COC  494   5.076   5.567   4.862 -0.1346 -0.0376  0.1190
  495COC    COC  495   4.850   5.541   4.668  0.0923  0.2248 -0.1617
  496COC    COC  496   4.879   5.311   4.466 -0.4405  0.0432  0.1678
  497COC    COC  497   5.032   5.113   4.616 -0.0630  0.0767  0.4179
  498COC    COC  498   4.865   4.866   4.640  0.3099 -0.2102 -0.1416
  499COC    COC  499   4.639   4.837   4.866  0.3341  0.0051 -0.1567
  500COC    COC  500   4.694   4.597   5.058 -0.3338  0.1715 -0.2062
  501COC    COC  501   4.521   4.542   5.305 -0.1567  0.6963 -0.1520
  502COC    COC  502   4.312   4.735   5.475  0.5383  0.1315  0.2240
  503COC    COC  503   4.294   5.032   5.434  0.0396 -0.1439 -0.3384
  504COC    COC  504   4.493   5.201   5.634 -0.1718 -0.5597 -0.3930
  505COC    COC  505   4.433   5.491   5.756 -0.3564 -0.0753 -0.2319
  506COH    COH  506   4.668   5.640   5.746  0.3919  0.2487 -0.2047
  507COH    COH  507   5.672   1.039   7.517 -0.4565  0.3342 -0.2893
  508COC    COC  508   5.633   1.319   7.528  0.1548  0.1029  0.0382
  509COC    COC  509   5.719   1.534   7.684 -0.0356  0.0483  0.2180
  510COC    COC  510   5.958   1.702   7.627  0.0192  0.0113  0.3059
  511COC    COC  511   5.961   1.692   7.323 -0.3099  0.0028 -0.3504
  512COC    COC  512   6.084   1.657   7.057  0.2226  0.2756  0.2462
  513COC    COC  513   6.197   1.394   6.986  0.3368 -0.0822  0.3983
  514COC    COC  514   6.363   1.143   7.039  0.1591 -0.2445 -0.0017
  515COC    COC  515   6.595   1.014   6.905 -0.1807  0.5600  0.4160
  516COC    COC  516   6.574   0.812   6.660  0.0097  0.3691  0.3133
  517COC    COC  517   6.504   0.804   6.369  0.1347 -0.4044  0.2377
  518COC    COC  518   6.650   0.818   6.100 -0.1931  0.0674 -0.1940
  519COC    COC  519   6.872   0.631   5.952 -0.0525 -0.1732 -0.1171
  520COC    COC  520   6.995   0.415   6.102  0.2069  0.1568 -0.0967
  521COC    COC  521   7.159   0.181   5.923 -0.1338  0.1467 -0.6508
  522COC    COC  522   7.164  10.226   5.861 -0.3806 -0.3929 -0.2214
  523COC    COC  523   6.938  10.045   5.969 -0.3484 -0.1512  0.0403
  524COC    COC  524   7.003   9.762   6.023 -0.0894 -0.2087  0.0387
  525COC    COC  525   7.153   9.643   6.250  0.5296  0.1934 -0.5167
  526COC    COC  526   7.419   9.625   6.349 -0.0128 -0.0566  0.1082
  527COC    COC  527   7.447   9.645   6.664  0.0096  0.0847 -0.1173
  528COC    COC  528   7.225   9.695   6.880  0.2067 -0.0638 -0.1358
  529COC    COC  529   7.114   9.896   7.068 -0.0240 -0.1681 -0.0264
  530COC    COC  530   7.168  10.016   7.331  0.2008  0.3204 -0.0027
  531COC    COC  531   7.368  10.218   7.522 -0.2210 -0.0425  0.1405
  532COC    COC  532   7.605   0.090   7.376  0.3854  0.1068 -0.0818
  533COC    COC  533   7.809  10.281   7.226 -0.1119 -0.0505  0.1939
  534COC    COC  534   8.085   0.071   7.150  0.2084 -0.1877  0.1200
  535COC    COC  535   8.101   0.351   7.002 -0.1334 -0.1198  0.1151
  536COC    COC  536   8.167   0.434   6.684 -0.0835  0.3512  0.2042
  537COC    COC  537   8.326   0.680   6.624  0.1678 -0.3305  0.3022
  538COC    COC  538   8.655   0.674   6.644  0.4422 -0.3145  0.1780
  539COC    COC  539   8.730   0.510   6.391  0.1153 -0.1546  0.2066
  540COC    COC  540   8.417   0.372   6.358  0.3107 -0.1831  0.2798
  541COC    COC  541   8.299   0.116   6.267 -0.1601  0.1040 -0.3838
  542COC    COC  542   8.195   0.031   5.997 -0.2282  0.1257 -0.0078
  543COC    COC  543   7.941  10.139   5.994 -0.0248 -0.0358 -0.0506
  544COC    COC  544   7.719  10.305   6.044  0.1127 -0.2300 -0.1157
  545COC    COC  545   7.454   0.022   6.175 -0.3594 -0.0142  0.1497
  546COC    COC  546   7.388  10.294   6.495 -0.2352  0.3152 -0.0146
  547COC    COC  547   7.288   9.994   6.489 -0.0072  0.0729 -0.0439
  548COC    COC  548   7.044  10.052   6.339 -0.1312  0.1333 -0.1574
  549COC    COC  549   7.004   0.038   6.284 -0.2125  0.2284  0.0259
  550COC    COC  550   7.080   0.244   6.460  0.1045 -0.2573 -0.1043
  551COC    COC  551   7.111   0.344   6.751  0.0613  0.1889  0.1268
  552COH    COH  552   7.254   0.112   6.797 -0.0993 -0.3088  0.0659
  553COH    COH  553   3.847   0.014   9.497 -0.0195  0.3509 -0.0109
  554COC    COC  554   4.081   0.077   9.369 -0.1803  0.1579 -0.2802
  555COC    COC  555   4.286  10.202   9.366 -0.4490  0.6160 -0.0517
  556COC    COC  556   4.243  10.062   9.623 -0.1070 -0.0461 -0.4020
  557COC    COC  557   4.159   9.758   9.705 -0.0553 -0.2649  0.1899
  558COC    COC  558   4.036   9.645   9.979 -0.4137  0.0106 -0.3153
  559COC    COC  559   4.037   9.884  10.194 -0.2131  0.1095  0.1883
  560COC    COC  560   4.295   9.927  10.208 -0.6739  0.0576  0.2108
  561COC    COC  561   4.490   9.910   0.124  0.2692 -0.2257 -0.1788
  562COC    COC  562   4.476  10.202   0.223 -0.1344 -0.4281 -0.1930
  563COC    COC  563   4.520   0.140   0.102  0.3208  0.4022  0.2604
  564COC    COC  564   4.767   0.266   0.173 -0.1771  0.2299 -0.1694
  565COC    COC  565   4.933   0.126   0.362  0.0661 -0.2747  0.2944
  566COC    COC  566   5.223   0.026   0.394  0.0219 -0.1853  0.3189
  567COC    COC  567   5.269  10.082   0.475 -0.1942  0.5334 -0.1580
  568COC    COC  568   5.452  10.071   0.707 -0.5929  0.0540  0.1562
  569COC    COC  569   5.434   9.776   0.719 -0.4073 -0.1954 -0.1927
  570COC    COC  570   5.685   9.699   0.878  0.5008 -0.3518 -0.2929
  571COC    COC  571   5.924   9.598   0.716 -0.2160  0.2422  0.0008
  572COC    COC  572   6.270   9.653   0.670  0.1746  0.1389  0.3594
  573COC    COC  573   6.344   9.936   0.574  0.3603 -0.0904 -0.3095
  574COC    COC  574   6.386  10.212   0.655  0.1395  0.0103 -0.1172
  575COC    COC  575   6.301   0.147   0.670 -0.1919  0.4028 -0.0113
  576COC    COC  576   6.468   0.277   0.458  0.2497  0.1537  0.1488
  577COC    COC  577   6.550   0.128   0.166 -0.0888 -0.3379  0.1520
  578COC    COC  578   6.799  10.300   0.225  0.0624 -0.1622  0.0858
  579COC    COC  579   6.897  10.147   0.500 -0.0961 -0.2352  0.2819
  580COC    COC  580   6.911   9.880   0.338 -0.0592 -0.0762 -0.1031
  581COC    COC  581   7.171   9.906   0.160  0.0076 -0.1247 -0.3569
  582COC    COC  582   7.415  10.013   0.278  0.1503 -0.3702 -0.3854
  583COC    COC  583   7.564  10.276   0.160 -0.0777 -0.2529 -0.2765
  584COC    COC  584   7.740   0.127   0.290 -0.1637  0.0187  0.2625
  585COC    COC  585   7.600   0.411   0.223 -0.2021  0.0136 -0.3638
  586COC    COC  586   7.326   0.602   0.256 -0.0406  0.0596  0.0718
  587COC    COC  587   7.165   0.733   0.000 -0.1918 -0.2607 -0.3209
  588COC    COC  588   6.963   0.514  10.177 -0.0486  0.0396 -0.1853
  589COC    COC  589   6.818   0.585   9.941 -0.1984  0.2811  0.2209
  590COC    COC  590   6.536   0.557  10.046  0.2385  0.1502 -0.1813
  591COC    COC  591   6.285   0.713  10.000 -0.1018 -0.0102  0.1625
  592COC    COC  592   6.083   0.515  10.033 -0.0213  0.2102  0.0471
  593COC    COC  593   6.248   0.250  10.146 -0.1551 -0.0962  0.0530
  594COC    COC  594   6.345  10.305  10.148 -0.0768  0.5845 -0.1230
  595COC    COC  595   6.408  10.085   0.052  0.5328  0.0489 -0.3307
  596COC    COC  596   6.504   9.854   0.225  0.4150 -0.2577 -0.2355
  597COC    COC  597   6.498   9.544   0.300 -0.5099 -0.0910  0.1656
  598COH    COH  598   6.483   9.454   0.056  0.4809 -0.3647  0.3840
  599COH    COH  599   7.980   7.683   6.201 -0.0018  0.1411  0.1788
  600COC    COC  600   8.131   7.730   6.421  0.2565 -0.1362  0.1864
  601COC    COC  601   8.002   7.936   6.619  0.0811  0.0891  0.0830
  602COC    COC  602   7.934   8.228   6.599  0.2654 -0.1828  0.3612
  603COC    COC  603   7.806   8.417   6.795 -0.5803  0.0720  0.1118
  604COC    COC  604   7.908   8.239   7.056  0.0285  0.1451  0.1053
  605COC    COC  605   8.124   8.066   7.008 -0.0238  0.2108 -0.1232
  606COC    COC  606   8.308   8.005   7.240  0.2733  0.1581  0.1728
  607COC    COC  607   8.506   7.746   7.212  0.1250  0.1333  0.3480
  608COC    COC  608   8.774   7.623   7.075 -0.0651 -0.3367 -0.3107
  609COC    COC  609   8.946   7.818   6.895  0.3745  0.3297  0.0272
  610COC    COC  610   9.220   7.912   6.925 -0.1283  0.2713  0.3591
  611COC    COC  611   9.208   8.217   6.984 -0.1367 -0.1977 -0.0522
  612COC    COC  612   9.162   8.144   7.269  0.2076  0.0117  0.0337
  613COC    COC  613   9.353   8.054   7.445  0.4262  0.1783 -0.1445
  614COC    COC  614   9.378   7.868   7.698  0.0365 -0.1098  0.0140
  615COC    COC  615   9.474   7.954   7.954  0.1220  0.0450  0.3281
  616COC    COC  616   9.487   7.731   8.142 -0.0860  0.1111 -0.2801
  617COC    COC  617   9.798   7.692   8.095 -0.2684  0.2859  0.1190
  618COC    COC  618   9.872   7.658   7.794 -0.3628 -0.1321  0.2835
  619COC    COC  619   9.629   7.505   7.696 -0.1329 -0.4537 -0.1129
  620COC    COC  620   9.547   7.185   7.869  0.4792 -0.3542 -0.1799
  621COC    COC  621   9.389   7.119   8.099 -0.2151  0.1557  0.3389
  622COC    COC  622   9.245   7.214   8.335  0.3924  0.3074 -0.1032
  623COC    COC  623   9.174   7.515   8.323 -0.1153 -0.0432  0.0229
  624COC    COC  624   9.287   7.577   8.605 -0.1095  0.2484  0.0955
  625COC    COC  625   9.288   7.768   8.839  0.2330 -0.1577  0.2971
  626COC    COC  626   9.082   7.631   9.013 -0.2906 -0.0214  0.2527
  627COC    COC  627   9.027   7.772   9.266 -0.2396 -0.0459  0.1212
  628COC    COC  628   9.222   7.882   9.479 -0.2229  0.3604  0.2021
  629COC    COC  629   9.152   8.143   9.471 -0.1549 -0.1705  0.0526
  630COC    COC  630   8.893   8.266   9.304 -0.3212  0.3067  0.2049
  631COC    COC  631   8.885   8.117   9.017 -0.1744  0.0235  0.2069
  632COC    COC  632   9.135   8.182   8.831  0.2341 -0.1176 -0.1236
  633COC    COC  633   9.315   8.127   9.089 -0.0237  0.0109  0.0081
  634COC    COC  634   9.627   8.108   9.109 -0.0129 -0.2168  0.0269
  635COC    COC  635   9.894   8.186   9.228 -0.1064 -0.2127  0.0626
  636COC    COC  636  10.193   8.272   9.153  0.6002 -0.2721 -0.2633
  637COC    COC  637  10.257   8.535   8.998 -0.2065 -0.1577  0.0446
  638COC    COC  638  10.138   8.759   9.142 -0.2974  0.4436  0.4909
  639COC    COC  639   9.940   8.697   9.357 -0.2462 -0.3884  0.1425
  640COC    COC  640   9.706   8.860   9.262  0.2744 -0.1444 -0.0234
  641COC    COC  641   9.497   9.017   9.451  0.4912  0.3125 -0.3038
  642COC    COC  642   9.361   8.882   9.688  0.4414  0.2973 -0.2207
  643COC    COC  643   9.563   8.678   9.834  0.1483 -0.0414  0.3096
  644COH    COH  644   9.516   8.444   9.691  0.2304 -0.2380 -0.4436
  645COH    COH  645   9.441   7.917   0.383 -0.0289  0.3315  0.3293
  646COC    COC  646   9.259   7.708   0.346  0.2328  0.1515  0.3485
  647COC    COC  647   9.233   7.398   0.307  0.0871 -0.4080 -0.0287
  648COC    COC  648   9.218   7.215   0.055  0.0229 -0.1606 -0.6011
  649COC    COC  649   9.323   6.926   0.054 -0.3574  0.3443  0.2701
  650COC    COC  650   9.497   6.862  10.148  0.0117 -0.0263  0.2522
  651COC    COC  651   9.396   7.163  10.009  0.2048 -0.0341 -0.3715
  652COC    COC  652   9.345   7.092   9.717 -0.0172  0.4096 -0.2133
  653COC    COC  653   9.424   6.819   9.695  0.0932 -0.1012 -0.1791
  654COC    COC  654   9.443   6.704   9.402  0.4019 -0.1276 -0.0962
  655COC    COC  655   9.160   6.800   9.347 -0.0558  0.1104  0.0327
  656COC    COC  656   8.980   6.532   9.351 -0.0434 -0.0550  0.0572
  657COC    COC  657   9.170   6.351   9.543  0.2511 -0.4582  0.1145
  658COC    COC  658   9.055   6.210   9.796 -0.1259 -0.0204  0.1952
  659COC    COC  659   9.088   6.231  10.081 -0.1879 -0.0958  0.0432
  660COC    COC  660   8.966   6.425  10.289 -0.0261  0.1095  0.6079
  661COC    COC  661   8.673   6.494  10.153  0.3515 -0.1895  0.1894
  662COC    COC  662   8.472   6.587   0.054 -0.2625  0.2829 -0.3142
  663COC    COC  663   8.337   6.710   0.335 -0.3946 -0.0273  0.2433
  664COC    COC  664   8.512   6.858   0.556 -0.0375  0.1700  0.0871
  665COC    COC  665   8.651   7.123   0.607 -0.0230 -0.1001 -0.2810
  666COC    COC  666   8.813   7.260   0.390 -0.0938  0.0358  0.2714
  667COC    COC  667   8.764   7.499   0.195  0.0251 -0.3496  0.1046
  668COC    COC  668   8.977   7.558   0.016  0.1477 -0.0175  0.4430
  669COC    COC  669   8.874   7.744  10.115 -0.2058 -0.2527 -0.1926
  670COC    COC  670   8.593   7.836  10.046  0.0788 -0.1980  0.4895
  671COC    COC  671   8.542   7.968   9.778 -0.1956  0.3366  0.1393
  672COC    COC  672   8.810   7.998   9.661 -0.3675 -0.0461 -0.4082
  673COC    COC  673   9.072   8.031   9.888  0.3525  0.1184 -0.1686
  674COC    COC  674   9.318   7.873   9.896  0.0269  0.1493  0.4544
  675COC    COC  675   9.164   7.577   9.838 -0.2222  0.0543 -0.4035
  676COC    COC  676   8.992   7.513   9.619 -0.2624 -0.6063 -0.4567
  677COC    COC  677   8.669   7.519   9.664  0.1237 -0.1149  0.0603
  678COC    COC  678   8.575   7.696   9.459 -0.0549 -0.2152  0.0557
  679COC    COC  679   8.313   7.566   9.265 -0.3387  0.1976 -0.0682
  680COC    COC  680   8.505   7.395   9.117 -0.1617  0.2452  0.2717
  681COC    COC  681   8.766   7.341   9.227 -0.1878  0.0047  0.1165
  682COC    COC  682   8.777   7.046   9.197  0.0807 -0.1979  0.2445
  683COC    COC  683   8.603   6.780   9.214 -0.3396 -0.3318  0.5118
  684COC    COC  684   8.640   6.735   9.471  0.1695  0.1636  0.2476
  685COC    COC  685   8.713   6.587   9.716  0.0179  0.2440 -0.2744
  686COC    COC  686   8.472   6.351   9.741 -0.0906  0.3000 -0.0718
  687COC    COC  687   8.573   6.140   9.953 -0.1207  0.1982 -0.1335
  688COC    COC  688   8.439   5.883   9.938 -0.1847  0.3474 -0.4264
  689COC    COC  689   8.449   5.635  10.129  0.0260  0.0748 -0.6143
  690COH    COH  690   8.406   5.389  10.019 -0.3078 -0.4681  0.2999
  691COH    COH  691   5.463   9.867   9.906  0.0656  0.2012 -0.2743
  692COC    COC  692   5.546  10.073   9.770  0.0763 -0.0406  0.0351
  693COC    COC  693   5.412  10.302   9.766 -0.0960  0.3464  0.1302
  694COC    COC  694   5.493   0.158  10.010 -0.0853  0.4239 -0.3587
  695COC    COC  695   5.657   0.340   9.851 -0.4810 -0.0462 -0.0046
  696COC    COC  696   5.926   0.275   9.712 -0.1544 -0.3940 -0.2399
  697COC    COC  697   5.872  10.300   9.625 -0.5824  0.0791  0.2023
  698COC    COC  698   5.971  10.134   9.396  0.1142 -0.0184  0.0337
  699COC    COC  699   6.147  10.316   9.248 -0.2939 -0.0946 -0.1953
  700COC    COC  700   6.419  10.289   9.352  0.2794 -0.1472  0.3496
  701COC    COC  701   6.590  10.319   9.161  0.1863 -0.2063  0.1345
  702COC    COC  702   6.823   0.099   9.324  0.2603 -0.0073  0.6406
  703COC    COC  703   6.933   0.131   9.609  0.0910  0.0017  0.2220
  704COC    COC  704   7.019  10.174   9.715  0.5600 -0.0707 -0.3276
  705COC    COC  705   7.005   9.889   9.582  0.1618 -0.4685  0.4372
  706COC    COC  706   6.741   9.835   9.475 -0.2809 -0.1016  0.0209
  707COC    COC  707   6.708   9.858   9.222  0.2391 -0.1962  0.1148
  708COC    COC  708   6.614   9.664   9.010  0.0939 -0.0133 -0.4174
  709COC    COC  709   6.633   9.731   8.687 -0.0459 -0.1574  0.6928
  710COC    COC  710   6.668   9.994   8.521  0.1518  0.2197 -0.0937
  711COC    COC  711   6.665  10.207   8.754  0.2394 -0.2142  0.0016
  712COC    COC  712   6.796   0.167   8.752 -0.1739  0.1869 -0.0602
  713COC    COC  713   6.951   0.370   8.546  0.7185  0.1222  0.0709
  714COC    COC  714   7.232   0.465   8.499  0.0568  0.0406 -0.2479
  715COC    COC  715   7.457   0.591   8.693 -0.5077  0.0581  0.1008
  716COC    COC  716   7.675   0.582   8.907 -0.3105  0.0108  0.0023
  717COC    COC  717   7.618   0.278   8.929  0.1091  0.2288  0.1536
  718COC    COC  718   7.463   0.081   8.753 -0.4241  0.2867  0.0569
  719COC    COC  719   7.533  10.109   8.755  0.4251  0.3752 -0.3994
  720COC    COC  720   7.380   9.933   8.969  0.1242  0.0553  0.0033
  721COC    COC  721   7.162   9.853   8.746 -0.1213  0.4436 -0.1521
  722COC    COC  722   7.210   9.904   8.431 -0.1745 -0.0569 -0.3571
  723COC    COC  723   7.483  10.029   8.345 -0.0893 -0.0043 -0.4393
  724COC    COC  724   7.424  10.057   8.090  0.5970  0.2608 -0.2577
  725COC    COC  725   7.540   9.894   7.871  0.0757 -0.5477  0.2585
  726COC    COC  726   7.350   9.736   7.760  0.1120  0.1019  0.2252
  727COC    COC  727   7.104   9.868   7.793  0.4793  0.0910  0.0994
  728COC    COC  728   6.815   9.948   7.839  0.4837  0.0062 -0.0312
  729COC    COC  729   6.583   9.782   7.782 -0.0311  0.0161  0.1202
  730COC    COC  730   6.520   9.540   8.010 -0.1680  0.0052 -0.2693
  731COC    COC  731   6.498   9.589   8.302 -0.1788  0.1128  0.3236
  732COC    COC  732   6.228   9.654   8.454  0.2161  0.1403 -0.0842
  733COC    COC  733   6.016   9.855   8.349  0.0496 -0.0545 -0.0346
  734COC    COC  734   5.734   9.813   8.378  0.4346  0.0758  0.2593
  735COC    COC  735   5.736   9.573   8.237  0.1911 -0.1559  0.0172
  736COH    COH  736   5.873   9.440   8.418 -0.4933 -0.2867  0.3011
  737COH    COH  737   9.508   5.183   7.646  0.1018 -0.6123  0.2713
  738COC    COC  738   9.672   5.343   7.477 -0.4733  0.2168 -0.0179
  739COC    COC  739   9.696   5.256   7.184  0.4666  0.1161  0.3655
  740COC    COC  740   9.659   5.459   6.950 -0.5732  0.4081 -0.5057
  741COC    COC  741   9.461   5.662   6.991  0.0841 -0.1355 -0.0268
  742COC    COC  742   9.445   5.897   6.862  0.0302 -0.1148  0.1888
  743COC    COC  743   9.183   6.058   6.734  0.2473  0.0822  0.1861
  744COC    COC  744   9.020   6.068   6.993  0.1037  0.0384  0.0494
  745COC    COC  745   9.056   6.192   7.269  0.1084 -0.2703 -0.0576
  746COC    COC  746   8.991   6.455   7.344  0.5025 -0.0756  0.3133
  747COC    COC  747   9.181   6.674   7.353 -0.2194 -0.4531  0.3517
  748COC    COC  748   9.305   6.893   7.209  0.0302  0.1561 -0.0429
  749COC    COC  749   9.338   6.875   6.923  0.1011 -0.1580 -0.3297
  750COC    COC  750   9.624   6.767   6.849  0.2154 -0.0871  0.0409
  751COC    COC  751   9.861   6.830   6.667  0.1381  0.1385  0.0948
  752COC    COC  752   9.780   6.729   6.396  0.3344 -0.1251 -0.0449
  753COC    COC  753   9.493   6.708   6.403  0.2811  0.1285 -0.0256
  754COC    COC  754   9.348   6.473   6.572 -0.1454  0.4723  0.1480
  755COC    COC  755   9.445   6.263   6.395  0.0404 -0.0875 -0.0117
  756COC    COC  756   9.505   5.986   6.332  0.0040  0.3169 -0.0327
  757COC    COC  757   9.531   5.815   6.059 -0.0687 -0.3333 -0.0792
  758COC    COC  758   9.547   5.538   6.107 -0.0931  0.1208 -0.2348
  759COC    COC  759   9.279   5.458   6.151  0.1319 -0.1610 -0.1760
  760COC    COC  760   9.171   5.570   5.898  0.1961  0.1580  0.0377
  761COC    COC  761   8.948   5.489   5.671 -0.1832 -0.2527 -0.0586
  762COC    COC  762   8.868   5.237   5.575  0.5496 -0.4090 -0.2423
  763COC    COC  763   9.087   5.180   5.387 -0.1547  0.0491  0.1643
  764COC    COC  764   9.053   5.095   5.103  0.3519 -0.4585 -0.0416
  765COC    COC  765   8.888   4.845   5.134 -0.4595 -0.1004 -0.0898
  766COC    COC  766   8.635   4.757   5.059  0.0258 -0.0149  0.1860
  767COC    COC  767   8.466   4.706   5.337 -0.1789  0.0591 -0.4191
  768COC    COC  768   8.267   4.911   5.415 -0.5118  0.1257 -0.0831
  769COC    COC  769   8.222   5.195   5.521 -0.1539  0.0776  0.1620
  770COC    COC  770   8.010   5.399   5.501 -0.0585  0.1665  0.0699
  771COC    COC  771   7.958   5.670   5.573 -0.2718  0.1047  0.0681
  772COC    COC  772   8.120   5.663   5.826 -0.0340 -0.3636  0.2417
  773COC    COC  773   8.277   5.408   5.899  0.3706 -0.1888  0.3058
  774COC    COC  774   8.579   5.372   5.901 -0.0121  0.0896  0.1304
  775COC    COC  775   8.714   5.556   6.070  0.1164 -0.2365 -0.2302
  776COC    COC  776   8.623   5.835   6.152  0.3162 -0.1992 -0.2064
  777COC    COC  777   8.300   5.941   6.222 -0.3452 -0.2253 -0.3329
  778COC    COC  778   8.103   6.125   6.142  0.4416  0.2890  0.2051
  779COC    COC  779   8.025   6.404   6.238 -0.0440 -0.0182  0.1534
  780COC    COC  780   7.721   6.408   6.258  0.0005  0.6818  0.4269
  781COC    COC  781   7.719   6.186   6.458  0.1376  0.0625  0.1797
  782COH    COH  782   7.749   5.994   6.288 -0.2191  0.0582  0.0686
  783COH    COH  783   4.109   9.552   8.487 -0.0162  0.1795  0.0997
  784COC    COC  784   4.197   9.531   8.255 -0.0304 -0.0930  0.6188
  785COC    COC  785   4.009   9.481   8.036  0.1168 -0.0725  0.2107
  786COC    COC  786   4.139   9.589   7.754 -0.1758  0.1423  0.0437
  787COC    COC  787   4.367   9.436   7.609 -0.0820  0.0442 -0.2188
  788COC    COC  788   4.639   9.430   7.452 -0.0729  0.1759 -0.4658
  789COC    COC  789   4.703   9.194   7.308 -0.4126  0.0014  0.0043
  790COC    COC  790   4.765   8.927   7.437  0.0880 -0.3176  0.3924
  791COC    COC  791   5.066   8.882   7.397 -0.0093 -0.2922 -0.0033
  792COC    COC  792   5.062   8.592   7.233  0.2111  0.1530 -0.0417
  793COC    COC  793   4.842   8.483   7.029 -0.2539  0.2583 -0.1720
  794COC    COC  794   4.643   8.380   7.233  0.1562  0.0018  0.0219
  795COC    COC  795   4.538   8.453   7.531  0.0022 -0.1347  0.1598
  796COC    COC  796   4.323   8.548   7.722 -0.0038 -0.1581 -0.3573
  797COC    COC  797   4.413   8.534   8.026 -0.1514  0.3183 -0.2130
  798COC    COC  798   4.290   8.328   8.218 -0.1801  0.0278  0.1389
  799COC    COC  799   4.480   8.230   8.441 -0.2852 -0.0845  0.0361
  800COC    COC  800   4.807   8.174   8.428  0.1405  0.1742  0.1211
  801COC    COC  801   5.023   8.237   8.609  0.0828 -0.0620 -0.1742
  802COC    COC  802   5.181   8.094   8.840  0.1372 -0.0114 -0.5312
  803COC    COC  803   5.117   8.074   9.142 -0.1268 -0.0303 -0.0087
  804COC    COC  804   4.936   7.882   9.290 -0.0836 -0.1092  0.0013
  805COC    COC  805   5.113   7.640   9.446  0.0047 -0.0218  0.1492
  806COC    COC  806   5.358   7.432   9.488 -0.0348  0.1632 -0.3875
  807COC    COC  807   5.462   7.365   9.770  0.0852 -0.4582  0.1794
  808COC    COC  808   5.659   7.146   9.863  0.1550  0.1330  0.3894
  809COC    COC  809   5.833   6.903   9.749 -0.1170  0.1574 -0.0954
  810COC    COC  810   5.842   6.691   9.545 -0.0650 -0.1074  0.2069
  811COC    COC  811   6.065   6.505   9.528  0.0355  0.2418  0.2022
  812COC    COC  812   6.267   6.493   9.269  0.4973  0.0026 -0.2920
  813COC    COC  813   6.130   6.286   9.100  0.3406  0.0501  0.0735
  814COC    COC  814   6.197   6.338   8.812  0.0577  0.0451 -0.1200
  815COC    COC  815   6.512   6.390   8.693  0.1028  0.0201  0.5462
  816COC    COC  816   6.830   6.282   8.705  0.0760  0.0646  0.3946
  817COC    COC  817   7.027   6.291   8.915 -0.2540 -0.0084 -0.2612
  818COC    COC  818   7.047   6.449   9.179 -0.2220  0.4095  0.0420
  819COC    COC  819   7.082   6.752   9.212  0.0593  0.4381 -0.3842
  820COC    COC  820   7.051   6.924   8.954  0.0701 -0.1915  0.1382
  821COC    COC  821   6.999   6.749   8.725  0.1304  0.1312 -0.2321
  822COC    COC  822   6.802   6.744   8.472 -0.0392 -0.2877 -0.0876
  823COC    COC  823   6.549   6.853   8.618  0.4144  0.6234 -0.1445
  824COC    COC  824   6.253   6.815   8.785 -0.0767 -0.0698  0.3639
  825COC    COC  825   5.955   6.879   8.734 -0.0107 -0.2825  0.0111
  826COC    COC  826   5.911   7.128   8.533  0.3160  0.1200  0.0667
  827COC    COC  827   6.158   7.238   8.650 -0.1584  0.2084 -0.0703
  828COH    COH  828   6.219   7.469   8.522 -0.4318 -0.1490  0.4067
  829COH    COH  829   7.997   9.652   1.390  0.0235 -0.0691  0.4483
  830COC    COC  830   7.750   9.644   1.283 -0.0238  0.3147  0.2125
  831COC    COC  831   7.620   9.445   1.446  0.2045 -0.1049 -0.2334
  832COC    COC  832   7.765   9.441   1.746  0.0751  0.2525  0.1245
  833COC    COC  833   7.738   9.524   2.021 -0.5507  0.1346 -0.0807
  834COC    COC  834   8.008   9.436   2.205  0.2485  0.1045 -0.0789
  835COC    COC  835   8.035   9.162   2.389  0.2559 -0.2457  0.2008
  836COC    COC  836   7.907   9.122   2.662 -0.2942 -0.4030 -0.0719
  837COC    COC  837   7.722   8.867   2.636 -0.1110 -0.1552 -0.2192
  838COC    COC  838   7.443   9.010   2.511 -0.3320 -0.0221  0.4607
  839COC    COC  839   7.637   9.087   2.270 -0.0294  0.0346 -0.0616
  840COC    COC  840   7.476   9.170   2.027  0.0378  0.0479  0.1525
  841COC    COC  841   7.219   9.255   2.066  0.2930  0.3378 -0.1768
  842COC    COC  842   7.198   9.556   2.130 -0.2101  0.0676 -0.0365
  843COC    COC  843   7.349   9.806   2.246 -0.2044  0.4078  0.1541
  844COC    COC  844   7.366   9.969   2.511 -0.0822  0.2030  0.0449
  845COC    COC  845   7.279  10.247   2.497 -0.1331 -0.0647 -0.1589
  846COC    COC  846   7.070   0.075   2.641  0.3954 -0.1101  0.0797
  847COC    COC  847   7.159   0.312   2.792  0.0402  0.2067 -0.3426
  848COC    COC  848   7.100   0.462   3.054  0.3478 -0.5743  0.2797
  849COC    COC  849   7.297   0.691   3.203 -0.2916  0.3026 -0.3310
  850COC    COC  850   7.493   0.686   2.974  0.3712 -0.2899  0.1821
  851COC    COC  851   7.583   0.446   2.920 -0.2477  0.4768  0.2546
  852COC    COC  852   7.755   0.394   2.698 -0.4062  0.3760  0.2674
  853COC    COC  853   7.861   0.663   2.583  0.0544 -0.3827  0.2350
  854COC    COC  854   8.129   0.770   2.570  0.2629 -0.1972 -0.0420
  855COC    COC  855   8.211   1.034   2.579  0.2843 -0.0395 -0.1366
  856COC    COC  856   7.948   1.168   2.444 -0.1537  0.2379  0.2947
  857COC    COC  857   7.827   1.029   2.216  0.3249  0.0559 -0.0925
  858COC    COC  858   7.896   1.210   1.977  0.0860  0.1659 -0.1092
  859COC    COC  859   7.781   1.327   1.756  0.0291 -0.1572  0.1751
  860COC    COC  860   7.530   1.464   1.780  0.0846 -0.2068  0.1155
  861COC    COC  861   7.242   1.311   1.747 -0.0340 -0.0140 -0.1438
  862COC    COC  862   7.267   1.042   1.560  0.0458 -0.0606  0.0179
  863COC    COC  863   7.191   1.115   1.230 -0.1408  0.3076  0.0378
  864COC    COC  864   7.205   0.876   1.059  0.2660 -0.0530 -0.0369
  865COC    COC  865   7.442   0.734   1.007  0.0950  0.4921  0.2993
  866COC    COC  866   7.710   0.756   1.143  0.1421  0.1686 -0.1078
  867COC    COC  867   7.730   0.836   1.433 -0.0617 -0.0364 -0.1369
  868COC    COC  868   7.651   1.111   1.403 -0.1779 -0.3558 -0.0943
  869COC    COC  869   7.656   1.232   1.109 -0.0355 -0.0976 -0.0490
  870COC    COC  870   7.461   1.184   0.869 -0.1475  0.1086 -0.0672
  871COC    COC  871   7.612   1.245   0.639  0.1727  0.1865 -0.1845
  872COC    COC  872   7.442   1.446   0.457  0.0654  0.5678 -0.4449
  873COC    COC  873   7.129   1.431   0.460 -0.0590 -0.0611  0.1690
  874COH    COH  874   7.018   1.605   0.336  0.3172 -0.1647  0.4811
  875COH    COH  875   9.982   3.338   5.878 -0.5280  0.5310 -0.1753
  876COC    COC  876   9.704   3.342   5.851 -0.2647  0.1250 -0.5531
  877COC    COC  877   9.458   3.404   5.683  0.1891 -0.0242 -0.1665
  878COC    COC  878   9.455   3.264   5.391  0.1392 -0.1731 -0.1960
  879COC    COC  879   9.363   3.430   5.149 -0.0027  0.4885 -0.0208
  880COC    COC  880   9.586   3.634   5.056  0.0945  0.1330 -0.1944
  881COC    COC  881   9.681   3.874   4.896  0.1916 -0.3497  0.0484
  882COC    COC  882   9.996   3.775   4.940 -0.0457  0.1271  0.0866
  883COC    COC  883  10.190   3.966   4.892 -0.0579 -0.4614  0.0265
  884COC    COC  884  10.334   4.031   4.674  0.1194  0.0584 -0.1675
  885COC    COC  885  10.227   4.236   4.532 -0.0997  0.0782  0.0685
  886COC    COC  886   0.054   4.425   4.363 -0.2565 -0.3160  0.2664
  887COC    COC  887   0.216   4.380   4.104  0.1710  0.2143  0.2360
  888COC    COC  888   0.252   4.296   3.768 -0.0327 -0.0570 -0.0769
  889COC    COC  889   0.528   4.406   3.719 -0.0481 -0.0572 -0.5191
  890COC    COC  890   0.834   4.324   3.762 -0.1359 -0.0779 -0.2282
  891COC    COC  891   0.968   4.066   3.632  0.2532 -0.0651  0.1002
  892COC    COC  892   1.162   3.896   3.750  0.1660 -0.0909  0.1020
  893COC    COC  893   1.380   4.038   3.860 -0.2629 -0.1322 -0.1409
  894COC    COC  894   1.583   4.023   3.637 -0.1311  0.0055  0.1517
  895COC    COC  895   1.531   4.007   3.356 -0.0320  0.0709  0.0207
  896COC    COC  896   1.249   3.977   3.230  0.0633  0.0724 -0.3037
  897COC    COC  897   1.136   4.242   3.237 -0.3556  0.2988  0.3980
  898COC    COC  898   1.284   4.515   3.175  0.0874  0.4053  0.0324
  899COC    COC  899   1.538   4.352   3.043  0.2212  0.3662 -0.0660
  900COC    COC  900   1.759   4.543   3.024  0.0255  0.2821 -0.1252
  901COC    COC  901   1.968   4.398   2.937 -0.1735  0.2753  0.0017
  902COC    COC  902   2.247   4.563   3.038  0.0217 -0.0300  0.2593
  903COC    COC  903   2.479   4.365   3.054  0.2104  0.0023  0.2010
  904COC    COC  904   2.488   4.055   2.984 -0.2257 -0.0001  0.2393
  905COC    COC  905   2.466   3.813   3.151 -0.1161  0.0195  0.2364
  906COC    COC  906   2.565   3.558   3.190 -0.7328  0.0805  0.0968
  907COC    COC  907   2.404   3.391   3.346  0.0325 -0.1697  0.1009
  908COC    COC  908   2.130   3.458   3.471  0.2037 -0.0284 -0.1764
  909COC    COC  909   2.164   3.761   3.505  0.0891 -0.1513 -0.0942
  910COC    COC  910   2.088   3.916   3.773  0.0256  0.0677 -0.1379
  911COC    COC  911   2.298   4.049   3.951  0.0339  0.0354 -0.1492
  912COC    COC  912   2.610   4.108   3.932 -0.7875 -0.0923  0.0809
  913COC    COC  913   2.833   3.901   4.041 -0.4102 -0.2033 -0.0355
  914COC    COC  914   3.163   3.816   4.105 -0.1605  0.2263 -0.0045
  915COC    COC  915   3.338   3.838   3.861  0.3466  0.4800 -0.0954
  916COC    COC  916   3.573   3.984   3.986 -0.6052 -0.4276 -0.1131
  917COC    COC  917   3.594   4.303   3.961 -0.0734 -0.1832 -0.0818
  918COC    COC  918   3.473   4.358   3.673  0.1097  0.0112 -0.0670
  919COC    COC  919   3.295   4.604   3.792 -0.0453  0.2792  0.1980
  920COH    COH  920   3.162   4.574   4.034 -0.0647 -0.2145  0.5726
  921COH    COH  921   8.986   6.546   0.781 -0.0208  0.2696 -0.3647
  922COC    COC  922   8.864   6.774   0.784 -0.1770 -0.0286  0.0893
  923COC    COC  923   8.664   6.887   1.007  0.1027  0.1295  0.2676
  924COC    COC  924   8.335   6.968   1.004 -0.2602  0.1034 -0.0288
  925COC    COC  925   8.120   7.137   0.819 -0.0869  0.0795 -0.0908
  926COC    COC  926   8.104   7.077   0.527  0.2869 -0.1291  0.4399
  927COC    COC  927   7.876   7.201   0.329  0.2394  0.0572  0.0451
  928COC    COC  928   7.915   7.486   0.366  0.2032  0.1555  0.4997
  929COC    COC  929   8.167   7.548   0.548  0.0259  0.1169  0.0186
  930COC    COC  930   8.062   7.659   0.819  0.0949  0.1287 -0.0697
  931COC    COC  931   8.293   7.745   1.023  0.2853 -0.1854  0.0964
  932COC    COC  932   8.520   7.830   0.840 -0.1750  0.3263  0.0376
  933COC    COC  933   8.448   7.931   0.554 -0.2481  0.3901 -0.0844
  934COC    COC  934   8.392   7.777   0.286  0.1093 -0.1531 -0.0758
  935COC    COC  935   8.272   7.606   0.066 -0.0761 -0.0070 -0.1648
  936COC    COC  936   8.164   7.757  10.159  0.0801 -0.7250 -0.1417
  937COC    COC  937   8.004   8.005  10.252  0.1649  0.0671  0.1710
  938COC    COC  938   7.996   8.306  10.288  0.0990 -0.0816 -0.0982
  939COC    COC  939   7.973   8.439   0.225 -0.0436  0.5781  0.4165
  940COC    COC  940   8.039   8.640   0.484  0.1989 -0.0804 -0.1506
  941COC    COC  941   8.226   8.857   0.457  0.4262 -0.1327 -0.1138
  942COC    COC  942   8.070   9.100   0.335  0.0404  0.0719  0.0845
  943COC    COC  943   8.230   9.137   0.091  0.3869  0.1517  0.2789
  944COC    COC  944   8.205   8.857  10.319 -0.4424 -0.0189  0.3560
  945COC    COC  945   8.364   8.657   0.133  0.2261  0.0827  0.4673
  946COC    COC  946   8.448   8.389   0.063  0.3217  0.2395  0.3471
  947COC    COC  947   8.334   8.188   0.237 -0.1625 -0.0471 -0.2464
  948COC    COC  948   8.367   8.338   0.478  0.3520  0.0695 -0.3640
  949COC    COC  949   8.648   8.440   0.469 -0.2259  0.0453 -0.4741
  950COC    COC  950   8.782   8.629   0.278 -0.0375 -0.1638 -0.2863
  951COC    COC  951   8.951   8.460   0.077  0.0126  0.1808 -0.0402
  952COC    COC  952   8.936   8.684  10.189 -0.1127 -0.2597  0.0728
  953COC    COC  953   8.701   8.855   9.981 -0.1707 -0.0753  0.2077
  954COC    COC  954   8.420   8.837   9.936 -0.0871  0.2253 -0.0870
  955COC    COC  955   8.250   8.563   9.924 -0.1380  0.4702  0.0841
  956COC    COC  956   7.969   8.565   9.942 -0.1998  0.2033  0.3882
  957COC    COC  957   7.697   8.569  10.079 -0.0733 -0.1169  0.0770
  958COC    COC  958   7.493   8.491   9.918 -0.2676  0.1546 -0.0383
  959COC    COC  959   7.322   8.289  10.113  0.4045  0.0148  0.0838
  960COC    COC  960   7.303   8.007  10.044 -0.0813  0.2274  0.0379
  961COC    COC  961   7.148   7.857  10.301  0.0881 -0.0435  0.6884
  962COC    COC  962   7.207   7.565  10.264 -0.0051  0.2484 -0.0985
  963COC    COC  963   7.058   7.432  10.027  0.3299  0.1613  0.0245
  964COC    COC  964   7.065   7.221   9.800  0.0882  0.1394  0.1120
  965COC    COC  965   6.857   7.030   9.727 -0.1564 -0.0981 -0.1721
  966COH    COH  966   6.842   6.771   9.811  0.5216  0.2898 -0.2927
  967COH    COH  967   2.705  10.079   7.508  0.5567  0.0004 -0.0953
  968COC    COC  968   2.422  10.007   7.503 -0.1882  0.3381 -0.1667
  969COC    COC  969   2.523   9.768   7.654  0.1929 -0.3174 -0.1011
  970COC    COC  970   2.754   9.655   7.512  0.0600  0.1992  0.1627
  971COC    COC  971   2.926   9.470   7.698  0.0600 -0.7748 -0.2352
  972COC    COC  972   2.941   9.178   7.581 -0.2499  0.0397  0.0152
  973COC    COC  973   3.125   9.064   7.320  0.1043 -0.0410  0.0210
  974COC    COC  974   3.382   9.042   7.285 -0.1582 -0.1109 -0.2047
  975COC    COC  975   3.458   9.217   7.036  0.6872  0.2786 -0.4445
  976COC    COC  976   3.447   9.017   6.791 -0.1194 -0.1970  0.1028
  977COC    COC  977   3.387   9.122   6.517  0.2847  0.2017  0.0424
  978COC    COC  978   3.224   9.347   6.392  0.2812 -0.2274 -0.0377
  979COC    COC  979   2.922   9.355   6.364 -0.0675 -0.0520  0.2713
  980COC    COC  980   2.647   9.370   6.215  0.0786  0.2654  0.0887
  981COC    COC  981   2.353   9.456   6.270 -0.1188 -0.1273  0.2470
  982COC    COC  982   2.093   9.550   6.425  0.2277 -0.2197 -0.0140
  983COC    COC  983   2.160   9.515   6.715 -0.0724 -0.2055 -0.0111
  984COC    COC  984   2.291   9.677   6.948  0.1754 -0.1794 -0.0810
  985COC    COC  985   2.570   9.538   7.046 -0.0821 -0.3304  0.2730
  986COC    COC  986   2.763   9.773   6.995 -0.1086  0.0504  0.2380
  987COC    COC  987   2.602  10.005   6.979 -0.0321 -0.2041  0.1124
  988COC    COC  988   2.455  10.268   6.889  0.2701 -0.3440 -0.2023
  989COC    COC  989   2.386   0.088   6.658 -0.1599  0.1147 -0.1153
  990COC    COC  990   2.075   0.054   6.574  0.3751 -0.2721  0.1514
  991COC    COC  991   1.959   0.167   6.835 -0.2618 -0.2276 -0.3519
  992COC    COC  992   2.043  10.314   7.035  0.4260 -0.1651  0.1396
  993COC    COC  993   2.197  10.073   7.134  0.2633  0.5607 -0.2821
  994COC    COC  994   2.021   9.888   7.232 -0.0717  0.1736 -0.7953
  995COC    COC  995   1.888   9.625   7.121  0.1797 -0.3681 -0.1174
  996COC    COC  996   1.702   9.391   7.197  0.3855  0.3933  0.1523
  997COC    COC  997   1.495   9.528   7.366  0.0528 -0.2243 -0.1246
  998COC    COC  998   1.333   9.308   7.487 -0.3631 -0.1089  0.2122
  999COC    COC  999   1.370   9.031   7.363  0.0267  0.0548 -0.2658
 1000COC    COC 1000   1.653   9.004   7.437  0.0885  0.1035  0.1109
 1001COC    COC 1001   1.584   8.807   7.672 -0.1958  0.0516  0.1193
 1002COC    COC 1002   1.565   8.506   7.709 -0.4346  0.1231 -0.0810
 1003COC    COC 1003   1.544   8.378   7.977  0.4510  0.0994 -0.0583
 1004COC    COC 1004   1.473   8.158   8.235  0.2784 -0.2958 -0.0334
 1005COC    COC 1005   1.450   7.874   8.314 -0.2038  0.0554  0.1779
 1006COC    COC 1006   1.645   7.639   8.408  0.0575 -0.3615 -0.2869
 1007COC    COC 1007   1.560   7.375   8.406  0.1407  0.2891  0.3746
 1008COC    COC 1008   1.329   7.216   8.473 -0.0238 -0.2677  0.0956
 1009COC    COC 1009   1.121   7.173   8.710 -0.1693 -0.2763 -0.1217
 1010COC    COC 1010   1.199   6.912   8.818 -0.3040  0.3254  0.2582
 1011COC    COC 1011   1.394   6.838   9.023  0.0712 -0.2132  0.0227
 1012COH    COH 1012   1.293   6.791   9.285 -0.1445  0.3390  0.4602
 1013COH    COH 1013  10.295   6.107   1.020  0.3593  0.2434 -0.3045
 1014COC    COC 1014  10.167   6.339   1.032 -0.1703  0.1070  0.2215
 1015COC    COC 1015  10.275   6.449   0.753  0.0938  0.1909  0.2628
 1016COC    COC 1016  10.026   6.518   0.555  0.0150  0.5530  0.0213
 1017COC    COC 1017  10.021   6.802   0.560  0.0375  0.0178  0.1343
 1018COC    COC 1018  10.221   6.882   0.789 -0.4825 -0.4017 -0.2959
 1019COC    COC 1019  10.184   6.870   1.120  0.0465  0.5352  0.3185
 1020COC    COC 1020  10.204   6.892   1.408 -0.1248 -0.4586  0.0524
 1021COC    COC 1021   0.068   6.987   1.630 -0.2477 -0.1788 -0.1133
 1022COC    COC 1022  10.320   7.257   1.724  0.0441  0.1273 -0.0932
 1023COC    COC 1023  10.040   7.380   1.775 -0.1996 -0.4899 -0.0570
 1024COC    COC 1024   9.984   7.385   2.057 -0.0262  0.4204 -0.0923
 1025COC    COC 1025   9.684   7.340   2.186 -0.1562 -0.0283  0.2228
 1026COC    COC 1026   9.448   7.547   2.208  0.4283  0.4037 -0.0426
 1027COC    COC 1027   9.206   7.352   2.293  0.0046 -0.3521  0.3700
 1028COC    COC 1028   9.097   7.302   2.005 -0.5155  0.3084 -0.1005
 1029COC    COC 1029   8.850   7.161   1.893  0.1690  0.2036 -0.1109
 1030COC    COC 1030   8.766   6.862   1.885  0.2474 -0.0161 -0.0122
 1031COC    COC 1031   8.483   6.784   1.940 -0.2833 -0.1496 -0.2388
 1032COC    COC 1032   8.429   6.606   1.672  0.2489 -0.0630 -0.1217
 1033COC    COC 1033   8.589   6.698   1.477 -0.2965 -0.0528  0.2522
 1034COC    COC 1034   8.895   6.742   1.453  0.1838 -0.4009  0.1139
 1035COC    COC 1035   9.054   6.535   1.613  0.1500 -0.0704  0.0653
 1036COC    COC 1036   8.833   6.296   1.657 -0.3447 -0.1226 -0.5014
 1037COC    COC 1037   8.608   6.181   1.482 -0.1010 -0.0879  0.1191
 1038COC    COC 1038   8.607   5.896   1.568  0.4116  0.1412  0.1971
 1039COC    COC 1039   8.642   5.633   1.428  0.0774  0.0184 -0.0173
 1040COC    COC 1040   8.443   5.374   1.508 -0.2079 -0.1078 -0.2550
 1041COC    COC 1041   8.199   5.321   1.376  0.0184  0.1342  0.2656
 1042COC    COC 1042   7.932   5.251   1.457  0.1653  0.4610 -0.0358
 1043COC    COC 1043   7.947   5.168   1.744  0.1496  0.4609  0.1479
 1044COC    COC 1044   8.211   5.095   1.817 -0.4224 -0.0280  0.2018
 1045COC    COC 1045   8.354   5.197   2.083 -0.0387 -0.2926 -0.4232
 1046COC    COC 1046   8.272   5.224   2.401  0.1421 -0.0817  0.0687
 1047COC    COC 1047   8.034   5.222   2.567 -0.1648 -0.1062  0.0070
 1048COC    COC 1048   7.735   5.183   2.597  0.1871 -0.1141 -0.0539
 1049COC    COC 1049   7.593   5.023   2.786 -0.3432  0.3134 -0.0490
 1050COC    COC 1050   7.722   4.846   3.010  0.0638 -0.3582  0.0281
 1051COC    COC 1051   8.016   4.806   2.882 -0.0089  0.3326  0.0148
 1052COC    COC 1052   8.105   4.688   2.608 -0.1666 -0.3132 -0.1007
 1053COC    COC 1053   8.029   4.380   2.593  0.2319 -0.3520  0.0624
 1054COC    COC 1054   7.809   4.339   2.353 -0.0842  0.2440 -0.0830
 1055COC    COC 1055   7.853   4.498   2.093  0.1332 -0.3154  0.1926
 1056COC    COC 1056   7.702   4.649   1.877  0.1274  0.0098 -0.1871
 1057COC    COC 1057   7.853   4.765   1.607 -0.2514 -0.2607  0.0615
 1058COH    COH 1058   7.964   4.723   1.379  0.1530  0.2550 -0.3394
 1059COH    COH 1059   9.496   3.549   1.342  0.0690  0.2129 -0.1695
 1060COC    COC 1060   9.625   3.351   1.427 -0.4190  0.2444  0.1779
 1061COC    COC 1061   9.702   3.201   1.199  0.0265 -0.5366 -0.0256
 1062COC    COC 1062   9.714   2.887   1.212  0.4332  0.0203  0.4543
 1063COC    COC 1063   9.615   2.928   1.526 -0.2202 -0.0758  0.3925
 1064COC    COC 1064   9.667   3.005   1.821 -0.1814 -0.0691  0.3210
 1065COC    COC 1065   9.930   2.863   1.959  0.0980  0.2907  0.1763
 1066COC    COC 1066  10.236   2.870   2.111  0.2089 -0.3873 -0.1564
 1067COC    COC 1067   0.216   2.822   2.133  0.0791 -0.2496 -0.0016
 1068COC    COC 1068   0.345   2.848   2.367 -0.3312  0.0498  0.1665
 1069COC    COC 1069   0.572   2.823   2.582  0.0542 -0.2048 -0.2923
 1070COC    COC 1070   0.801   2.879   2.423  0.1402 -0.1723  0.4908
 1071COC    COC 1071   1.090   2.816   2.487  0.1827 -0.0280  0.0000
 1072COC    COC 1072   1.163   2.554   2.651 -0.1088  0.0412 -0.1161
 1073COC    COC 1073   1.075   2.567   2.936 -0.1641 -0.0310 -0.5572
 1074COC    COC 1074   0.900   2.805   2.870  0.1082  0.0503 -0.1492
 1075COC    COC 1075   0.894   3.118   2.857  0.2562  0.0734  0.0743
 1076COC    COC 1076   1.073   3.288   3.107 -0.2378 -0.0651  0.1730
 1077COC    COC 1077   1.387   3.369   3.104 -0.2329 -0.4361  0.1323
 1078COC    COC 1078   1.599   3.462   2.885 -0.3672 -0.1403 -0.5116
 1079COC    COC 1079   1.732   3.308   2.657  0.1960 -0.0767 -0.1230
 1080COC    COC 1080   1.824   3.398   2.405 -0.0653 -0.2805  0.1658
 1081COC    COC 1081   1.912   3.157   2.193  0.1233  0.3298 -0.1416
 1082COC    COC 1082   1.814   3.083   1.907  0.1403  0.3211  0.1525
 1083COC    COC 1083   1.992   2.874   1.719 -0.0972 -0.0775 -0.4747
 1084COC    COC 1084   2.026   2.668   1.953  0.2588  0.1163 -0.3938
 1085COC    COC 1085   2.150   2.780   2.210  0.3157 -0.0922 -0.3325
 1086COC    COC 1086   2.230   2.600   2.454 -0.1651  0.2531 -0.4040
 1087COC    COC 1087   2.431   2.554   2.701 -0.0119 -0.2410 -0.6112
 1088COC    COC 1088   2.459   2.738   2.961  0.0441 -0.3932 -0.1970
 1089COC    COC 1089   2.281   2.915   3.112  0.0493 -0.3151  0.0580
 1090COC    COC 1090   2.211   3.200   2.966 -0.2342 -0.1820  0.0467
 1091COC    COC 1091   2.126   3.467   3.022 -0.6089 -0.4037 -0.1771
 1092COC    COC 1092   1.980   3.667   2.849  0.1600  0.1738  0.3118
 1093COC    COC 1093   2.132   3.936   2.720  0.2748 -0.1152 -0.1726
 1094COC    COC 1094   2.367   3.888   2.515 -0.1107 -0.0455 -0.0363
 1095COC    COC 1095   2.557   3.741   2.686 -0.0641  0.0955 -0.1628
 1096COC    COC 1096   2.522   3.414   2.787 -0.2497 -0.5343 -0.1622
 1097COC    COC 1097   2.796   3.400   2.624 -0.0908  0.1840 -0.2100
 1098COC    COC 1098   2.935   3.671   2.525  0.1883  0.1172 -0.1173
 1099COC    COC 1099   3.049   3.773   2.270  0.0700 -0.0766  0.2561
 1100COC    COC 1100   2.991   3.643   2.010 -0.0657 -0.6951  0.2657
 1101COC    COC 1101   2.924   3.876   1.848  0.2051 -0.4607  0.0935
 1102COC    COC 1102   3.144   4.057   1.715  0.2758 -0.0020 -0.0616
 1103COC    COC 1103   3.341   3.928   1.513  0.2212 -0.0726  0.3612
 1104COH    COH 1104   3.578   4.062   1.538 -0.3210  0.0183  0.0842
 1105COH    COH 1105   9.993   4.098   1.375  0.1509  0.0701 -0.4290
 1106COC    COC 1106  10.207   4.011   1.525  0.3742  0.0112 -0.1067
 1107COC    COC 1107   0.109   4.033   1.333  0.0252  0.3598  0.1757
 1108COC    COC 1108   0.328   4.041   1.534  0.1070 -0.1996 -0.1813
 1109COC    COC 1109   0.511   4.326   1.455  0.3305  0.1516  0.0168
 1110COC    COC 1110   0.385   4.525   1.279  0.2679 -0.0103 -0.3882
 1111COC    COC 1111   0.520   4.606   1.028  0.1675 -0.2841 -0.0540
 1112COC    COC 1112   0.498   4.850   0.902 -0.0634  0.1075  0.6800
 1113COC    COC 1113   0.322   5.087   0.871 -0.0052  0.0239  0.0099
 1114COC    COC 1114   0.119   5.208   0.655 -0.2618  0.0016  0.1998
 1115COC    COC 1115   0.177   5.475   0.512 -0.0088  0.0916  0.1828
 1116COC    COC 1116   0.163   5.525   0.207  0.0597 -0.0360 -0.1010
 1117COC    COC 1117  10.292   5.633   0.081 -0.6412  0.2406  0.2588
 1118COC    COC 1118  10.160   5.881   0.031 -0.1401 -0.1234  0.2064
 1119COC    COC 1119  10.130   6.199   0.039 -0.0918 -0.2266 -0.1432
 1120COC    COC 1120   9.868   6.289   0.033  0.0378  0.1795  0.0203
 1121COC    COC 1121   9.734   6.030   0.062  0.0387 -0.2289 -0.2367
 1122COC    COC 1122   9.669   5.774   0.207 -0.2263  0.2234  0.2995
 1123COC    COC 1123   9.836   5.595  10.329  0.0366 -0.2644  0.3854
 1124COC    COC 1124   9.783   5.365  10.146 -0.1583 -0.0335  0.0641
 1125COC    COC 1125   9.942   5.126  10.229  0.0466 -0.3436  0.1011
 1126COC    COC 1126  10.146   5.204   0.087  0.0637 -0.1698  0.0217
 1127COC    COC 1127  10.047   5.127   0.365  0.0076  0.1514 -0.1020
 1128COC    COC 1128  10.187   4.886   0.510 -0.2520  0.3637  0.4104
 1129COC    COC 1129   0.151   4.785   0.561  0.3087 -0.1634 -0.0471
 1130COC    COC 1130   0.254   4.505   0.612 -0.2513  0.2430 -0.2263
 1131COC    COC 1131   0.050   4.279   0.687 -0.0439  0.3076 -0.1458
 1132COC    COC 1132   0.207   4.027   0.663  0.1210  0.3475 -0.1033
 1133COC    COC 1133   0.104   3.875   0.973 -0.1985 -0.3651 -0.0656
 1134COC    COC 1134   0.165   3.591   0.966  0.1393  0.3011 -0.4610
 1135COC    COC 1135  10.288   3.413   0.937  0.2281 -0.0750  0.1959
 1136COC    COC 1136  10.219   3.120   1.030 -0.1205 -0.1917  0.0543
 1137COC    COC 1137  10.146   3.179   1.337  0.0276  0.1992 -0.0495
 1138COC    COC 1138   9.992   3.108   1.573  0.5169  0.0672 -0.1699
 1139COC    COC 1139   9.994   3.307   1.801  0.0952  0.0612 -0.2409
 1140COC    COC 1140   9.719   3.416   1.833 -0.2511 -0.4734 -0.2240
 1141COC    COC 1141   9.418   3.376   1.808 -0.1370  0.1614  0.1263
 1142COC    COC 1142   9.281   3.179   1.634 -0.1995  0.0357 -0.2676
 1143COC    COC 1143   9.243   3.172   1.344  0.0418  0.0628  0.0410
 1144COC    COC 1144   9.286   2.975   1.168 -0.0612  0.4318 -0.2638
 1145COC    COC 1145   9.392   3.027   0.910 -0.1146 -0.0889  0.3330
 1146COC    COC 1146   9.217   3.099   0.650  0.0095  0.1078  0.0548
 1147COC    COC 1147   9.405   3.312   0.513 -0.4787  0.1834 -0.3324
 1148COC    COC 1148   9.484   3.601   0.418 -0.1260 -0.4574  0.1741
 1149COC    COC 1149   9.632   3.827   0.578  0.0026 -0.0740 -0.0836
 1150COH    COH 1150   9.529   3.835   0.818 -0.0020  0.1828 -0.3402
 1151COH    COH 1151   4.028   6.350   5.870 -0.3383 -0.1222 -0.2089
 1152COC    COC 1152   3.806   6.197   5.892  0.0757  0.1515 -0.5293
 1153COC    COC 1153   3.851   5.928   5.699 -0.1347  0.1152  0.2039
 1154COC    COC 1154   3.587   5.851   5.674  0.4078  0.0486  0.2561
 1155COC    COC 1155   3.412   5.978   5.449 -0.0421  0.2337 -0.0249
 1156COC    COC 1156   3.382   6.271   5.493 -0.0948 -0.5734  0.1364
 1157COC    COC 1157   3.406   6.496   5.723  0.5117  0.0756 -0.4041
 1158COC    COC 1158   3.182   6.727   5.762 -0.1410 -0.8110 -0.0836
 1159COC    COC 1159   2.852   6.774   5.791  0.2572 -0.0284  0.0064
 1160COC    COC 1160   2.794   6.753   5.469  0.0821  0.0802 -0.3387
 1161COC    COC 1161   2.685   6.497   5.355 -0.2079 -0.1399  0.0396
 1162COC    COC 1162   2.502   6.252   5.361 -0.1414 -0.0997 -0.1024
 1163COC    COC 1163   2.343   6.159   5.619  0.2358 -0.1952 -0.3893
 1164COC    COC 1164   2.082   6.304   5.662 -0.1179  0.0468  0.2056
 1165COC    COC 1165   1.924   6.241   5.912 -0.1677  0.0873 -0.0037
 1166COC    COC 1166   1.677   6.069   5.922  0.1214 -0.1231  0.0546
 1167COC    COC 1167   1.441   6.251   5.820  0.1432  0.4266  0.1155
 1168COC    COC 1168   1.235   6.478   5.758 -0.1122  0.1673 -0.2910
 1169COC    COC 1169   1.144   6.755   5.659  0.1500 -0.2378  0.1108
 1170COC    COC 1170   0.893   6.956   5.573  0.0434  0.3481 -0.6234
 1171COC    COC 1171   0.838   7.189   5.773 -0.1942 -0.1029  0.1073
 1172COC    COC 1172   0.524   7.165   5.768  0.0947 -0.0907  0.3214
 1173COC    COC 1173   0.479   7.206   5.486 -0.0808 -0.0616  0.1425
 1174COC    COC 1174   0.480   7.490   5.351 -0.2184  0.0889  0.2871
 1175COC    COC 1175   0.577   7.578   5.089  0.3182 -0.0647 -0.1466
 1176COC    COC 1176   0.451   7.767   4.876  0.0965 -0.1156 -0.0588
 1177COC    COC 1177   0.329   8.032   4.779 -0.0933 -0.0405 -0.0921
 1178COC    COC 1178   0.280   8.228   5.052 -0.3837 -0.2469 -0.1872
 1179COC    COC 1179   0.079   8.054   5.213  0.2085  0.5183 -0.0517
 1180COC    COC 1180   0.136   7.771   5.260 -0.0150  0.1524  0.1330
 1181COC    COC 1181   0.043   7.687   4.985  0.1824 -0.0174  0.1549
 1182COC    COC 1182  10.213   7.848   4.786 -0.3561  0.3760  0.0328
 1183COC    COC 1183   9.914   7.816   4.870 -0.0452 -0.0191 -0.4207
 1184COC    COC 1184   9.713   7.865   4.679 -0.2658 -0.2812  0.5038
 1185COC    COC 1185   9.724   7.966   4.387 -0.6008 -0.1399  0.2654
 1186COC    COC 1186   9.674   7.856   4.103  0.2793  0.3702 -0.0207
 1187COC    COC 1187   9.836   7.704   3.869 -0.1373  0.0735  0.0258
 1188COC    COC 1188  10.092   7.481   3.899 -0.1684  0.1716  0.1028
 1189COC    COC 1189  10.197   7.361   3.631  0.0806 -0.2142  0.0375
 1190COC    COC 1190  10.009   7.260   3.428  0.0709  0.0313 -0.0805
 1191COC    COC 1191   9.918   7.003   3.239  0.0232  0.5135 -0.2658
 1192COC    COC 1192   9.621   7.046   3.204 -0.0684 -0.1089  0.4202
 1193COC    COC 1193   9.551   6.739   3.198 -0.0528 -0.0103  0.2840
 1194COC    COC 1194   9.466   6.781   2.923 -0.1996  0.4393  0.1947
 1195COC    COC 1195   9.661   6.553   2.809 -0.0709 -0.0975 -0.2385
 1196COH    COH 1196   9.911   6.624   2.864  0.4272  0.5933 -0.5406
 1197COH    COH 1197   7.129   8.731   2.862 -0.4237  0.0882 -0.5606
 1198COC    COC 1198   7.296   8.688   3.066  0.1148 -0.4018 -0.0659
 1199COC    COC 1199   7.421   8.517   3.281 -0.0031 -0.3356 -0.1922
 1200COC    COC 1200   7.558   8.544   3.543 -0.0904  0.6561 -0.5417
 1201COC    COC 1201   7.442   8.649   3.801  0.2395  0.0950 -0.3416
 1202COC    COC 1202   7.135   8.565   3.783 -0.5546 -0.0791  0.1492
 1203COC    COC 1203   7.019   8.419   3.553 -0.2178 -0.0468  0.1303
 1204COC    COC 1204   6.792   8.246   3.542 -0.0273 -0.3686  0.1368
 1205COC    COC 1205   6.590   8.473   3.536  0.0828  0.0464  0.1768
 1206COC    COC 1206   6.487   8.671   3.321  0.0193  0.1290  0.0236
 1207COC    COC 1207   6.478   8.939   3.441  0.0137  0.5406 -0.0764
 1208COC    COC 1208   6.275   9.139   3.474  0.2623  0.1470  0.0355
 1209COC    COC 1209   6.108   9.242   3.721  0.0294  0.1377 -0.2604
 1210COC    COC 1210   5.930   9.442   3.579  0.0300  0.0469 -0.1624
 1211COC    COC 1211   6.012   9.695   3.762 -0.0418 -0.0818 -0.0606
 1212COC    COC 1212   6.216   9.749   3.975  0.3892 -0.2515  0.0323
 1213COC    COC 1213   6.049   9.840   4.190  0.1240  0.2515  0.0231
 1214COC    COC 1214   6.080  10.055   4.389  0.5122  0.1061  0.1069
 1215COC    COC 1215   6.306  10.022   4.562 -0.0292 -0.2421  0.0877
 1216COC    COC 1216   6.597  10.011   4.536  0.4677 -0.1739  0.8633
 1217COC    COC 1217   6.743   9.735   4.570  0.4533 -0.0755 -0.0740
 1218COC    COC 1218   6.923   9.690   4.810  0.1722 -0.3827  0.3559
 1219COC    COC 1219   6.881   9.836   5.108 -0.0222  0.0969 -0.0274
 1220COC    COC 1220   6.652   9.815   5.281  0.0174 -0.3697 -0.4066
 1221COC    COC 1221   6.670   9.766   5.556 -0.3223 -0.0116 -0.2200
 1222COC    COC 1222   6.535   9.968   5.767 -0.2469 -0.1137 -0.2053
 1223COC    COC 1223   6.380  10.191   5.631  0.1745 -0.0295 -0.1503
 1224COC    COC 1224   6.373   0.149   5.724  0.0830  0.2536  0.0981
 1225COC    COC 1225   6.269   0.419   5.629  0.7232 -0.5045  0.3921
 1226COC    COC 1226   6.434   0.630   5.530  0.0689 -0.1696  0.1690
 1227COC    COC 1227   6.426   0.722   5.234 -0.1705 -0.2134 -0.0684
 1228COC    COC 1228   6.306   0.516   4.993  0.3488 -0.0791 -0.3712
 1229COC    COC 1229   6.428   0.243   4.829 -0.1212  0.0886 -0.2441
 1230COC    COC 1230   6.242   0.091   4.624 -0.2156 -0.0351 -0.0718
 1231COC    COC 1231   5.943   0.112   4.544 -0.2346  0.2723  0.1698
 1232COC    COC 1232   5.881   0.405   4.604 -0.2605 -0.1439 -0.3302
 1233COC    COC 1233   5.843   0.343   4.881 -0.1773  0.1748  0.1983
 1234COC    COC 1234   5.965   0.109   4.957  0.0049 -0.1651  0.0496
 1235COC    COC 1235   5.712  10.269   5.039  0.0213  0.1338 -0.3140
 1236COC    COC 1236   5.618  10.154   4.777  0.0795 -0.1903  0.4031
 1237COC    COC 1237   5.536   0.102   4.606 -0.3442 -0.2563 -0.0911
 1238COC    COC 1238   5.538   0.193   4.298 -0.1229  0.2344  0.0493
 1239COC    COC 1239   5.602  10.233   4.204  0.1284  0.0246 -0.2539
 1240COC    COC 1240   5.739  10.182   3.937  0.1943 -0.2581 -0.4194
 1241COC    COC 1241   5.728  10.108   3.665  0.2017  0.3324 -0.3788
 1242COH    COH 1242   5.657   9.857   3.580  0.4116  0.1915 -0.1816
 1243COH    COH 1243   5.414   4.490   3.085 -0.3482  0.0672 -0.2878
 1244COC    COC 1244   5.188   4.592   3.197  0.1425 -0.2847 -0.0246
 1245COC    COC 1245   5.290   4.838   3.280 -0.2678  0.0657 -0.3583
 1246COC    COC 1246   5.301   5.055   3.060 -0.0956 -0.1959  0.1019
 1247COC    COC 1247   5.166   5.327   2.977 -0.0466  0.1850  0.0007
 1248COC    COC 1248   5.228   5.432   2.682 -0.0947  0.0056  0.0488
 1249COC    COC 1249   5.463   5.266   2.571 -0.0710  0.1729 -0.1448
 1250COC    COC 1250   5.433   5.398   2.258 -0.1146 -0.2391  0.2894
 1251COC    COC 1251   5.591   5.580   2.075  0.3111 -0.3834  0.3243
 1252COC    COC 1252   5.753   5.846   2.083 -0.1558 -0.0389 -0.0616
 1253COC    COC 1253   5.596   6.060   2.219  0.2495  0.1676  0.2082
 1254COC    COC 1254   5.720   6.383   2.214  0.4829  0.0444 -0.2649
 1255COC    COC 1255   5.689   6.619   1.997  0.3874  0.1095 -0.4458
 1256COC    COC 1256   5.541   6.863   2.070 -0.3129 -0.0028 -0.0695
 1257COC    COC 1257   5.274   6.915   1.893 -0.1293 -0.2746 -0.1566
 1258COC    COC 1258   5.131   6.669   1.792  0.0459 -0.3413 -0.4917
 1259COC    COC 1259   4.868   6.647   1.939 -0.1101  0.1751  0.1433
 1260COC    COC 1260   4.759   6.691   2.202  0.1972  0.1013  0.2407
 1261COC    COC 1261   4.630   6.473   2.317  0.0393 -0.0599  0.1544
 1262COC    COC 1262   4.707   6.201   2.377 -0.1373  0.1700 -0.0777
 1263COC    COC 1263   4.932   6.049   2.515 -0.5603  0.0786  0.1657
 1264COC    COC 1264   5.201   6.162   2.478  0.0007 -0.2352  0.1019
 1265COC    COC 1265   5.480   6.234   2.609 -0.1182  0.0700 -0.1684
 1266COC    COC 1266   5.637   6.007   2.677 -0.0633  0.1338  0.0258
 1267COC    COC 1267   5.546   5.756   2.514 -0.3008  0.0733 -0.0449
 1268COC    COC 1268   5.280   5.772   2.332  0.2164 -0.3076  0.2863
 1269COC    COC 1269   5.185   5.895   2.047 -0.3353 -0.2382 -0.0326
 1270COC    COC 1270   5.202   6.168   2.001  0.1512 -0.0147  0.1601
 1271COC    COC 1271   5.438   6.229   1.849 -0.3129 -0.7402  0.2637
 1272COC    COC 1272   5.548   5.982   1.727  0.0461 -0.0621 -0.3381
 1273COC    COC 1273   5.378   5.712   1.677 -0.2156  0.1653  0.1426
 1274COC    COC 1274   5.139   5.569   1.814 -0.2169 -0.0531 -0.0023
 1275COC    COC 1275   4.867   5.640   1.651 -0.3441  0.4025 -0.1245
 1276COC    COC 1276   4.982   5.768   1.429  0.0716  0.2634  0.2849
 1277COC    COC 1277   4.900   5.968   1.219  0.1505 -0.0137 -0.0320
 1278COC    COC 1278   4.845   6.287   1.208 -0.2467 -0.1453  0.1691
 1279COC    COC 1279   5.075   6.435   1.244 -0.0156 -0.1880 -0.1497
 1280COC    COC 1280   4.968   6.628   1.412  0.0432  0.3216 -0.0839
 1281COC    COC 1281   4.722   6.596   1.525  0.1367  0.7102  0.0029
 1282COC    COC 1282   4.533   6.800   1.481 -0.3086 -0.3559  0.0859
 1283COC    COC 1283   4.449   6.992   1.235 -0.1160 -0.2032  0.3444
 1284COC    COC 1284   4.317   6.898   0.950 -0.2551 -0.3862 -0.4794
 1285COC    COC 1285   4.533   6.714   0.854  0.0603 -0.1206  0.3009
 1286COC    COC 1286   4.708   6.659   1.069 -0.1854 -0.1060  0.1398
 1287COC    COC 1287   4.885   6.892   1.077  0.2198 -0.2552 -0.1565
 1288COH    COH 1288   4.931   7.089   1.255 -0.2297  0.0472 -0.0020
 1289COH    COH 1289   1.601   5.951   9.647 -0.4008 -0.1270 -0.0121
 1290COC    COC 1290   1.760   6.126   9.526 -0.0996 -0.0985 -0.1534
 1291COC    COC 1291   2.083   6.107   9.538  0.1885 -0.2503 -0.2716
 1292COC    COC 1292   2.307   5.897   9.469  0.2367 -0.3598 -0.2657
 1293COC    COC 1293   2.509   6.011   9.240  0.0922  0.2691 -0.2059
 1294COC    COC 1294   2.556   6.280   9.184  0.2050  0.0989 -0.0596
 1295COC    COC 1295   2.863   6.368   9.215  0.2950 -0.0118  0.5282
 1296COC    COC 1296   2.898   6.049   9.079 -0.0893  0.1830 -0.1414
 1297COC    COC 1297   2.984   5.957   8.754 -0.0081  0.0107  0.0972
 1298COC    COC 1298   2.896   5.696   8.592  0.0036  0.2570  0.0108
 1299COC    COC 1299   3.117   5.493   8.565  0.1686 -0.1115 -0.3768
 1300COC    COC 1300   3.276   5.631   8.393 -0.0577  0.2516  0.4011
 1301COC    COC 1301   3.372   5.901   8.477  0.3241  0.3241  0.0011
 1302COC    COC 1302   3.161   6.121   8.393  0.0612 -0.1147 -0.0166
 1303COC    COC 1303   3.342   6.389   8.386 -0.1968 -0.0873  0.3064
 1304COC    COC 1304   3.538   6.400   8.129 -0.1633  0.2842  0.1693
 1305COC    COC 1305   3.653   6.695   8.020  0.0884 -0.4015 -0.2362
 1306COC    COC 1306   3.755   6.716   7.711 -0.0385 -0.2840 -0.0116
 1307COC    COC 1307   3.829   6.541   7.469 -0.1681 -0.3629 -0.2189
 1308COC    COC 1308   3.771   6.454   7.159 -0.0524  0.2136 -0.0435
 1309COC    COC 1309   3.905   6.574   6.914 -0.2478 -0.2200 -0.1188
 1310COC    COC 1310   4.030   6.806   7.072  0.0601  0.2285  0.5840
 1311COC    COC 1311   4.306   6.935   6.970 -0.0483  0.1179 -0.2349
 1312COC    COC 1312   4.343   7.221   7.093 -0.1081 -0.5773  0.0862
 1313COC    COC 1313   4.553   7.396   7.256  0.0247  0.1184  0.1658
 1314COC    COC 1314   4.514   7.357   7.558 -0.2574 -0.0145  0.0991
 1315COC    COC 1315   4.331   7.525   7.677 -0.0859 -0.0793 -0.1048
 1316COC    COC 1316   4.033   7.604   7.739 -0.2220 -0.1730 -0.6432
 1317COC    COC 1317   3.748   7.537   7.837  0.2287 -0.1805 -0.1819
 1318COC    COC 1318   3.512   7.513   7.620  0.2360  0.3608 -0.0382
 1319COC    COC 1319   3.331   7.260   7.498 -0.1159 -0.4173 -0.0898
 1320COC    COC 1320   3.306   7.004   7.614 -0.0462 -0.3181 -0.2382
 1321COC    COC 1321   3.020   6.969   7.728  0.2867  0.2243  0.0684
 1322COC    COC 1322   2.850   6.995   7.976 -0.2944 -0.0980 -0.4033
 1323COC    COC 1323   2.772   7.293   8.099  0.0339 -0.0014  0.1721
 1324COC    COC 1324   2.929   7.321   8.353 -0.3867 -0.0218 -0.0801
 1325COC    COC 1325   3.009   7.209   8.591 -0.1456 -0.1122 -0.3496
 1326COC    COC 1326   2.880   6.896   8.586 -0.2855  0.1251 -0.3268
 1327COC    COC 1327   2.764   6.722   8.385 -0.1257  0.2267 -0.2048
 1328COC    COC 1328   2.494   6.615   8.451 -0.0268 -0.1134  0.2710
 1329COC    COC 1329   2.372   6.480   8.704 -0.0375 -0.1996 -0.1863
 1330COC    COC 1330   2.090   6.394   8.694 -0.0013 -0.1414  0.0107
 1331COC    COC 1331   1.947   6.599   8.481  0.1978 -0.0180 -0.3138
 1332COC    COC 1332   1.789   6.415   8.323  0.2533 -0.3667  0.2026
 1333COC    COC 1333   1.688   6.226   8.089  0.0496 -0.2691  0.0125
 1334COH    COH 1334   1.725   6.271   7.849  0.3577  0.0924  0.2480
 1335COH    COH 1335   4.655   1.042   7.501  0.4936  0.1578 -0.0262
 1336COC    COC 1336   4.822   1.149   7.306  0.1154  0.1897 -0.3393
 1337COC    COC 1337   5.093   1.264   7.388 -0.2397 -0.3880 -0.0573
 1338COC    COC 1338   5.251   1.492   7.513 -0.2766  0.2513  0.8168
 1339COC    COC 1339   5.271   1.678   7.759  0.1628 -0.0789  0.4221
 1340COC    COC 1340   5.145   1.974   7.732 -0.0530  0.0651 -0.1871
 1341COC    COC 1341   4.952   2.165   7.594  0.2637  0.1360  0.0605
 1342COC    COC 1342   5.125   2.434   7.525 -0.2147  0.1130  0.3307
 1343COC    COC 1343   5.225   2.595   7.307  0.3308 -0.1162 -0.0967
 1344COC    COC 1344   5.532   2.708   7.315  0.1006  0.2542  0.2790
 1345COC    COC 1345   5.582   2.978   7.487  0.0361 -0.2150 -0.4284
 1346COC    COC 1346   5.295   3.111   7.514 -0.3707 -0.0926  0.1851
 1347COC    COC 1347   5.115   2.893   7.574 -0.0192 -0.3563  0.0539
 1348COC    COC 1348   4.884   2.965   7.743 -0.1902  0.1868 -0.1783
 1349COC    COC 1349   4.617   2.842   7.637 -0.0470 -0.1361  0.0098
 1350COC    COC 1350   4.675   2.566   7.520 -0.3147  0.0458  0.2812
 1351COC    COC 1351   4.464   2.505   7.304 -0.1438 -0.4242 -0.1719
 1352COC    COC 1352   4.292   2.293   7.177 -0.5103  0.0384 -0.0408
 1353COC    COC 1353   4.328   2.095   7.414  0.1585 -0.4388  0.1351
 1354COC    COC 1354   4.588   1.958   7.369 -0.0031  0.0504 -0.4456
 1355COC    COC 1355   4.634   1.871   7.087 -0.2814  0.4107  0.3932
 1356COC    COC 1356   4.577   2.100   6.907 -0.0101 -0.4080 -0.0096
 1357COC    COC 1357   4.333   2.149   6.740  0.4356  0.1946 -0.0932
 1358COC    COC 1358   4.304   2.140   6.410 -0.0047 -0.1445 -0.0962
 1359COC    COC 1359   4.573   2.123   6.268  0.0470 -0.3025  0.0731
 1360COC    COC 1360   4.860   2.219   6.237 -0.3398 -0.0753 -0.1492
 1361COC    COC 1361   5.081   2.196   6.076 -0.2176  0.2776 -0.1997
 1362COC    COC 1362   5.082   2.382   5.854  0.3405  0.3085 -0.0618
 1363COC    COC 1363   4.799   2.407   5.787  0.2859 -0.2922 -0.1172
 1364COC    COC 1364   4.766   2.713   5.756 -0.0040 -0.2824 -0.1016
 1365COC    COC 1365   4.751   2.932   5.958 -0.0081  0.0472 -0.5043
 1366COC    COC 1366   5.037   3.101   5.962  0.2105  0.6346 -0.2032
 1367COC    COC 1367   5.208   3.075   6.213 -0.2936 -0.2009 -0.2063
 1368COC    COC 1368   5.477   3.103   6.309  0.2401 -0.1170  0.1489
 1369COC    COC 1369   5.484   3.155   6.639  0.0601 -0.1095 -0.3569
 1370COC    COC 1370   5.153   3.171   6.711 -0.0708  0.2941  0.1732
 1371COC    COC 1371   4.984   2.924   6.681  0.1430 -0.0808  0.0792
 1372COC    COC 1372   5.180   2.702   6.801 -0.1655 -0.0245 -0.1930
 1373COC    COC 1373   5.327   2.437   6.795  0.1401 -0.0879  0.3278
 1374COC    COC 1374   5.241   2.231   6.984  0.3919  0.1914 -0.0535
 1375COC    COC 1375   5.220   1.947   6.878  0.2410 -0.1303  0.4739
 1376COC    COC 1376   4.952   1.963   6.756 -0.2257 -0.1109 -0.0151
 1377COC    COC 1377   4.974   2.231   6.654  0.0481 -0.1588  0.4164
 1378COC    COC 1378   4.699   2.364   6.608 -0.1644 -0.2787 -0.1330
 1379COC    COC 1379   4.710   2.629   6.775 -0.0819 -0.1018  0.0614
 1380COH    COH 1380   4.534   2.682   6.927  0.0587  0.2785  0.0581
 1381COH    COH 1381   9.923   1.163   5.520  0.5011 -0.1221 -0.3815
 1382COC    COC 1382  10.164   1.193   5.619  0.0198  0.0384 -0.0122
 1383COC    COC 1383  10.130   1.440   5.836 -0.3023  0.0534  0.1328
 1384COC    COC 1384  10.090   1.709   5.890 -0.4249 -0.0121  0.0132
 1385COC    COC 1385  10.207   1.741   6.185  0.2559 -0.2631 -0.3286
 1386COC    COC 1386  10.122   2.052   6.142  0.1026 -0.2926  0.1518
 1387COC    COC 1387   0.081   2.164   6.095  0.2283 -0.0619 -0.0704
 1388COC    COC 1388   0.112   2.248   5.809 -0.0266 -0.2030  0.3060
 1389COC    COC 1389   0.302   2.237   5.562  0.1079  0.2871  0.1423
 1390COC    COC 1390   0.601   2.318   5.641 -0.0008 -0.0638  0.4174
 1391COC    COC 1391   0.694   2.581   5.496 -0.1103  0.0287 -0.3099
 1392COC    COC 1392   0.835   2.636   5.216 -0.2722 -0.0167 -0.2861
 1393COC    COC 1393   0.793   2.393   5.019  0.2104  0.0547  0.1436
 1394COC    COC 1394   0.612   2.175   5.137 -0.2743 -0.0818 -0.0026
 1395COC    COC 1395   0.668   1.903   5.061 -0.3117  0.1942  0.5585
 1396COC    COC 1396   0.487   1.941   4.827 -0.0398 -0.2125  0.1667
 1397COC    COC 1397   0.306   2.186   4.793  0.0555 -0.0937  0.1344
 1398COC    COC 1398   0.105   2.251   4.598  0.1033  0.1065  0.1415
 1399COC    COC 1399   0.287   2.367   4.369  0.0637 -0.0783  0.0689
 1400COC    COC 1400   0.424   2.148   4.224 -0.1140  0.1677 -0.1947
 1401COC    COC 1401   0.518   1.859   4.306  0.4167 -0.0937 -0.0962
 1402COC    COC 1402   0.370   1.619   4.379 -0.1795  0.2791 -0.0438
 1403COC    COC 1403   0.278   1.569   4.647  0.2235 -0.2890  0.2326
 1404COC    COC 1404   0.092   1.744   4.794 -0.2258  0.0306  0.3966
 1405COC    COC 1405  10.291   1.537   4.983  0.0989  0.1448  0.1242
 1406COC    COC 1406  10.089   1.703   5.117 -0.0076  0.2256  0.1993
 1407COC    COC 1407   9.814   1.834   5.221 -0.0647  0.3120 -0.2450
 1408COC    COC 1408   9.699   1.596   5.415  0.7159 -0.1726 -0.0078
 1409COC    COC 1409   9.665   1.302   5.316  0.1425 -0.0608 -0.2347
 1410COC    COC 1410   9.574   1.040   5.511  0.0906  0.2798  0.3869
 1411COC    COC 1411   9.422   0.894   5.691 -0.1938 -0.1128  0.3227
 1412COC    COC 1412   9.374   0.971   5.999 -0.1024 -0.4114  0.4456
 1413COC    COC 1413   9.590   0.969   6.248 -0.1687  0.1295  0.3065
 1414COC    COC 1414   9.842   0.798   6.312  0.0830  0.1695  0.3266
 1415COC    COC 1415  10.110   0.595   6.296  0.0759 -0.5017 -0.3653
 1416COC    COC 1416  10.112   0.358   6.493 -0.2105 -0.1747 -0.1559
 1417COC    COC 1417  10.212   0.156   6.299  0.2185  0.3512 -0.4392
 1418COC    COC 1418  10.080  10.214   6.349  0.2515 -0.1106  0.2546
 1419COC    COC 1419   9.905  10.235   6.599 -0.0144  0.3188 -0.2903
 1420COC    COC 1420   9.948  10.087   6.848 -0.2556 -0.0316 -0.3732
 1421COC    COC 1421   9.745  10.094   7.091 -0.1904  0.4256 -0.0302
 1422COC    COC 1422   9.808  10.056   7.378  0.0788 -0.0654  0.0371
 1423COC    COC 1423   9.884   9.813   7.567  0.1367  0.0378 -0.4552
 1424COC    COC 1424   9.989   9.862   7.818  0.5421  0.0833  0.0937
 1425COC    COC 1425   9.800   9.716   8.017 -0.0198 -0.1927  0.0256
 1426COH    COH 1426   9.901   9.618   8.255 -0.3671  0.1982 -0.0720
 1427COH    COH 1427   3.556   4.280   7.207  0.2076  0.0424  0.2488
 1428COC    COC 1428   3.321   4.127   7.194 -0.0915  0.4876 -0.0829
 1429COC    COC 1429   3.301   3.865   7.059  0.0841 -0.0547 -0.2757
 1430COC    COC 1430   3.054   3.751   7.168 -0.1683  0.0171 -0.2019
 1431COC    COC 1431   2.972   3.615   7.416  0.1261  0.1079  0.0785
 1432COC    COC 1432   3.122   3.731   7.635  0.1868 -0.1616  0.0703
 1433COC    COC 1433   3.180   4.024   7.571  0.1150  0.2594  0.0035
 1434COC    COC 1434   2.918   4.102   7.416 -0.3111  0.2034  0.2125
 1435COC    COC 1435   2.893   4.380   7.396  0.1019 -0.2967  0.0658
 1436COC    COC 1436   2.938   4.632   7.538 -0.1918 -0.0130 -0.1218
 1437COC    COC 1437   2.871   4.571   7.826 -0.0972 -0.1586  0.1915
 1438COC    COC 1438   2.658   4.556   8.045  0.2580 -0.0170 -0.2899
 1439COC    COC 1439   2.693   4.374   8.289  0.1185  0.1419  0.2209
 1440COC    COC 1440   2.854   4.305   8.545  0.2912 -0.3528 -0.0057
 1441COC    COC 1441   2.900   4.024   8.632  0.1950 -0.0969 -0.3681
 1442COC    COC 1442   3.020   3.819   8.814 -0.4755 -0.0607 -0.0126
 1443COC    COC 1443   3.193   3.539   8.788  0.0171 -0.2438 -0.7373
 1444COC    COC 1444   3.010   3.281   8.887 -0.0048  0.1974  0.0769
 1445COC    COC 1445   2.997   3.027   8.706 -0.0296 -0.2353 -0.2862
 1446COC    COC 1446   3.055   2.782   8.870 -0.2045  0.1102 -0.4933
 1447COC    COC 1447   2.846   2.522   8.792 -0.2066  0.0623 -0.2766
 1448COC    COC 1448   2.818   2.385   8.521 -0.1196 -0.1008 -0.2502
 1449COC    COC 1449   2.594   2.233   8.467 -0.3334  0.0849 -0.3074
 1450COC    COC 1450   2.398   2.019   8.523 -0.1764 -0.0956  0.4618
 1451COC    COC 1451   2.403   1.815   8.344  0.3435 -0.1387  0.4910
 1452COC    COC 1452   2.185   1.677   8.189 -0.1567  0.0528  0.0428
 1453COC    COC 1453   2.239   1.656   7.905 -0.0031 -0.2238  0.0300
 1454COC    COC 1454   2.562   1.645   7.924 -0.2619 -0.2023 -0.0419
 1455COC    COC 1455   2.594   1.787   7.681 -0.0215 -0.0933  0.2141
 1456COC    COC 1456   2.529   1.862   7.399  0.1499 -0.1701  0.0442
 1457COC    COC 1457   2.504   2.164   7.385 -0.1103 -0.2649 -0.0788
 1458COC    COC 1458   2.784   2.285   7.321 -0.0408  0.5775  0.0495
 1459COC    COC 1459   2.809   2.585   7.382  0.6766  0.0111 -0.0252
 1460COC    COC 1460   2.855   2.789   7.183  0.3053 -0.0912 -0.1369
 1461COC    COC 1461   3.094   2.834   6.991  0.2779  0.1601  0.0473
 1462COC    COC 1462   3.384   2.955   6.980 -0.0067 -0.2071 -0.1279
 1463COC    COC 1463   3.562   2.728   6.984 -0.1092 -0.4205 -0.1836
 1464COC    COC 1464   3.619   2.655   7.269  0.3004 -0.1087 -0.1328
 1465COC    COC 1465   3.784   2.865   7.448 -0.2967 -0.4265  0.1966
 1466COC    COC 1466   3.641   3.046   7.626  0.0968 -0.2250 -0.0934
 1467COC    COC 1467   3.784   3.185   7.813  0.3025  0.1020 -0.1541
 1468COC    COC 1468   3.894   3.439   7.854 -0.4504  0.0380 -0.1516
 1469COC    COC 1469   3.834   3.702   7.736  0.0840  0.0957  0.1446
 1470COC    COC 1470   4.061   3.848   7.536 -0.0236 -0.1045 -0.2723
 1471COC    COC 1471   4.154   4.085   7.738 -0.2254  0.1502  0.0645
 1472COH    COH 1472   4.189   3.985   7.983 -0.3881 -0.3990 -0.5101
 1473COH    COH 1473   8.127   1.250   9.252  0.3742 -0.1190 -0.0760
 1474COC    COC 1474   8.006   1.404   9.426 -0.2743 -0.5324 -0.1863
 1475COC    COC 1475   8.147   1.614   9.624 -0.0510 -0.0813  0.3434
 1476COC    COC 1476   7.996   1.862   9.486 -0.0537 -0.1414  0.0842
 1477COC    COC 1477   8.093   2.079   9.298  0.2708  0.2136 -0.3111
 1478COC    COC 1478   7.956   2.294   9.422 -0.1453 -0.2548 -0.3021
 1479COC    COC 1479   7.751   2.528   9.284  0.2706  0.1071 -0.1476
 1480COC    COC 1480   7.827   2.787   9.378  0.4081 -0.1679  0.1386
 1481COC    COC 1481   7.859   2.956   9.651 -0.0239  0.1794  0.0019
 1482COC    COC 1482   7.599   2.936   9.874  0.0075 -0.3122  0.2670
 1483COC    COC 1483   7.488   3.088  10.142  0.1758  0.2784  0.1691
 1484COC    COC 1484   7.609   3.329  10.255  0.0596 -0.1484  0.3746
 1485COC    COC 1485   7.471   3.446   0.157  0.3727  0.2279 -0.0958
 1486COC    COC 1486   7.597   3.326   0.385 -0.0396  0.4453 -0.2773
 1487COC    COC 1487   7.374   3.292   0.575 -0.0564  0.5656 -0.4141
 1488COC    COC 1488   7.125   3.233   0.378 -0.1766  0.2445  0.1804
 1489COC    COC 1489   7.018   3.008   0.210  0.6699 -0.1272 -0.1651
 1490COC    COC 1490   6.939   2.720   0.302  0.0169  0.3628  0.2038
 1491COC    COC 1491   7.147   2.528   0.309 -0.3265 -0.0920 -0.0051
 1492COC    COC 1492   7.081   2.276   0.230 -0.3252  0.0748  0.1469
 1493COC    COC 1493   7.171   2.224  10.253 -0.3541 -0.0030  0.0487
 1494COC    COC 1494   7.419   2.056  10.165 -0.1572  0.1231 -0.2509
 1495COC    COC 1495   7.406   1.964   9.881 -0.0218  0.1472  0.0999
 1496COC    COC 1496   7.104   1.859   9.847  0.1401 -0.4736  0.0577
 1497COC    COC 1497   6.871   1.973  10.011  0.0635  0.1537 -0.1804
 1498COC    COC 1498   6.630   1.850  10.108 -0.0938 -0.0371  0.0104
 1499COC    COC 1499   6.743   1.581  10.039 -0.3156 -0.0902  0.0729
 1500COC    COC 1500   6.579   1.419   9.845 -0.3810 -0.2323  0.3829
 1501COC    COC 1501   6.409   1.436   9.601 -0.2298 -0.0251  0.1529
 1502COC    COC 1502   6.376   1.235   9.413 -0.2749  0.1014 -0.3528
 1503COC    COC 1503   6.283   1.169   9.139 -0.1947  0.1876  0.2586
 1504COC    COC 1504   6.028   1.220   8.990 -0.0094 -0.3255 -0.0540
 1505COC    COC 1505   5.943   1.150   8.707  0.3517  0.0517  0.1331
 1506COC    COC 1506   5.928   1.324   8.463  0.0813 -0.0730 -0.0811
 1507COC    COC 1507   5.940   1.521   8.222 -0.0066  0.2487  0.0675
 1508COC    COC 1508   5.901   1.784   8.056 -0.2318 -0.3611 -0.3213
 1509COC    COC 1509   5.748   2.063   8.139 -0.2703  0.0131  0.0694
 1510COC    COC 1510   5.459   2.168   8.299 -0.1798 -0.1272  0.2745
 1511COC    COC 1511   5.293   2.431   8.161  0.1113  0.1754  0.0754
 1512COC    COC 1512   5.136   2.328   7.924  0.3103 -0.0446 -0.1826
 1513COC    COC 1513   4.935   2.589   7.896 -0.0745  0.1910 -0.0217
 1514COC    COC 1514   4.790   2.501   8.126  0.0538  0.2040 -0.1328
 1515COC    COC 1515   4.879   2.366   8.392 -0.4135 -0.0101  0.4302
 1516COC    COC 1516   4.732   2.087   8.476 -0.1610 -0.0182  0.1723
 1517COC    COC 1517   4.459   1.899   8.443 -0.0284 -0.1892 -0.3752
 1518COH    COH 1518   4.527   1.831   8.190  0.3109  0.2511  0.0737
 1519COH    COH 1519   8.065   1.716   4.259  0.2126  0.1212 -0.1961
 1520COC    COC 1520   8.287   1.749   4.401 -0.1613 -0.5609  0.0588
 1521COC    COC 1521   8.381   2.031   4.446  0.0684 -0.1948  0.1029
 1522COC    COC 1522   8.636   2.035   4.612 -0.3375 -0.0443  0.2852
 1523COC    COC 1523   8.800   2.300   4.716 -0.2676 -0.2334 -0.0592
 1524COC    COC 1524   8.912   2.550   4.611  0.2754 -0.1742 -0.0994
 1525COC    COC 1525   9.090   2.735   4.711  0.3000 -0.2184  0.2061
 1526COC    COC 1526   9.232   2.805   4.992 -0.1758  0.5731  0.2819
 1527COC    COC 1527   9.164   2.711   5.303  0.1205  0.1043  0.6968
 1528COC    COC 1528   8.908   2.526   5.406  0.1005 -0.0989 -0.1985
 1529COC    COC 1529   8.948   2.756   5.637  0.2775  0.1342 -0.1210
 1530COC    COC 1530   8.950   2.838   5.936  0.2169  0.2400  0.0832
 1531COC    COC 1531   9.092   2.743   6.179  0.1134 -0.2514 -0.0432
 1532COC    COC 1532   8.985   2.726   6.458 -0.0220  0.4536 -0.5827
 1533COC    COC 1533   9.190   2.510   6.595  0.0165  0.0181 -0.1689
 1534COC    COC 1534   9.209   2.439   6.873 -0.4705  0.0515 -0.2829
 1535COC    COC 1535   9.267   2.121   6.812  0.0039 -0.0380 -0.1768
 1536COC    COC 1536   9.405   1.997   6.568  0.2119 -0.1326  0.3206
 1537COC    COC 1537   9.566   2.267   6.564  0.2562 -0.0080  0.0203
 1538COC    COC 1538   9.664   2.332   6.842  0.2298  0.5229  0.4126
 1539COC    COC 1539   9.639   2.116   7.069 -0.3792 -0.0962 -0.1935
 1540COC    COC 1540   9.893   1.991   7.135 -0.4431 -0.0235 -0.0133
 1541COC    COC 1541  10.072   2.122   6.958 -0.0230  0.0419  0.3595
 1542COC    COC 1542  10.185   2.401   6.941 -0.2529  0.0508 -0.1464
 1543COC    COC 1543  10.047   2.651   6.811  0.1525 -0.0773 -0.0328
 1544COC    COC 1544  10.209   2.737   6.596  0.0297  0.4511  0.0163
 1545COC    COC 1545  10.024   2.804   6.327 -0.2936  0.2866 -0.1262
 1546COC    COC 1546   9.758   2.616   6.306 -0.2082 -0.3913  0.4498
 1547COC    COC 1547   9.468   2.551   6.212 -0.3626 -0.0379  0.3962
 1548COC    COC 1548   9.328   2.554   5.969 -0.2463 -0.3089 -0.2692
 1549COC    COC 1549   9.248   2.258   5.931 -0.2126 -0.3221  0.4495
 1550COC    COC 1550   9.179   2.215   6.205 -0.1374 -0.2556 -0.0675
 1551COC    COC 1551   8.912   2.067   6.184  0.3036 -0.5015  0.0667
 1552COC    COC 1552   8.632   1.948   6.227  0.3569  0.0724 -0.3649
 1553COC    COC 1553   8.643   1.672   6.126  0.0185  0.1941 -0.1050
 1554COC    COC 1554   8.766   1.768   5.869  0.1681 -0.3537 -0.3035
 1555COC    COC 1555   8.756   1.576   5.658  0.1499  0.2809 -0.2427
 1556COC    COC 1556   8.522   1.442   5.537  0.3220  0.3129 -0.2936
 1557COC    COC 1557   8.304   1.602   5.398  0.0288  0.0884 -0.1486
 1558COC    COC 1558   8.088   1.378   5.454 -0.3300  0.2233  0.3441
 1559COC    COC 1559   8.150   1.124   5.291  0.1525  0.1212  0.0669
 1560COC    COC 1560   8.074   0.990   5.061 -0.3381  0.3651 -0.5060
 1561COC    COC 1561   8.119   1.169   4.830 -0.2451 -0.1176  0.4481
 1562COC    COC 1562   8.395   1.202   4.643  0.0359  0.1812  0.0334
 1563COC    COC 1563   8.341   1.344   4.391 -0.0081  0.0154  0.0227
 1564COH    COH 1564   8.516   1.308   4.184  0.5817 -0.4320  0.2844
 1565COH    COH 1565   7.060   6.178   4.661  0.0692  0.3854  0.1376
 1566COC    COC 1566   7.020   6.364   4.488 -0.1870 -0.0031 -0.0728
 1567COC    COC 1567   7.322   6.518   4.477 -0.1402 -0.1849  0.2001
 1568COC    COC 1568   7.218   6.770   4.359  0.2488 -0.2906  0.3117
 1569COC    COC 1569   7.144   6.800   4.032 -0.4293  0.0423 -0.3159
 1570COC    COC 1570   7.038   6.504   3.971 -0.0150  0.0388 -0.1509
 1571COC    COC 1571   7.087   6.207   4.025 -0.7571 -0.2429  0.2297
 1572COC    COC 1572   7.350   6.126   4.234 -0.2762 -0.0133  0.1383
 1573COC    COC 1573   7.602   6.212   4.101 -0.0337  0.6839  0.1096
 1574COC    COC 1574   7.694   6.446   4.163 -0.1113  0.0890  0.2816
 1575COC    COC 1575   7.894   6.528   3.958  0.1021 -0.4246 -0.1025
 1576COC    COC 1576   8.041   6.260   3.865 -0.1621  0.0510 -0.3866
 1577COC    COC 1577   8.215   6.033   4.007  0.1407 -0.0547  0.0346
 1578COC    COC 1578   8.261   5.758   3.885 -0.1069 -0.1116 -0.1311
 1579COC    COC 1579   8.404   5.708   3.596  0.1328  0.1656 -0.0694
 1580COC    COC 1580   8.334   5.801   3.335  0.2315 -0.1511  0.0098
 1581COC    COC 1581   8.133   5.748   3.127  0.0179  0.0932  0.1635
 1582COC    COC 1582   7.904   5.560   3.171  0.2078  0.1117  0.2400
 1583COC    COC 1583   7.700   5.496   2.974  0.1306 -0.0616  0.1267
 1584COC    COC 1584   7.551   5.666   2.742  0.1229  0.0048 -0.0313
 1585COC    COC 1585   7.347   5.791   2.949 -0.3099 -0.0233  0.1679
 1586COC    COC 1586   7.098   5.946   2.908  0.0463 -0.0344  0.4055
 1587COC    COC 1587   6.891   6.066   2.737  0.2025 -0.1440 -0.3133
 1588COC    COC 1588   6.609   5.995   2.748  0.0268 -0.2577  0.2803
 1589COC    COC 1589   6.346   6.142   2.792 -0.2000 -0.1675 -0.7488
 1590COC    COC 1590   6.463   6.437   2.847  0.5545 -0.3495  0.0379
 1591COC    COC 1591   6.340   6.638   2.672 -0.1892  0.4352  0.1550
 1592COC    COC 1592   6.410   6.775   2.371 -0.1158  0.0311 -0.2654
 1593COC    COC 1593   6.467   7.038   2.297 -0.0948  0.0882 -0.2380
 1594COC    COC 1594   6.564   7.089   2.028 -0.4456 -0.0703  0.1183
 1595COC    COC 1595   6.644   7.388   1.983  0.1349 -0.1910 -0.1300
 1596COC    COC 1596   6.967   7.444   2.026  0.2606 -0.1347 -0.1014
 1597COC    COC 1597   7.184   7.496   2.211 -0.0079 -0.4099  0.1385
 1598COC    COC 1598   7.069   7.615   2.450  0.2094 -0.2837 -0.0198
 1599COC    COC 1599   6.968   7.365   2.605 -0.1262 -0.0554  0.0418
 1600COC    COC 1600   6.714   7.157   2.650 -0.3800 -0.1640 -0.2905
 1601COC    COC 1601   6.834   6.892   2.762  0.1730  0.1183 -0.0543
 1602COC    COC 1602   6.789   6.863   3.079  0.4334 -0.1626  0.0302
 1603COC    COC 1603   6.597   6.687   3.197  0.0247  0.1577  0.1507
 1604COC    COC 1604   6.456   6.474   3.244 -0.0155  0.0235  0.0909
 1605COC    COC 1605   6.483   6.292   3.494 -0.1160 -0.2263 -0.2651
 1606COC    COC 1606   6.590   6.205   3.785 -0.2943 -0.0030  0.0465
 1607COC    COC 1607   6.621   6.359   3.995  0.1280  0.0484  0.1528
 1608COC    COC 1608   6.708   6.227   4.245 -0.1311 -0.0618 -0.1202
 1609COC    COC 1609   6.742   5.969   4.366  0.2797 -0.2103  0.3189
 1610COH    COH 1610   7.001   5.898   4.258  0.2918 -0.3053  0.3630
 1611COH    COH 1611   0.531   0.758   6.562 -0.3377 -0.4449  0.4814
 1612COC    COC 1612   0.447   0.829   6.805  0.0390 -0.1482  0.2754
 1613COC    COC 1613   0.626   0.781   7.068  0.0699 -0.1700  0.0235
 1614COC    COC 1614   0.417   0.761   7.299  0.1638 -0.1414  0.0486
 1615COC    COC 1615   0.512   0.992   7.512  0.3917 -0.1347 -0.1276
 1616COC    COC 1616   0.498   1.280   7.455  0.2892  0.1235  0.3796
 1617COC    COC 1617   0.631   1.476   7.604  0.4131 -0.7068 -0.0390
 1618COC    COC 1618   0.434   1.682   7.702 -0.4355 -0.1478 -0.1548
 1619COC    COC 1619   0.292   1.876   7.493 -0.0825  0.1123 -0.2140
 1620COC    COC 1620  10.332   1.824   7.398  0.0573  0.0021 -0.4096
 1621COC    COC 1621  10.293   2.146   7.319 -0.3036 -0.0841  0.0501
 1622COC    COC 1622  10.008   2.305   7.373  0.1163  0.3666  0.0115
 1623COC    COC 1623   9.963   2.636   7.332 -0.6557  0.0396 -0.0460
 1624COC    COC 1624   9.854   2.923   7.380  0.1968 -0.1117  0.1025
 1625COC    COC 1625   9.708   3.066   7.620  0.0963  0.1188 -0.0045
 1626COC    COC 1626   9.899   3.337   7.683 -0.1670 -0.4324 -0.1048
 1627COC    COC 1627   9.850   3.419   7.982  0.0124 -0.1735 -0.1336
 1628COC    COC 1628   9.824   3.446   8.274 -0.0530 -0.2756  0.0622
 1629COC    COC 1629   9.759   3.236   8.478  0.0410 -0.2627  0.1130
 1630COC    COC 1630   9.882   3.165   8.768 -0.1688 -0.2310  0.1843
 1631COC    COC 1631  10.049   2.969   8.979 -0.1170 -0.4476 -0.0256
 1632COC    COC 1632  10.003   2.712   9.113 -0.7799 -0.0820 -0.0565
 1633COC    COC 1633   9.920   2.485   8.949 -0.1607 -0.4679  0.0390
 1634COC    COC 1634   9.798   2.261   9.099  0.0518 -0.0510 -0.2217
 1635COC    COC 1635   9.618   2.073   9.241 -0.0121  0.2682 -0.4186
 1636COC    COC 1636   9.499   1.909   8.994 -0.0401  0.0969 -0.0517
 1637COC    COC 1637   9.634   1.843   8.697 -0.1756 -0.1021 -0.2132
 1638COC    COC 1638   9.716   1.572   8.560  0.2564  0.0859  0.1919
 1639COC    COC 1639   9.554   1.290   8.551 -0.1112 -0.3572 -0.2966
 1640COC    COC 1640   9.585   1.174   8.285 -0.0633 -0.1271  0.4147
 1641COC    COC 1641   9.483   1.131   8.012  0.1474 -0.3152  0.3005
 1642COC    COC 1642   9.646   1.210   7.742 -0.2761 -0.2619  0.3584
 1643COC    COC 1643   9.590   1.474   7.626 -0.2233 -0.2624 -0.0388
 1644COC    COC 1644   9.491   1.688   7.792 -0.1254  0.0053 -0.4276
 1645COC    COC 1645   9.214   1.750   7.728  0.0415 -0.1811  0.0542
 1646COC    COC 1646   9.167   1.917   7.483 -0.1767  0.5229 -0.2695
 1647COC    COC 1647   9.212   2.127   7.281  0.7266  0.0844 -0.1659
 1648COC    COC 1648   9.134   2.378   7.470 -0.1828  0.0403  0.1726
 1649COC    COC 1649   9.032   2.654   7.306 -0.2441  0.0941  0.2316
 1650COC    COC 1650   8.755   2.764   7.184 -0.3137 -0.3560  0.1774
 1651COC    COC 1651   8.485   2.910   7.099  0.0361  0.1050 -0.0025
 1652COC    COC 1652   8.345   3.182   7.225  0.3777 -0.0856  0.0029
 1653COC    COC 1653   8.104   3.264   7.396  0.0830  0.2032 -0.1116
 1654COC    COC 1654   7.884   3.481   7.352 -0.1837  0.1360  0.0461
 1655COC    COC 1655   7.595   3.445   7.275  0.1458 -0.0190 -0.4581
 1656COH    COH 1656   7.508   3.261   7.381  0.4263  0.0450 -0.2788
 1657COH    COH 1657   6.119   8.936   2.718  0.1992  0.1886 -0.0410
 1658COC    COC 1658   6.222   8.905   2.977  0.1051  0.2390  0.0185
 1659COC    COC 1659   6.029   8.736   3.098  0.1404  0.1476  0.1979
 1660COC    COC 1660   5.784   8.684   2.911 -0.2496  0.4942  0.1758
 1661COC    COC 1661   5.662   8.457   2.744  0.1582 -0.2525  0.2999
 1662COC    COC 1662   5.494   8.327   2.956 -0.2563 -0.1638 -0.1252
 1663COC    COC 1663   5.379   8.531   3.144 -0.1997  0.0258  0.0408
 1664COC    COC 1664   5.087   8.565   3.216 -0.0213  0.3914 -0.3736
 1665COC    COC 1665   4.996   8.632   3.543 -0.2546 -0.0108  0.3415
 1666COC    COC 1666   4.939   8.600   3.809  0.3821  0.3835 -0.5713
 1667COC    COC 1667   4.927   8.409   4.041  0.3563  0.3001 -0.1266
 1668COC    COC 1668   5.043   8.195   4.162  0.0666 -0.0606  0.1231
 1669COC    COC 1669   4.973   7.972   3.990  0.0981 -0.3492  0.3321
 1670COC    COC 1670   4.754   7.736   3.962  0.1416  0.0057  0.3204
 1671COC    COC 1671   4.885   7.717   3.677  0.2317 -0.0099 -0.1728
 1672COC    COC 1672   4.929   7.585   3.392 -0.2133 -0.0885  0.2893
 1673COC    COC 1673   5.129   7.539   3.160 -0.2002 -0.0399 -0.1381
 1674COC    COC 1674   5.283   7.272   3.213 -0.1540 -0.0789  0.3668
 1675COC    COC 1675   5.285   7.041   3.390 -0.1172 -0.0861  0.0401
 1676COC    COC 1676   5.070   6.896   3.253  0.1138  0.2081  0.1872
 1677COC    COC 1677   5.080   6.625   3.442 -0.0358 -0.3203  0.0755
 1678COC    COC 1678   5.124   6.690   3.721 -0.0790 -0.1658 -0.0029
 1679COC    COC 1679   4.943   6.911   3.873  0.0531  0.0282  0.4223
 1680COC    COC 1680   4.650   6.885   3.791 -0.1310  0.1550 -0.0290
 1681COC    COC 1681   4.689   6.936   3.517 -0.2251  0.1782 -0.0451
 1682COC    COC 1682   4.669   6.674   3.347 -0.1926 -0.5300  0.0276
 1683COC    COC 1683   4.367   6.662   3.290  0.0219  0.2166  0.3405
 1684COC    COC 1684   4.286   6.456   3.484  0.0229 -0.1194 -0.0561
 1685COC    COC 1685   4.210   6.529   3.758 -0.3875 -0.0832 -0.3026
 1686COC    COC 1686   4.399   6.605   3.971 -0.1670 -0.2708  0.3632
 1687COC    COC 1687   4.354   6.876   4.131  0.2504  0.0518 -0.3372
 1688COC    COC 1688   4.254   7.183   4.173  0.2502  0.1958 -0.2297
 1689COC    COC 1689   4.350   7.442   4.318  0.2632  0.1957  0.1066
 1690COC    COC 1690   4.367   7.601   4.061  0.0579  0.6745  0.1260
 1691COC    COC 1691   4.202   7.471   3.827 -0.1178  0.0736 -0.4755
 1692COC    COC 1692   3.997   7.350   3.717  0.2695  0.4262  0.1374
 1693COC    COC 1693   3.978   7.255   3.425  0.0376 -0.3900 -0.2018
 1694COC    COC 1694   3.906   6.961   3.366  0.1675  0.1390  0.1215
 1695COC    COC 1695   3.896   6.636   3.415 -0.1024  0.0200 -0.4599
 1696COC    COC 1696   3.858   6.341   3.373 -0.1762  0.0982 -0.1290
 1697COC    COC 1697   3.622   6.255   3.467  0.3259 -0.1717  0.0879
 1698COC    COC 1698   3.385   6.254   3.290 -0.1127  0.0392  0.3451
 1699COC    COC 1699   3.554   6.362   3.014  0.3072 -0.2780 -0.6736
 1700COC    COC 1700   3.428   6.491   2.833 -0.0061  0.2412 -0.1209
 1701COC    COC 1701   3.504   6.455   2.539  0.1547  0.2711  0.2869
 1702COH    COH 1702   3.720   6.622   2.542  0.1299 -0.0863 -0.1482
 1703COH    COH 1703   0.713   0.342   1.590 -0.0342  0.1985  0.0081
 1704COC    COC 1704   0.496   0.486   1.491 -0.1488  0.0552  0.0609
 1705COC    COC 1705   0.461   0.254   1.252  0.1353  0.0280 -0.1331
 1706COC    COC 1706   0.319   0.253   0.987  0.0539 -0.0760 -0.0191
 1707COC    COC 1707   0.269   0.040   0.773  0.3012  0.3395  0.3576
 1708COC    COC 1708  10.324   0.162   0.690  0.5442 -0.0321 -0.3622
 1709COC    COC 1709  10.219   0.345   0.893  0.0561  0.0504 -0.0862
 1710COC    COC 1710  10.287   0.613   1.001 -0.2200 -0.1928  0.0143
 1711COC    COC 1711  10.204   0.887   0.941 -0.2376 -0.3279  0.4136
 1712COC    COC 1712  10.160   1.047   1.203  0.0607  0.2497  0.2838
 1713COC    COC 1713  10.286   1.302   1.371  0.2460  0.3378  0.3970
 1714COC    COC 1714   0.128   1.421   1.562 -0.0912  0.1382 -0.1605
 1715COC    COC 1715   0.332   1.275   1.732  0.1277 -0.0312 -0.1064
 1716COC    COC 1716   0.618   1.243   1.628  0.0694  0.0421  0.1199
 1717COC    COC 1717   0.798   1.382   1.772  0.1288 -0.0117 -0.1510
 1718COC    COC 1718   0.789   1.656   1.929 -0.3219  0.2944  0.5068
 1719COC    COC 1719   0.479   1.673   2.033  0.1528 -0.0491  0.0552
 1720COC    COC 1720   0.485   1.914   2.211 -0.3421  0.0282 -0.0200
 1721COC    COC 1721   0.506   1.974   2.514 -0.0223  0.5001 -0.0158
 1722COC    COC 1722   0.289   2.160   2.663 -0.2081 -0.2584 -0.4928
 1723COC    COC 1723   0.325   2.450   2.638  0.3724  0.2201 -0.2981
 1724COC    COC 1724   0.207   2.720   2.751 -0.0141 -0.1742 -0.1841
 1725COC    COC 1725   0.263   2.754   3.039 -0.0066  0.1655 -0.0934
 1726COC    COC 1726   0.532   2.944   3.071 -0.0653 -0.3969  0.0564
 1727COC    COC 1727   0.746   3.049   3.270 -0.0678  0.2360  0.1065
 1728COC    COC 1728   0.862   3.149   3.522  0.3333 -0.1527 -0.2143
 1729COC    COC 1729   0.826   3.347   3.731  0.1474 -0.1549  0.1194
 1730COC    COC 1730   0.551   3.378   3.842  0.1270 -0.2364 -0.0824
 1731COC    COC 1731   0.340   3.202   3.760 -0.1600 -0.0202  0.0213
 1732COC    COC 1732   0.275   2.955   3.951 -0.0401  0.0599 -0.5353
 1733COC    COC 1733   0.398   2.925   4.201 -0.2268  0.1573 -0.2449
 1734COC    COC 1734   0.600   2.717   4.236 -0.2142  0.0642  0.1172
 1735COC    COC 1735   0.807   2.716   4.485 -0.1889 -0.4825  0.0502
 1736COC    COC 1736   0.790   2.994   4.623 -0.0264 -0.1630 -0.0739
 1737COC    COC 1737   0.799   2.924   4.927  0.1698 -0.1761  0.1995
 1738COC    COC 1738   0.546   2.945   5.049 -0.1811 -0.0735  0.4993
 1739COC    COC 1739   0.283   3.073   4.917 -0.1197 -0.0732 -0.0642
 1740COC    COC 1740   0.265   3.135   4.632 -0.0073  0.1210 -0.3882
 1741COC    COC 1741   0.451   3.278   4.463 -0.0192 -0.5475  0.4841
 1742COC    COC 1742   0.657   3.473   4.355 -0.1874 -0.2536 -0.1028
 1743COC    COC 1743   0.711   3.800   4.403  0.0891 -0.1061 -0.0580
 1744COC    COC 1744   0.766   4.054   4.575  0.0492  0.0260  0.2317
 1745COC    COC 1745   0.484   4.067   4.717  0.3394 -0.4570 -0.2101
 1746COC    COC 1746   0.348   4.320   4.608 -0.4863  0.0731 -0.1332
 1747COC    COC 1747   0.358   4.635   4.597  0.4264  0.1739  0.2210
 1748COH    COH 1748   0.157   4.729   4.743 -0.1499 -0.2646 -0.2087
 1749COH    COH 1749   9.776   4.817   0.581  0.0762 -0.5988  0.3191
 1750COC    COC 1750   9.542   4.726   0.456 -0.0188 -0.2011 -0.1911
 1751COC    COC 1751   9.279   4.624   0.563  0.0403 -0.2472  0.3511
 1752COC    COC 1752   9.170   4.426   0.708 -0.1471 -0.0554  0.1028
 1753COC    COC 1753   9.327   4.158   0.700  0.3136  0.2072  0.1401
 1754COC    COC 1754   9.172   3.952   0.850  0.2211 -0.2584 -0.2505
 1755COC    COC 1755   9.321   3.959   1.132  0.1465  0.3993  0.3430
 1756COC    COC 1756   9.069   3.888   1.269  0.2430 -0.1556  0.3160
 1757COC    COC 1757   9.125   4.021   1.516  0.0799 -0.1035 -0.4850
 1758COC    COC 1758   9.391   4.123   1.614 -0.0663  0.3637 -0.0544
 1759COC    COC 1759   9.585   4.224   1.880 -0.2358  0.3861 -0.0979
 1760COC    COC 1760   9.726   4.067   2.060 -0.1533  0.2021 -0.0042
 1761COC    COC 1761   9.602   3.777   2.012 -0.2128 -0.0796 -0.0947
 1762COC    COC 1762   9.333   3.806   1.892 -0.2804 -0.2231  0.1133
 1763COC    COC 1763   9.034   3.784   1.964  0.0305  0.0044 -0.0330
 1764COC    COC 1764   9.047   3.702   2.276  0.1668  0.5313 -0.1110
 1765COC    COC 1765   8.947   3.471   2.424  0.2880  0.2433  0.1400
 1766COC    COC 1766   9.136   3.355   2.623 -0.3260  0.0085  0.4048
 1767COC    COC 1767   9.233   3.435   2.887 -0.0393  0.2767 -0.0941
 1768COC    COC 1768   9.490   3.496   2.986 -0.0656  0.3965 -0.1888
 1769COC    COC 1769   9.626   3.530   3.265 -0.5487 -0.0467 -0.0837
 1770COC    COC 1770   9.510   3.745   3.421  0.3838  0.2969 -0.3183
 1771COC    COC 1771   9.219   3.822   3.600  0.1561  0.1232 -0.0515
 1772COC    COC 1772   9.010   4.022   3.529  0.0319 -0.1071  0.2606
 1773COC    COC 1773   8.858   4.110   3.300  0.2048 -0.2568 -0.4692
 1774COC    COC 1774   8.976   4.369   3.175 -0.0805  0.0632 -0.2549
 1775COC    COC 1775   8.823   4.546   3.408 -0.1806 -0.1171  0.2420
 1776COC    COC 1776   8.865   4.650   3.680 -0.1863  0.2297  0.0395
 1777COC    COC 1777   9.080   4.675   3.916 -0.1478 -0.2081 -0.0435
 1778COC    COC 1778   9.349   4.518   3.838  0.2284  0.3219  0.5107
 1779COC    COC 1779   9.500   4.350   3.992  0.3338 -0.4696  0.2221
 1780COC    COC 1780   9.814   4.300   3.954  0.1955 -0.0848 -0.1651
 1781COC    COC 1781   9.993   4.321   3.763 -0.1977  0.0439  0.2193
 1782COC    COC 1782   9.862   4.363   3.507  0.1705  0.3790 -0.1286
 1783COC    COC 1783   9.703   4.611   3.554  0.2390  0.0405 -0.1021
 1784COC    COC 1784   9.785   4.749   3.779 -0.0459  0.0639  0.1068
 1785COC    COC 1785   9.942   5.022   3.705 -0.0340 -0.0344  0.0249
 1786COC    COC 1786  10.074   5.282   3.635  0.1742  0.3790  0.3982
 1787COC    COC 1787   9.933   5.489   3.758 -0.1076  0.1705 -0.1268
 1788COC    COC 1788   9.648   5.527   3.700  0.0348  0.1493 -0.3700
 1789COC    COC 1789   9.643   5.324   3.447 -0.2307 -0.0887 -0.0867
 1790COC    COC 1790   9.859   5.379   3.248 -0.0390  0.5083 -0.1600
 1791COC    COC 1791   9.805   5.624   3.088  0.0318 -0.0717 -0.0815
 1792COC    COC 1792  10.015   5.711   2.883  0.1618 -0.1137  0.1627
 1793COC    COC 1793  10.314   5.662   2.968 -0.2545 -0.1650  0.3209
 1794COH    COH 1794   0.156   5.702   2.782 -0.1284  0.0022 -0.0274
 1795COH    COH 1795   7.622   4.533   6.886 -0.0965 -0.0505 -0.2517
 1796COC    COC 1796   7.811   4.704   6.825 -0.2345  0.2204  0.1081
 1797COC    COC 1797   7.805   5.012   6.922 -0.1325 -0.1562 -0.1687
 1798COC    COC 1798   7.954   5.214   7.093 -0.2517  0.0913  0.0901
 1799COC    COC 1799   7.812   5.498   7.237 -0.2352  0.4803 -0.0421
 1800COC    COC 1800   7.986   5.764   7.198  0.0042  0.2809 -0.1077
 1801COC    COC 1801   8.232   5.731   7.040  0.0612 -0.3439 -0.2363
 1802COC    COC 1802   8.195   5.547   6.846  0.0050  0.1585  0.0599
 1803COC    COC 1803   8.264   5.285   6.745 -0.5387 -0.0319  0.2419
 1804COC    COC 1804   8.216   4.979   6.726  0.2529  0.1532  0.2754
 1805COC    COC 1805   8.107   4.943   6.444  0.1096 -0.0475  0.5246
 1806COC    COC 1806   7.889   4.753   6.382 -0.1730  0.1175  0.0241
 1807COC    COC 1807   7.944   4.454   6.356  0.1861 -0.0189 -0.1562
 1808COC    COC 1808   8.143   4.253   6.465  0.0956 -0.2498 -0.1433
 1809COC    COC 1809   8.402   4.204   6.320 -0.1353  0.1394 -0.1881
 1810COC    COC 1810   8.618   4.375   6.391 -0.0301  0.3231  0.0287
 1811COC    COC 1811   8.576   4.632   6.531 -0.3739 -0.2425 -0.2247
 1812COC    COC 1812   8.661   4.560   6.786  0.1226 -0.5121  0.0039
 1813COC    COC 1813   8.557   4.631   7.094  0.0354 -0.3259  0.1859
 1814COC    COC 1814   8.806   4.778   7.235  0.2916 -0.0744 -0.1616
 1815COC    COC 1815   8.950   5.037   7.150 -0.0606 -0.1814 -0.4093
 1816COC    COC 1816   8.788   5.309   7.173 -0.3134  0.4253  0.0553
 1817COC    COC 1817   8.589   5.451   6.996  0.0467 -0.0074 -0.0465
 1818COC    COC 1818   8.615   5.572   6.710  0.0230  0.0491 -0.3633
 1819COC    COC 1819   8.694   5.830   6.613 -0.2152 -0.3411 -0.2531
 1820COC    COC 1820   8.738   6.139   6.525  0.0296  0.1317 -0.0386
 1821COC    COC 1821   8.950   6.269   6.323 -0.1423 -0.1606  0.4934
 1822COC    COC 1822   8.900   6.554   6.403  0.0701  0.0971 -0.3470
 1823COC    COC 1823   8.639   6.676   6.488 -0.3645 -0.2416 -0.2028
 1824COC    COC 1824   8.616   6.822   6.749 -0.1524  0.1919  0.0590
 1825COC    COC 1825   8.276   6.883   6.793  0.1324 -0.1312  0.2502
 1826COC    COC 1826   8.179   7.070   6.588 -0.5008  0.2321  0.1877
 1827COC    COC 1827   8.405   7.283   6.511 -0.2518  0.0801 -0.3688
 1828COC    COC 1828   8.620   7.094   6.375 -0.1362 -0.2601 -0.1019
 1829COC    COC 1829   8.879   7.247   6.296  0.2483 -0.1993  0.0055
 1830COC    COC 1830   8.909   7.302   6.004  0.1484  0.5763 -0.1354
 1831COC    COC 1831   8.743   7.344   5.761  0.0735 -0.1301  0.1818
 1832COC    COC 1832   8.487   7.246   5.668  0.3842  0.3300  0.0015
 1833COC    COC 1833   8.306   7.360   5.439  0.0013 -0.1977 -0.1209
 1834COC    COC 1834   8.589   7.418   5.265 -0.1171  0.1003  0.0711
 1835COC    COC 1835   8.883   7.349   5.228  0.0355 -0.1675 -0.1594
 1836COC    COC 1836   9.107   7.543   5.315  0.0398 -0.1640  0.0284
 1837COC    COC 1837   9.187   7.844   5.355 -0.4151 -0.3096 -0.2692
 1838COC    COC 1838   9.145   7.973   5.675  0.1046 -0.1378 -0.2843
 1839COC    COC 1839   8.933   8.048   5.827 -0.1123 -0.1095 -0.0828
 1840COH    COH 1840   8.817   8.292   5.799 -0.2782 -0.0364 -0.0328
 1841COH    COH 1841   8.996   8.695   8.067  0.2329  0.0997  0.3935
 1842COC    COC 1842   8.775   8.559   8.097 -0.0574 -0.6004  0.2419
 1843COC    COC 1843   8.832   8.309   7.954  0.0973 -0.1477 -0.1742
 1844COC    COC 1844   9.097   8.196   7.817 -0.0304 -0.2347  0.3345
 1845COC    COC 1845   8.977   7.944   7.704 -0.1378  0.1632  0.3938
 1846COC    COC 1846   8.813   7.895   7.437 -0.2336  0.0328  0.0140
 1847COC    COC 1847   8.785   8.065   7.200  0.4359 -0.0950  0.3314
 1848COC    COC 1848   8.759   8.347   7.277  0.2915  0.1680  0.0893
 1849COC    COC 1849   8.579   8.598   7.215  0.2404 -0.1054  0.2619
 1850COC    COC 1850   8.564   8.824   6.986  0.5377  0.1375  0.0714
 1851COC    COC 1851   8.298   8.983   7.041 -0.2568  0.2638  0.0833
 1852COC    COC 1852   8.086   9.199   6.936 -0.3606 -0.2748 -0.3660
 1853COC    COC 1853   7.875   8.979   6.981 -0.1317 -0.3149 -0.4202
 1854COC    COC 1854   7.666   9.027   7.229 -0.0669 -0.0632  0.0298
 1855COC    COC 1855   7.725   9.193   7.485 -0.2581  0.1741  0.2900
 1856COC    COC 1856   7.664   9.016   7.692  0.1813  0.0304 -0.0069
 1857COC    COC 1857   7.470   8.962   7.945 -0.1665 -0.2234  0.3299
 1858COC    COC 1858   7.553   8.711   8.121 -0.0395  0.4626  0.0376
 1859COC    COC 1859   7.358   8.514   8.202  0.5432 -0.0651  0.1419
 1860COC    COC 1860   7.558   8.308   8.378 -0.0319 -0.4513 -0.0679
 1861COC    COC 1861   7.718   8.161   8.239  0.0848 -0.2688 -0.0738
 1862COC    COC 1862   7.735   8.240   7.983  0.0300  0.2059  0.3356
 1863COC    COC 1863   7.729   8.474   7.765 -0.0566  0.0681  0.1037
 1864COC    COC 1864   7.949   8.632   7.650 -0.1096 -0.0499 -0.0882
 1865COC    COC 1865   8.238   8.569   7.722  0.3220 -0.0206 -0.1870
 1866COC    COC 1866   8.505   8.709   7.615 -0.0499  0.0876 -0.1851
 1867COC    COC 1867   8.667   8.950   7.752  0.5708 -0.1075 -0.0797
 1868COC    COC 1868   8.786   9.093   7.991 -0.0024  0.1926  0.5556
 1869COC    COC 1869   8.960   9.091   8.253 -0.3152 -0.0938  0.4694
 1870COC    COC 1870   8.932   9.348   8.456 -0.0635 -0.0441  0.4407
 1871COC    COC 1871   8.857   9.197   8.723  0.2706  0.0782  0.2099
 1872COC    COC 1872   8.707   8.986   8.855 -0.3285  0.0530  0.1145
 1873COC    COC 1873   8.561   8.762   8.985 -0.2953  0.2499  0.0116
 1874COC    COC 1874   8.697   8.608   9.194  0.1841  0.0545 -0.1707
 1875COC    COC 1875   8.588   8.632   9.475  0.0343 -0.0083  0.3018
 1876COC    COC 1876   8.456   8.916   9.450 -0.3381  0.2193 -0.1073
 1877COC    COC 1877   8.342   9.130   9.656 -0.2083  0.0609 -0.1387
 1878COC    COC 1878   8.071   9.229   9.726 -0.2889  0.3897 -0.2383
 1879COC    COC 1879   8.029   9.128  10.021 -0.1319  0.0251 -0.0209
 1880COC    COC 1880   7.878   9.304  10.194  0.1137  0.1696 -0.0901
 1881COC    COC 1881   8.026   9.516   0.029  0.1880 -0.1465 -0.3020
 1882COC    COC 1882   8.068   9.611   0.281  0.0631 -0.2264  0.3493
 1883COC    COC 1883   7.892   9.869   0.341  0.3022  0.0227 -0.2249
 1884COC    COC 1884   7.978  10.046   0.133 -0.3312  0.0748  0.1489
 1885COC    COC 1885   8.245   9.970  10.329  0.2453 -0.2304 -0.3536
 1886COH    COH 1886   8.365   9.782  10.186  0.0350 -0.2402 -0.1107
 1887COH    COH 1887   4.754   5.775   7.736 -0.1831  0.1403  0.3489
 1888COC    COC 1888   4.529   5.922   7.668  0.0024  0.4440  0.4065
 1889COC    COC 1889   4.346   5.702   7.639 -0.0588  0.1691  0.4253
 1890COC    COC 1890   4.256   5.565   7.387  0.1654 -0.4942  0.0387
 1891COC    COC 1891   3.959   5.531   7.275  0.2169  0.1692  0.1298
 1892COC    COC 1892   3.719   5.693   7.144  0.0768 -0.1128  0.1392
 1893COC    COC 1893   3.642   5.729   6.817  0.1410  0.0295 -0.0754
 1894COC    COC 1894   3.791   5.509   6.657  0.1079 -0.1607  0.4616
 1895COC    COC 1895   3.785   5.311   6.446 -0.2573  0.2555  0.2184
 1896COC    COC 1896   3.541   5.151   6.385  0.1918 -0.2926  0.0245
 1897COC    COC 1897   3.575   4.970   6.678  0.2027  0.2729  0.1062
 1898COC    COC 1898   3.650   4.693   6.765 -0.2001  0.1001  0.0829
 1899COC    COC 1899   3.783   4.638   7.042 -0.1226  0.5818 -0.1117
 1900COC    COC 1900   4.059   4.539   7.185 -0.0964  0.0973  0.2892
 1901COC    COC 1901   4.115   4.505   7.484  0.0532 -0.2044 -0.0515
 1902COC    COC 1902   4.260   4.693   7.702 -0.3681 -0.1299 -0.2143
 1903COC    COC 1903   4.047   4.893   7.843  0.1296 -0.2778 -0.1995
 1904COC    COC 1904   3.810   4.734   7.976 -0.0434 -0.3546  0.3674
 1905COC    COC 1905   3.538   4.680   7.994  0.3124 -0.3135  0.0466
 1906COC    COC 1906   3.537   4.427   8.088 -0.1000  0.1782  0.1138
 1907COC    COC 1907   3.710   4.345   8.295  0.1203  0.3606 -0.1930
 1908COC    COC 1908   3.720   4.413   8.585  0.0600  0.2423 -0.0705
 1909COC    COC 1909   3.700   4.665   8.749  0.5552 -0.1858  0.3869
 1910COC    COC 1910   3.427   4.727   8.771 -0.2143  0.3318 -0.3079
 1911COC    COC 1911   3.263   4.532   8.598  0.4849 -0.0586  0.2363
 1912COC    COC 1912   3.339   4.217   8.510 -0.2939 -0.2385  0.1536
 1913COC    COC 1913   3.206   4.163   8.260  0.3919  0.0269  0.1316
 1914COC    COC 1914   3.245   3.959   8.027 -0.1831 -0.3956  0.0035
 1915COC    COC 1915   3.535   3.967   7.902 -0.1482  0.0407  0.1292
 1916COC    COC 1916   3.799   4.051   8.004 -0.1378  0.1956  0.1311
 1917COC    COC 1917   3.837   3.926   8.236 -0.4910  0.0778  0.0443
 1918COC    COC 1918   3.822   3.993   8.513 -0.0682 -0.4363  0.0364
 1919COC    COC 1919   4.049   3.816   8.663 -0.2713 -0.1342  0.3618
 1920COC    COC 1920   4.108   3.737   8.962 -0.0570 -0.0478  0.3330
 1921COC    COC 1921   3.929   3.538   9.134 -0.1573 -0.3447 -0.1966
 1922COC    COC 1922   4.102   3.319   9.321  0.0647  0.0287  0.1624
 1923COC    COC 1923   4.306   3.139   9.273  0.0304  0.4812  0.2126
 1924COC    COC 1924   4.382   3.129   8.983 -0.0191 -0.1454  0.1255
 1925COC    COC 1925   4.352   2.884   8.785  0.3812 -0.1260 -0.1761
 1926COC    COC 1926   4.448   2.865   8.517  0.1722  0.1403 -0.2037
 1927COC    COC 1927   4.495   2.602   8.389  0.3597 -0.4295 -0.3458
 1928COC    COC 1928   4.375   2.342   8.426  0.0672  0.0164  0.2805
 1929COC    COC 1929   4.080   2.295   8.443  0.4511  0.1646  0.0397
 1930COC    COC 1930   4.033   1.997   8.452  0.0671 -0.2083 -0.0994
 1931COC    COC 1931   3.803   1.807   8.467  0.0323 -0.0351  0.3269
 1932COH    COH 1932   3.717   1.617   8.275 -0.2817 -0.0460 -0.0947
 1933COH    COH 1933  10.162   6.833   9.255  0.2898 -0.1270 -0.0414
 1934COC    COC 1934  10.087   6.981   9.081 -0.2528  0.2769  0.1779
 1935COC    COC 1935  10.213   7.142   8.923 -0.2169 -0.5614  0.0833
 1936COC    COC 1936  10.099   7.417   8.875  0.1233  0.0039 -0.0945
 1937COC    COC 1937   9.820   7.396   8.985 -0.1484  0.2856  0.3709
 1938COC    COC 1938   9.570   7.388   8.861  0.6060 -0.0192  0.2278
 1939COC    COC 1939   9.346   7.185   8.789 -0.3404 -0.2095  0.0094
 1940COC    COC 1940   9.350   6.919   8.951  0.1562  0.1435  0.1256
 1941COC    COC 1941   9.666   6.846   8.925  0.1559  0.2310 -0.0893
 1942COC    COC 1942   9.825   7.047   8.745 -0.1222 -0.1118  0.1512
 1943COC    COC 1943   9.708   7.123   8.485  0.1346 -0.1216  0.0817
 1944COC    COC 1944   9.735   7.396   8.391 -0.0890  0.2828 -0.2178
 1945COC    COC 1945  10.004   7.492   8.413 -0.1790  0.1147  0.0566
 1946COC    COC 1946  10.148   7.742   8.509  0.2115  0.3508 -0.0148
 1947COC    COC 1947   0.130   7.688   8.530 -0.4263  0.1170 -0.0316
 1948COC    COC 1948   0.154   7.442   8.702  0.3118 -0.1700  0.3540
 1949COC    COC 1949   0.391   7.266   8.861 -0.2773 -0.0229  0.4360
 1950COC    COC 1950   0.561   7.101   8.640  0.3039 -0.2926  0.3362
 1951COC    COC 1951   0.794   6.922   8.608  0.2554  0.1130  0.0683
 1952COC    COC 1952   0.771   6.606   8.657  0.5557  0.0753 -0.0472
 1953COC    COC 1953   0.927   6.440   8.893 -0.7816  0.0790 -0.1146
 1954COC    COC 1954   0.896   6.177   9.070 -0.1044 -0.1041 -0.1080
 1955COC    COC 1955   0.846   6.005   8.815 -0.1246  0.4139 -0.2607
 1956COC    COC 1956   0.874   5.705   8.703  0.4752  0.5122  0.0015
 1957COC    COC 1957   0.908   5.686   8.422  0.4924 -0.4146 -0.0246
 1958COC    COC 1958   1.079   5.496   8.283 -0.2374  0.0338 -0.0719
 1959COC    COC 1959   0.960   5.194   8.210 -0.4444  0.0614 -0.1029
 1960COC    COC 1960   1.209   5.036   8.262 -0.0804  0.0082  0.0977
 1961COC    COC 1961   1.430   4.955   8.099  0.1025 -0.3733  0.1827
 1962COC    COC 1962   1.603   4.712   8.168  0.0360  0.0511  0.4317
 1963COC    COC 1963   1.514   4.488   7.922  0.2731  0.4017 -0.2959
 1964COC    COC 1964   1.349   4.671   7.755 -0.2058 -0.0393 -0.1337
 1965COC    COC 1965   1.362   4.835   7.473  0.3319 -0.0828 -0.0962
 1966COC    COC 1966   1.481   5.088   7.524  0.2076 -0.3443  0.1182
 1967COC    COC 1967   1.702   5.272   7.456 -0.0540  0.0555 -0.4572
 1968COC    COC 1968   1.866   5.489   7.289  0.4059  0.1675 -0.1426
 1969COC    COC 1969   1.821   5.781   7.359  0.1992  0.0027 -0.1184
 1970COC    COC 1970   1.954   5.995   7.168  0.1383 -0.0132 -0.1352
 1971COC    COC 1971   2.260   5.950   7.210 -0.1628  0.0137  0.2888
 1972COC    COC 1972   2.254   5.808   7.449 -0.0635 -0.0386  0.3221
 1973COC    COC 1973   2.457   5.703   7.624 -0.3360  0.1612 -0.1767
 1974COC    COC 1974   2.463   5.441   7.708  0.3713  0.1874 -0.0733
 1975COC    COC 1975   2.755   5.429   7.851 -0.1407 -0.1134 -0.1076
 1976COC    COC 1976   2.928   5.327   8.087 -0.0118  0.0873  0.1994
 1977COC    COC 1977   2.906   5.123   8.289  0.0124  0.1399 -0.1140
 1978COH    COH 1978   3.079   5.097   8.506  0.3544 -0.0936 -0.0552
 1979COH    COH 1979   5.700   0.208   2.873 -0.2081  0.0217 -0.1395
 1980COC    COC 1980   5.529   0.394   2.884 -0.3717  0.1243 -0.2458
 1981COC    COC 1981   5.643   0.605   2.735 -0.1648  0.0125  0.1292
 1982COC    COC 1982   5.478   0.749   2.534 -0.2562 -0.0676 -0.2290
 1983COC    COC 1983   5.594   0.978   2.312  0.1767 -0.0124 -0.1980
 1984COC    COC 1984   5.802   1.198   2.290 -0.3471  0.1671 -0.0096
 1985COC    COC 1985   5.969   1.171   2.553  0.0027  0.2307 -0.0389
 1986COC    COC 1986   5.897   1.066   2.852  0.4859 -0.3699  0.4249
 1987COC    COC 1987   5.945   0.805   2.982  0.0943  0.2077  0.2830
 1988COC    COC 1988   6.012   0.519   2.926  0.0643  0.3768 -0.1868
 1989COC    COC 1989   6.058   0.335   2.676 -0.2841 -0.3003  0.0351
 1990COC    COC 1990   6.205   0.062   2.712  0.0584 -0.1041 -0.0131
 1991COC    COC 1991   6.371  10.247   2.499 -0.2863 -0.0709 -0.0544
 1992COC    COC 1992   6.661  10.220   2.449  0.1068 -0.2059 -0.0421
 1993COC    COC 1993   6.768   0.084   2.240 -0.1042 -0.1422 -0.1335
 1994COC    COC 1994   6.895   0.011   1.965  0.0639 -0.0310 -0.2147
 1995COC    COC 1995   7.038   0.158   1.770  0.1829  0.0086  0.0651
 1996COC    COC 1996   6.872   0.424   1.784 -0.1478  0.6772 -0.1634
 1997COC    COC 1997   6.697   0.496   2.054 -0.3037  0.1879 -0.0815
 1998COC    COC 1998   6.705   0.783   2.120 -0.3234  0.1503  0.2260
 1999COC    COC 1999   6.878   0.961   1.963  0.3095 -0.0031  0.0596
 2000COC    COC 2000   7.124   0.784   1.884  0.2384 -0.0296 -0.2766
 2001COC    COC 2001   7.234   0.516   1.940 -0.0615 -0.0415  0.2962
 2002COC    COC 2002   7.163   0.356   2.112 -0.0537 -0.0026  0.1273
 2003COC    COC 2003   7.336   0.300   2.350  0.2087 -0.0563  0.0298
 2004COC    COC 2004   7.450   0.523   2.478  0.0629  0.1596  0.0072
 2005COC    COC 2005   7.534   0.640   2.208  0.1109  0.1154 -0.3187
 2006COC    COC 2006   7.655   0.465   1.981  0.1498 -0.3034 -0.1042
 2007COC    COC 2007   7.634   0.479   1.694  0.2716  0.0982 -0.0015
 2008COC    COC 2008   7.564   0.236   1.596  0.1121  0.0398  0.2765
 2009COC    COC 2009   7.651  10.285   1.699 -0.2842  0.4338 -0.0758
 2010COC    COC 2010   7.817   0.000   1.898 -0.5995 -0.0116 -0.2482
 2011COC    COC 2011   8.027  10.213   2.090 -0.0500  0.0891 -0.1171
 2012COC    COC 2012   8.312  10.112   2.117  0.0258  0.0693  0.2234
 2013COC    COC 2013   8.509  10.303   2.267  0.1971  0.2749 -0.1214
 2014COC    COC 2014   8.740  10.321   2.386 -0.0416 -0.1639 -0.1009
 2015COC    COC 2015   9.029   0.052   2.283  0.2539 -0.0294  0.3061
 2016COC    COC 2016   9.046   0.136   1.971 -0.2957  0.0529 -0.0164
 2017COC    COC 2017   8.844   0.178   1.783 -0.2709 -0.0921  0.1203
 2018COC    COC 2018   8.549   0.181   1.642  0.2807  0.0446 -0.0168
 2019COC    COC 2019   8.281   0.386   1.698  0.0984  0.1663 -0.0632
 2020COC    COC 2020   8.003   0.288   1.582 -0.5489 -0.2873 -0.1056
 2021COC    COC 2021   7.899   0.416   1.340 -0.4840  0.0600 -0.2190
 2022COC    COC 2022   8.042   0.382   1.056  0.1787  0.0207 -0.1941
 2023COC    COC 2023   8.057   0.653   0.950 -0.1079  0.4334 -0.0344
 2024COH    COH 2024   8.137   0.554   0.714 -0.1403 -0.4326 -0.1012
 2025COH    COH 2025   6.710   0.131   1.593  0.1564  0.3865  0.0284
 2026COC    COC 2026   6.499   0.267   1.465  0.1518 -0.3641  0.3161
 2027COC    COC 2027   6.402   0.464   1.647 -0.3580  0.5110 -0.5198
 2028COC    COC 2028   6.353   0.776   1.641 -0.3683  0.0735 -0.2062
 2029COC    COC 2029   6.505   1.038   1.682  0.0202 -0.2675  0.0612
 2030COC    COC 2030   6.480   1.212   1.411  0.0649  0.0264 -0.3758
 2031COC    COC 2031   6.600   1.168   1.130 -0.4010  0.3183  0.0328
 2032COC    COC 2032   6.770   0.894   1.050 -0.0085  0.1895 -0.3642
 2033COC    COC 2033   6.810   0.812   0.760 -0.0374  0.4941  0.0767
 2034COC    COC 2034   6.601   0.712   0.520  0.0613 -0.3154 -0.3512
 2035COC    COC 2035   6.353   0.669   0.717  0.0314  0.3248  0.4528
 2036COC    COC 2036   6.237   0.905   0.867 -0.2951  0.0811  0.1834
 2037COC    COC 2037   5.944   0.865   0.822  0.3200 -0.2680  0.1378
 2038COC    COC 2038   5.684   0.831   0.891  0.3717  0.1478 -0.0457
 2039COC    COC 2039   5.411   0.705   0.820 -0.4157  0.1925 -0.1177
 2040COC    COC 2040   5.406   0.443   0.625 -0.0871 -0.1188  0.6631
 2041COC    COC 2041   5.165   0.284   0.733  0.4387 -0.1046 -0.0986
 2042COC    COC 2042   5.231   0.044   0.918  0.1793 -0.2687  0.5410
 2043COC    COC 2043   5.487  10.324   1.063 -0.1001  0.2273  0.0779
 2044COC    COC 2044   5.536   0.169   1.330 -0.3811 -0.0154  0.1602
 2045COC    COC 2045   5.801   0.141   1.479 -0.3471 -0.1953 -0.6123
 2046COC    COC 2046   6.045   0.031   1.270  0.0057 -0.0097  0.1141
 2047COC    COC 2047   6.181   0.206   1.083  0.1351  0.0020 -0.0478
 2048COC    COC 2048   6.016   0.433   0.968  0.1060  0.0858  0.1027
 2049COC    COC 2049   5.712   0.380   0.868 -0.0440 -0.1816 -0.0115
 2050COC    COC 2050   5.741   0.129   0.737  0.4783 -0.0337  0.3418
 2051COC    COC 2051   5.605   0.067   0.461 -0.2226 -0.1265  0.5884
 2052COC    COC 2052   5.707  10.118   0.305  0.0637  0.1494  0.1858
 2053COC    COC 2053   5.575   9.835   0.297 -0.0907  0.0318  0.5554
 2054COC    COC 2054   5.647   9.558   0.389 -0.0692  0.0638 -0.1265
 2055COC    COC 2055   5.702   9.284   0.252  0.0238 -0.1986 -0.1202
 2056COC    COC 2056   5.655   9.041   0.425  0.1999 -0.2948  0.3296
 2057COC    COC 2057   5.954   8.982   0.540 -0.5051 -0.0465 -0.0141
 2058COC    COC 2058   6.137   9.194   0.680 -0.5465 -0.1205  0.2190
 2059COC    COC 2059   6.424   9.215   0.529  0.0587 -0.2804  0.0920
 2060COC    COC 2060   6.506   9.074   0.262 -0.3952  0.0524 -0.2823
 2061COC    COC 2061   6.525   8.898  10.322  0.0348  0.1131  0.4740
 2062COC    COC 2062   6.742   8.689  10.243 -0.2092 -0.1320  0.4326
 2063COC    COC 2063   6.926   8.495  10.105  0.1917 -0.0165 -0.2710
 2064COC    COC 2064   6.835   8.202  10.121  0.0295 -0.1085  0.2035
 2065COC    COC 2065   6.591   8.122   9.919 -0.4326 -0.2315 -0.1323
 2066COC    COC 2066   6.294   8.185   9.903  0.2416 -0.0380  0.0506
 2067COC    COC 2067   6.123   8.362   9.719 -0.2429  0.0707  0.0691
 2068COC    COC 2068   5.887   8.140   9.612  0.5235 -0.5276  0.0221
 2069COC    COC 2069   5.730   8.411   9.516  0.4510 -0.1187 -0.0745
 2070COH    COH 2070   5.513   8.385   9.671  0.1633  0.4722 -0.1229
 2071COH    COH 2071   6.480   6.360   6.128  0.0853 -0.0348 -0.3140
 2072COC    COC 2072   6.473   6.098   6.154 -0.2390 -0.0768  0.2792
 2073COC    COC 2073   6.762   6.013   6.220  0.2736 -0.0798 -0.5372
 2074COC    COC 2074   6.642   5.707   6.291  0.0346 -0.3554  0.1486
 2075COC    COC 2075   6.685   5.530   6.035 -0.0284  0.0433  0.3825
 2076COC    COC 2076   6.800   5.257   6.115 -0.0503  0.2568  0.0026
 2077COC    COC 2077   6.553   5.116   6.010 -0.2164  0.2473 -0.2416
 2078COC    COC 2078   6.427   5.177   5.725  0.1482 -0.3584  0.3862
 2079COC    COC 2079   6.423   5.082   5.436 -0.0833  0.1405 -0.3371
 2080COC    COC 2080   6.617   5.115   5.175 -0.3113  0.6557 -0.3150
 2081COC    COC 2081   6.852   5.303   5.248 -0.4260  0.6231 -0.1399
 2082COC    COC 2082   7.067   5.365   5.020  0.1742  0.0273 -0.2555
 2083COC    COC 2083   7.199   5.116   4.957  0.1463 -0.3341 -0.2373
 2084COC    COC 2084   7.482   5.080   5.013  0.2586  0.1259  0.6007
 2085COC    COC 2085   7.710   4.925   4.877 -0.2452 -0.0811  0.2783
 2086COC    COC 2086   7.849   4.930   4.613 -0.1871 -0.2284 -0.4164
 2087COC    COC 2087   7.793   4.658   4.515  0.0091  0.2030 -0.2111
 2088COC    COC 2088   7.644   4.472   4.746  0.2885 -0.0545  0.0714
 2089COC    COC 2089   7.466   4.274   4.623 -0.1071  0.2682 -0.3119
 2090COC    COC 2090   7.442   3.946   4.635  0.1470  0.0705  0.2860
 2091COC    COC 2091   7.261   3.801   4.845  0.0946  0.3227 -0.2836
 2092COC    COC 2092   7.334   3.701   5.123 -0.2169  0.1614 -0.3218
 2093COC    COC 2093   7.153   3.486   5.291 -0.2917  0.0835  0.0576
 2094COC    COC 2094   7.187   3.262   5.533 -0.0303  0.0931 -0.0948
 2095COC    COC 2095   7.256   3.152   5.809 -0.0100  0.1253  0.1671
 2096COC    COC 2096   7.441   2.885   5.794  0.1137  0.2447  0.3062
 2097COC    COC 2097   7.273   2.586   5.810 -0.2074 -0.1529 -0.1102
 2098COC    COC 2098   7.517   2.470   5.719 -0.3617 -0.0885  0.1088
 2099COC    COC 2099   7.572   2.382   5.448 -0.0841  0.1394 -0.3456
 2100COC    COC 2100   7.743   2.446   5.166 -0.4609 -0.0307  0.0542
 2101COC    COC 2101   7.956   2.312   5.002  0.3660 -0.1958 -0.1638
 2102COC    COC 2102   7.980   2.503   4.791  0.2833  0.2368  0.2302
 2103COC    COC 2103   7.987   2.502   4.497 -0.2457 -0.0895 -0.1659
 2104COC    COC 2104   7.819   2.299   4.345 -0.2636 -0.1132 -0.2524
 2105COC    COC 2105   7.658   2.217   4.598  0.3545 -0.1152 -0.1698
 2106COC    COC 2106   7.405   2.272   4.806 -0.1943  0.0309 -0.4398
 2107COC    COC 2107   7.528   2.124   5.087 -0.1478 -0.1963 -0.2201
 2108COC    COC 2108   7.746   1.915   5.114  0.3593  0.2359 -0.0973
 2109COC    COC 2109   7.760   1.808   5.428  0.1350 -0.0135  0.1147
 2110COC    COC 2110   7.702   1.571   5.629  0.1216  0.0749  0.0142
 2111COC    COC 2111   7.417   1.599   5.707  0.1500 -0.2248 -0.0744
 2112COC    COC 2112   7.377   1.297   5.798  0.1256 -0.1204 -0.0125
 2113COC    COC 2113   7.487   1.085   5.634 -0.2875  0.0979  0.4280
 2114COC    COC 2114   7.442   0.844   5.445  0.2101 -0.4738  0.2863
 2115COC    COC 2115   7.314   0.601   5.527 -0.4075  0.0238  0.0477
 2116COH    COH 2116   7.269   0.573   5.791  0.0139 -0.3018 -0.0482
 2117COH    COH 2117   0.517   5.727   7.268  0.2162  0.0552 -0.0042
 2118COC    COC 2118   0.276   5.600   7.323  0.2316 -0.0164 -0.1244
 2119COC    COC 2119   0.273   5.309   7.196  0.0026 -0.2338  0.1791
 2120COC    COC 2120   0.085   5.088   7.334 -0.0905 -0.0926 -0.1156
 2121COC    COC 2121  10.148   5.207   7.423  0.0372 -0.2963 -0.1290
 2122COC    COC 2122  10.092   5.474   7.558 -0.2279 -0.1819 -0.0528
 2123COC    COC 2123  10.332   5.675   7.649  0.1967  0.2965 -0.2989
 2124COC    COC 2124   0.258   5.590   7.837  0.3150  0.0481 -0.0507
 2125COC    COC 2125   0.278   5.548   8.127  0.1887 -0.0733 -0.0135
 2126COC    COC 2126   0.223   5.341   8.362  0.2288  0.2394 -0.0762
 2127COC    COC 2127   0.309   5.089   8.280 -0.0216  0.3527 -0.2619
 2128COC    COC 2128   0.578   5.039   8.120 -0.1011  0.2547 -0.3375
 2129COC    COC 2129   0.711   5.029   7.851  0.1466  0.1470  0.3646
 2130COC    COC 2130   0.814   4.765   7.788 -0.0491 -0.5648 -0.1496
 2131COC    COC 2131   0.907   4.656   8.096  0.2684  0.1177  0.1897
 2132COC    COC 2132   1.186   4.532   8.189 -0.0234  0.0637 -0.0412
 2133COC    COC 2133   1.288   4.231   8.220  0.0942  0.1891  0.1037
 2134COC    COC 2134   1.338   3.916   8.119  0.3415 -0.4310  0.1376
 2135COC    COC 2135   1.118   3.697   8.205 -0.2083 -0.1673  0.1660
 2136COC    COC 2136   1.073   3.579   8.478  0.0408 -0.0831 -0.2260
 2137COC    COC 2137   1.183   3.467   8.754  0.1192  0.1775  0.1117
 2138COC    COC 2138   1.391   3.331   8.600  0.5003  0.0687 -0.3578
 2139COC    COC 2139   1.370   3.022   8.586  0.0635  0.3330 -0.0949
 2140COC    COC 2140   1.376   2.732   8.675  0.0588  0.1440  0.0130
 2141COC    COC 2141   1.112   2.595   8.732  0.4922  0.0756 -0.0663
 2142COC    COC 2142   0.837   2.649   8.895 -0.3082 -0.0373  0.0828
 2143COC    COC 2143   0.801   2.394   9.050 -0.2606  0.0540 -0.1212
 2144COC    COC 2144   0.874   2.151   8.914 -0.1863  0.1481  0.0166
 2145COC    COC 2145   0.626   1.973   8.955 -0.0090 -0.1872 -0.5254
 2146COC    COC 2146   0.780   1.736   9.087  0.0637  0.0724  0.2909
 2147COC    COC 2147   1.007   1.714   9.266 -0.1873  0.1431 -0.1846
 2148COC    COC 2148   1.010   1.497   9.503 -0.1325  0.3660  0.0038
 2149COC    COC 2149   0.751   1.312   9.554 -0.5293  0.0294  0.1281
 2150COC    COC 2150   0.753   1.099   9.381  0.0401 -0.3377  0.1134
 2151COC    COC 2151   0.609   0.883   9.488 -0.0332  0.0841  0.4009
 2152COC    COC 2152   0.322   0.988   9.496 -0.0026 -0.1003 -0.1869
 2153COC    COC 2153   0.155   1.030   9.235  0.0782  0.3268  0.2589
 2154COC    COC 2154   0.049   0.718   9.131  0.0023  0.0638 -0.1557
 2155COC    COC 2155  10.247   0.632   9.393 -0.3627  0.3396  0.0975
 2156COC    COC 2156  10.249   0.445   9.638  0.0893  0.1515 -0.1822
 2157COC    COC 2157  10.050   0.259   9.716 -0.2813  0.0201 -0.1208
 2158COC    COC 2158   9.817   0.053   9.641  0.1939 -0.2653  0.2988
 2159COC    COC 2159   9.554   0.027   9.766  0.1749 -0.0460 -0.3309
 2160COC    COC 2160   9.279  10.316   9.713 -0.1194  0.0556  0.1291
 2161COC    COC 2161   9.032   0.074   9.540 -0.2587 -0.0895  0.0721
 2162COH    COH 2162   8.821   0.264   9.562 -0.0784  0.2671 -0.0453
 2163COH    COH 2163   4.642   5.422   7.814  0.0584 -0.1367 -0.1170
 2164COC    COC 2164   4.435   5.504   7.986  0.2056 -0.2341 -0.1591
 2165COC    COC 2165   4.612   5.709   8.078  0.1104  0.1266 -0.2078
 2166COC    COC 2166   4.869   5.532   8.104  0.4485 -0.2146 -0.1293
 2167COC    COC 2167   4.802   5.299   8.293  0.2281 -0.0923 -0.0938
 2168COC    COC 2168   4.588   5.101   8.424  0.2916  0.2029  0.0311
 2169COC    COC 2169   4.778   4.829   8.558 -0.0915 -0.0955  0.4125
 2170COC    COC 2170   4.959   4.618   8.600  0.0600  0.1211  0.0662
 2171COC    COC 2171   5.224   4.736   8.512 -0.1733  0.2245  0.0349
 2172COC    COC 2172   5.363   4.520   8.338  0.4964  0.0583 -0.3091
 2173COC    COC 2173   5.498   4.653   8.119 -0.3126  0.1770  0.0607
 2174COC    COC 2174   5.767   4.642   7.995 -0.1345 -0.0412  0.0917
 2175COC    COC 2175   6.025   4.624   8.161 -0.1210 -0.1988 -0.4287
 2176COC    COC 2176   6.278   4.700   8.329  0.2670  0.2884 -0.1121
 2177COC    COC 2177   6.525   4.705   8.151  0.0895 -0.1476 -0.6562
 2178COC    COC 2178   6.763   4.674   8.342  0.3488 -0.2295 -0.2718
 2179COC    COC 2179   6.820   4.819   8.642  0.2131  0.0790 -0.0727
 2180COC    COC 2180   7.091   4.831   8.718  0.4671 -0.0439  0.0458
 2181COC    COC 2181   7.289   4.904   8.498 -0.3020  0.4744  0.2119
 2182COC    COC 2182   7.458   5.182   8.482 -0.0469 -0.0868  0.4535
 2183COC    COC 2183   7.409   5.472   8.415 -0.4082 -0.0414 -0.0728
 2184COC    COC 2184   7.499   5.682   8.589 -0.0967  0.0599 -0.5627
 2185COC    COC 2185   7.783   5.795   8.580 -0.4423 -0.0722  0.2678
 2186COC    COC 2186   7.928   5.778   8.843  0.2959  0.3443 -0.5338
 2187COC    COC 2187   7.781   5.643   9.071  0.1891 -0.2920  0.1986
 2188COC    COC 2188   7.542   5.815   9.175  0.2229 -0.0685  0.1263
 2189COC    COC 2189   7.471   6.066   9.002  0.2774  0.0236  0.2050
 2190COC    COC 2190   7.651   6.148   8.810  0.0169 -0.0096  0.0606
 2191COC    COC 2191   7.869   6.376   8.873 -0.0304  0.1008  0.4130
 2192COC    COC 2192   8.136   6.193   8.908 -0.3527  0.0688  0.2314
 2193COC    COC 2193   8.192   6.118   8.626 -0.2727  0.3775  0.1761
 2194COC    COC 2194   8.052   6.307   8.417 -0.2472  0.1432  0.2316
 2195COC    COC 2195   7.725   6.343   8.353 -0.1819 -0.1195 -0.1478
 2196COC    COC 2196   7.597   6.551   8.527  0.0553  0.1376  0.4756
 2197COC    COC 2197   7.735   6.769   8.705  0.2588  0.2824 -0.0901
 2198COC    COC 2198   7.516   7.007   8.761 -0.2403  0.3905  0.2555
 2199COC    COC 2199   7.572   7.193   9.031 -0.0870  0.0417  0.0760
 2200COC    COC 2200   7.502   6.934   9.215  0.1475 -0.0947  0.2242
 2201COC    COC 2201   7.592   6.974   9.487  0.0209 -0.0269  0.0464
 2202COC    COC 2202   7.617   7.183   9.678 -0.2035 -0.0197 -0.2155
 2203COC    COC 2203   7.414   7.119   9.895 -0.1024 -0.2240  0.2063
 2204COC    COC 2204   7.428   7.203  10.171 -0.1167 -0.0544  0.0336
 2205COC    COC 2205   7.537   6.977  10.300  0.3142 -0.4195 -0.3154
 2206COC    COC 2206   7.390   6.972   0.248  0.1103 -0.4368 -0.3842
 2207COC    COC 2207   7.131   7.042   0.394 -0.1224  0.4049  0.1379
 2208COH    COH 2208   6.965   7.262   0.344 -0.6841 -0.0261 -0.1626
 2209COH    COH 2209   6.214   6.030   2.417 -0.1544  0.0733  0.0635
 2210COC    COC 2210   6.159   6.241   2.254  0.3687  0.0071  0.0448
 2211COC    COC 2211   6.429   6.298   2.108  0.2379  0.0662  0.0408
 2212COC    COC 2212   6.452   6.276   1.814  0.2394  0.4371 -0.1666
 2213COC    COC 2213   6.327   5.999   1.798  0.0501 -0.0410  0.2623
 2214COC    COC 2214   6.405   5.798   2.014  0.4784 -0.0908 -0.1552
 2215COC    COC 2215   6.567   5.555   1.964  0.1075 -0.2966 -0.5478
 2216COC    COC 2216   6.815   5.567   2.082  0.0267  0.2669 -0.2574
 2217COC    COC 2217   6.897   5.450   2.353  0.3497  0.1536  0.1236
 2218COC    COC 2218   6.796   5.214   2.468 -0.4525 -0.0117 -0.0064
 2219COC    COC 2219   6.939   4.968   2.412  0.0411  0.0692 -0.0112
 2220COC    COC 2220   7.198   4.872   2.393 -0.0857 -0.1265  0.0810
 2221COC    COC 2221   7.193   4.559   2.445  0.1559  0.3149 -0.1070
 2222COC    COC 2222   7.174   4.320   2.247  0.4992  0.1605  0.4563
 2223COC    COC 2223   7.369   4.153   2.388 -0.4335 -0.1314  0.2739
 2224COC    COC 2224   7.387   3.858   2.363 -0.0463  0.1393 -0.2315
 2225COC    COC 2225   7.604   3.646   2.311  0.0545  0.4408 -0.0733
 2226COC    COC 2226   7.908   3.572   2.346 -0.1050 -0.1645 -0.0152
 2227COC    COC 2227   8.104   3.354   2.255 -0.2951 -0.1771  0.0028
 2228COC    COC 2228   8.008   3.067   2.115  0.1073  0.0013  0.1970
 2229COC    COC 2229   7.856   2.903   1.945 -0.0718 -0.2955  0.1570
 2230COC    COC 2230   7.821   2.604   1.884  0.3190 -0.6774  0.1524
 2231COC    COC 2231   7.649   2.445   1.793 -0.2300  0.2225 -0.0656
 2232COC    COC 2232   7.418   2.286   1.944  0.2391 -0.1354 -0.2995
 2233COC    COC 2233   7.294   2.018   2.016 -0.2264 -0.4875 -0.3572
 2234COC    COC 2234   7.259   1.712   2.101  0.4020 -0.2133 -0.3236
 2235COC    COC 2235   7.366   1.677   2.388  0.1503  0.3084 -0.1411
 2236COC    COC 2236   7.120   1.757   2.502 -0.1751  0.0438  0.3426
 2237COC    COC 2237   7.116   1.981   2.705  0.2604 -0.3343  0.1073
 2238COC    COC 2238   7.035   2.254   2.831  0.1054 -0.0806 -0.5246
 2239COC    COC 2239   7.049   2.549   2.916 -0.0389  0.0904  0.0038
 2240COC    COC 2240   7.351   2.608   2.915  0.1038 -0.0890 -0.2570
 2241COC    COC 2241   7.454   2.662   3.190 -0.2935  0.3944 -0.0673
 2242COC    COC 2242   7.709   2.530   3.222 -0.3749 -0.1101 -0.2260
 2243COC    COC 2243   7.644   2.283   3.452  0.0264  0.0701  0.1357
 2244COC    COC 2244   7.449   2.417   3.639 -0.0167 -0.0542  0.1813
 2245COC    COC 2245   7.154   2.395   3.660 -0.2694  0.5108 -0.2308
 2246COC    COC 2246   7.061   2.621   3.835  0.1994  0.3609 -0.0890
 2247COC    COC 2247   6.942   2.901   3.755 -0.3305 -0.0749 -0.0984
 2248COC    COC 2248   7.018   3.205   3.730  0.2105 -0.0040  0.0108
 2249COC    COC 2249   6.770   3.389   3.658  0.0949  0.2826  0.1535
 2250COC    COC 2250   6.755   3.592   3.463  0.1030 -0.4051 -0.1084
 2251COC    COC 2251   6.907   3.777   3.342 -0.1002  0.0130  0.3146
 2252COC    COC 2252   6.812   3.879   3.076 -0.0693 -0.1799  0.6276
 2253COC    COC 2253   6.777   4.178   2.979 -0.3640  0.1104 -0.0603
 2254COH    COH 2254   6.938   4.389   2.929  0.1212 -0.2540 -0.0842
 2255COH    COH 2255   7.670   4.158   8.801 -0.0048  0.3021  0.0789
 2256COC    COC 2256   7.732   4.362   8.936 -0.2636  0.2915  0.2652
 2257COC    COC 2257   7.542   4.354   9.189 -0.1961 -0.0062 -0.1990
 2258COC    COC 2258   7.250   4.452   9.149 -0.2399 -0.0868 -0.4041
 2259COC    COC 2259   7.113   4.700   9.243  0.1429 -0.0077  0.1754
 2260COC    COC 2260   7.204   4.900   9.094 -0.0892 -0.1095 -0.1566
 2261COC    COC 2261   7.155   5.126   9.287  0.2796  0.2668 -0.1516
 2262COC    COC 2262   7.278   5.422   9.275  0.1299  0.4845  0.0762
 2263COC    COC 2263   7.113   5.660   9.312  0.3456 -0.2587  0.2182
 2264COC    COC 2264   7.194   5.913   9.402 -0.3415  0.2038  0.0059
 2265COC    COC 2265   7.428   6.106   9.475  0.1144 -0.2866 -0.0253
 2266COC    COC 2266   7.401   6.425   9.367 -0.2227 -0.0287 -0.1986
 2267COC    COC 2267   7.652   6.563   9.444  0.3399  0.1934 -0.5926
 2268COC    COC 2268   7.769   6.625   9.196  0.0086 -0.0173 -0.0975
 2269COC    COC 2269   8.015   6.828   9.126  0.3224 -0.0392 -0.1680
 2270COC    COC 2270   8.284   6.976   9.083  0.2309  0.1514  0.0879
 2271COC    COC 2271   8.484   6.990   8.872  0.0159  0.1990  0.0913
 2272COC    COC 2272   8.480   7.241   8.706 -0.0944  0.3077  0.0942
 2273COC    COC 2273   8.246   7.431   8.712 -0.0731  0.2057  0.0713
 2274COC    COC 2274   8.135   7.633   8.505 -0.1809  0.0114  0.1069
 2275COC    COC 2275   7.813   7.626   8.398  0.3208 -0.3151  0.1965
 2276COC    COC 2276   7.811   7.502   8.140  0.0929 -0.0755  0.1238
 2277COC    COC 2277   7.983   7.413   7.907 -0.3520 -0.1108 -0.3504
 2278COC    COC 2278   8.024   7.098   7.903  0.0643 -0.4490  0.1200
 2279COC    COC 2279   8.203   7.043   7.701 -0.2940  0.1986  0.2832
 2280COC    COC 2280   8.345   6.977   7.430 -0.2878 -0.1810 -0.2766
 2281COC    COC 2281   8.248   7.067   7.172  0.2325 -0.1210  0.3179
 2282COC    COC 2282   8.010   7.150   7.016 -0.4304  0.0753 -0.1406
 2283COC    COC 2283   7.769   7.057   6.858  0.2604  0.0379 -0.3942
 2284COC    COC 2284   7.649   7.058   6.586  0.3593  0.1674 -0.2057
 2285COC    COC 2285   7.340   7.043   6.493 -0.2473  0.0565  0.4219
 2286COC    COC 2286   7.255   7.355   6.457 -0.2596 -0.5310 -0.0524
 2287COC    COC 2287   7.055   7.518   6.274  0.2204 -0.1773  0.1467
 2288COC    COC 2288   6.832   7.426   6.050 -0.1312 -0.3794  0.0070
 2289COC    COC 2289   6.833   7.258   5.788 -0.2467  0.1394  0.4692
 2290COC    COC 2290   6.768   6.968   5.761  0.0582  0.1512  0.0725
 2291COC    COC 2291   6.929   6.715   5.704 -0.0353  0.2252  0.1326
 2292COC    COC 2292   6.956   6.511   5.478  0.0461  0.0604  0.1682
 2293COC    COC 2293   7.105   6.233   5.546  0.1915  0.0534  0.1356
 2294COC    COC 2294   7.308   6.173   5.305 -0.1017  0.0491 -0.2114
 2295COC    COC 2295   7.564   6.114   5.420 -0.2591  0.2199 -0.3741
 2296COC    COC 2296   7.821   6.254   5.378 -0.0591 -0.1026 -0.0242
 2297COC    COC 2297   7.901   6.552   5.431 -0.0744  0.1322  0.4639
 2298COC    COC 2298   7.925   6.664   5.135  0.0075 -0.1026 -0.0065
 2299COC    COC 2299   8.040   6.498   4.886  0.1805 -0.1796  0.1357
 2300COH    COH 2300   7.980   6.275   5.047 -0.3797  0.0289  0.0916
 2301COH    COH 2301   1.810   0.069   0.338  0.1121 -0.1167 -0.1350
 2302COC    COC 2302   1.670  10.218   0.526 -0.0368 -0.1068 -0.0637
 2303COC    COC 2303   1.383  10.105   0.522 -0.0284 -0.3871  0.2497
 2304COC    COC 2304   1.143  10.125   0.323  0.1628 -0.1011 -0.2598
 2305COC    COC 2305   1.144  10.273   0.073  0.4481 -0.0493 -0.3525
 2306COC    COC 2306   1.084  10.107  10.167 -0.3073  0.1100 -0.1697
 2307COC    COC 2307   1.363  10.090   9.995 -0.2983  0.2468  0.2024
 2308COC    COC 2308   1.674   9.997  10.032 -0.0114 -0.2656 -0.1872
 2309COC    COC 2309   1.935   9.803   9.918  0.4179  0.2230  0.1604
 2310COC    COC 2310   1.993   9.813   9.611  0.0096 -0.3925  0.0681
 2311COC    COC 2311   2.202   9.605   9.458 -0.1053 -0.0653  0.1581
 2312COC    COC 2312   2.034   9.421   9.365  0.0031  0.0152  0.0499
 2313COC    COC 2313   1.709   9.389   9.354 -0.1263 -0.2498 -0.1317
 2314COC    COC 2314   1.712   9.704   9.209  0.4715  0.2953 -0.0704
 2315COC    COC 2315   1.924   9.723   9.004  0.2950  0.1615  0.0481
 2316COC    COC 2316   2.184   9.616   8.991  0.0253 -0.0926 -0.1895
 2317COC    COC 2317   2.192   9.451   8.766  0.0876  0.0440 -0.3272
 2318COC    COC 2318   1.987   9.352   8.582 -0.1688  0.1373  0.1465
 2319COC    COC 2319   1.871   9.085   8.532  0.0712  0.1420  0.2628
 2320COC    COC 2320   1.592   9.033   8.703 -0.6375  0.0982 -0.0620
 2321COC    COC 2321   1.541   8.945   9.015 -0.0142 -0.0106  0.2905
 2322COC    COC 2322   1.693   8.762   9.176  0.0562 -0.1661  0.5071
 2323COC    COC 2323   1.811   8.928   9.427  0.0915  0.1516  0.2334
 2324COC    COC 2324   1.542   8.989   9.583  0.2756 -0.2220  0.5823
 2325COC    COC 2325   1.590   8.917   9.872 -0.0727  0.3399 -0.3468
 2326COC    COC 2326   1.394   9.083  10.035 -0.4506  0.1620  0.2658
 2327COC    COC 2327   1.536   9.357  10.033  0.1738  0.3732 -0.2274
 2328COC    COC 2328   1.423   9.625  10.130 -0.3474  0.1705  0.1528
 2329COC    COC 2329   1.130   9.657  10.194  0.2960 -0.2047  0.2180
 2330COC    COC 2330   1.019   9.743   0.128  0.1119  0.3817 -0.0366
 2331COC    COC 2331   0.780   9.775   0.282  0.1517  0.0687 -0.1826
 2332COC    COC 2332   0.463   9.716   0.239  0.1248  0.3811  0.0956
 2333COC    COC 2333   0.255   9.920   0.162 -0.1318 -0.1815  0.0027
 2334COC    COC 2334   0.135  10.009  10.265 -0.1066  0.3148  0.2913
 2335COC    COC 2335   0.061   9.775  10.027  0.1546  0.0291  0.2722
 2336COC    COC 2336   0.122   9.509  10.195  0.3610  0.5629  0.3919
 2337COC    COC 2337  10.331   9.249  10.137  0.2809  0.0992  0.2039
 2338COC    COC 2338  10.072   9.132  10.287 -0.0043  0.2381  0.3252
 2339COC    COC 2339   9.904   9.352   0.053 -0.2166 -0.0275  0.0479
 2340COC    COC 2340   9.661   9.427   0.220 -0.2036  0.0486 -0.0108
 2341COC    COC 2341   9.475   9.580   0.336  0.0505  0.0918  0.3907
 2342COC    COC 2342   9.466   9.567   0.673 -0.0366  0.3380  0.0919
 2343COC    COC 2343   9.201   9.693   0.819 -0.1351  0.2161 -0.3862
 2344COC    COC 2344   8.946   9.505   0.802  0.3136  0.1747 -0.0242
 2345COC    COC 2345   8.819   9.349   1.015 -0.2718  0.0287  0.3054
 2346COH    COH 2346   8.948   9.162   0.899  0.0902  0.6139 -0.1313
 2347COH    COH 2347   2.803  10.093   0.825 -0.0987  0.0714  0.0423
 2348COC    COC 2348   2.552  10.176   0.895  0.1719  0.1675  0.2071
 2349COC    COC 2349   2.464   9.848   0.827 -0.2484 -0.2102  0.1089
 2350COC    COC 2350   2.670   9.618   0.890  0.1121 -0.0680 -0.0646
 2351COC    COC 2351   2.860   9.520   1.113  0.2893 -0.0482  0.1455
 2352COC    COC 2352   3.154   9.559   1.199  0.2573  0.4253  0.1227
 2353COC    COC 2353   3.269   9.681   0.948 -0.0515 -0.0118 -0.2361
 2354COC    COC 2354   3.410   9.914   1.072 -0.3694 -0.3252  0.1218
 2355COC    COC 2355   3.462  10.200   1.010 -0.0033 -0.0636 -0.1262
 2356COC    COC 2356   3.719   0.051   0.965 -0.1277 -0.1076  0.3723
 2357COC    COC 2357   3.677   0.115   0.674 -0.1681  0.0736 -0.2448
 2358COC    COC 2358   3.816  10.248   0.476 -0.1209 -0.0117  0.1581
 2359COC    COC 2359   3.604  10.022   0.506 -0.2387 -0.3119  0.3327
 2360COC    COC 2360   3.691   9.838   0.724 -0.4667 -0.0518 -0.0644
 2361COC    COC 2361   3.868   9.896   0.935  0.1949  0.3461 -0.2388
 2362COC    COC 2362   3.787   9.875   1.266  0.4330  0.1881  0.0300
 2363COC    COC 2363   3.989   9.906   1.515  0.0876  0.1588  0.3748
 2364COC    COC 2364   4.153  10.099   1.635 -0.0911  0.2827 -0.1512
 2365COC    COC 2365   4.120  10.336   1.749  0.1166  0.3977 -0.0916
 2366COC    COC 2366   4.140   0.298   1.699  0.3473  0.0939 -0.2957
 2367COC    COC 2367   3.839   0.381   1.748  0.0959 -0.3059  0.2198
 2368COC    COC 2368   3.527   0.350   1.708  0.0791 -0.4377  0.2564
 2369COC    COC 2369   3.210   0.223   1.698  0.0097  0.0130 -0.3845
 2370COC    COC 2370   3.319  10.291   1.810 -0.4185  0.3597 -0.1802
 2371COC    COC 2371   3.225  10.002   1.749 -0.3608 -0.1722 -0.0950
 2372COC    COC 2372   3.105   9.832   1.991  0.3498 -0.2034  0.1103
 2373COC    COC 2373   3.175   9.728   2.292 -0.1105 -0.8125  0.0392
 2374COC    COC 2374   3.207   9.458   2.337 -0.0846 -0.2676  0.0309
 2375COC    COC 2375   3.088   9.207   2.221  0.0439  0.0566  0.2276
 2376COC    COC 2376   3.067   9.287   1.932  0.0783 -0.4276  0.2551
 2377COC    COC 2377   3.279   9.166   1.760 -0.0823  0.2882 -0.3010
 2378COC    COC 2378   3.264   8.885   1.733 -0.0828  0.1999  0.2538
 2379COC    COC 2379   3.073   8.732   1.560  0.6101  0.2822 -0.2711
 2380COC    COC 2380   3.068   8.432   1.675  0.3139  0.0175  0.2544
 2381COC    COC 2381   3.281   8.405   1.871  0.6880  0.2778 -0.0352
 2382COC    COC 2382   3.369   8.538   2.164 -0.0251  0.0976  0.1474
 2383COC    COC 2383   3.317   8.830   2.240  0.0587 -0.3047 -0.0217
 2384COC    COC 2384   3.554   8.999   2.202  0.6991 -0.3661  0.1427
 2385COC    COC 2385   3.607   9.193   2.411 -0.4833 -0.2968 -0.2463
 2386COC    COC 2386   3.887   9.079   2.479 -0.0953 -0.0297  0.2640
 2387COC    COC 2387   4.156   9.236   2.458 -0.1578 -0.0177 -0.2368
 2388COC    COC 2388   4.440   9.178   2.585  0.0375 -0.4919  0.0541
 2389COC    COC 2389   4.586   8.959   2.643 -0.3258  0.0309 -0.0986
 2390COC    COC 2390   4.798   8.920   2.885 -0.0749 -0.0607  0.1443
 2391COC    COC 2391   4.663   8.941   3.153 -0.0962  0.2500 -0.4801
 2392COH    COH 2392   4.853   8.975   3.319 -0.0747 -0.3162 -0.3744
 2393COH    COH 2393   6.942   4.841   0.677  0.0609  0.0647  0.2148
 2394COC    COC 2394   6.810   5.043   0.778 -0.2615 -0.0269 -0.0839
 2395COC    COC 2395   6.852   5.214   0.552 -0.2756 -0.5732  0.3592
 2396COC    COC 2396   7.057   5.428   0.541 -0.2521 -0.1725  0.0434
 2397COC    COC 2397   7.253   5.375   0.302 -0.0665  0.0115 -0.1797
 2398COC    COC 2398   7.454   5.169   0.280 -0.3599  0.2360  0.2018
 2399COC    COC 2399   7.619   5.273   0.046 -0.1923  0.0140  0.5158
 2400COC    COC 2400   7.519   5.472  10.159  0.1399 -0.0471 -0.1092
 2401COC    COC 2401   7.267   5.381  10.078  0.2317  0.1169 -0.0991
 2402COC    COC 2402   7.172   5.386   9.765  0.2450 -0.5248 -0.0543
 2403COC    COC 2403   7.149   5.721   9.784  0.2278 -0.1768  0.1369
 2404COC    COC 2404   7.350   5.924   9.876  0.1711  0.2096 -0.0043
 2405COC    COC 2405   7.633   5.891  10.017 -0.5096  0.2020  0.0492
 2406COC    COC 2406   7.820   6.045  10.199 -0.5106 -0.2304 -0.2268
 2407COC    COC 2407   7.711   6.114   0.123  0.1133 -0.1799  0.3241
 2408COC    COC 2408   7.748   6.023   0.426  0.3910 -0.0026 -0.2242
 2409COC    COC 2409   7.925   5.823   0.522 -0.1955 -0.2753  0.1299
 2410COC    COC 2410   7.993   5.528   0.531  0.2929 -0.1678  0.4541
 2411COC    COC 2411   7.970   5.226   0.409 -0.1941 -0.0412 -0.3566
 2412COC    COC 2412   7.784   5.062   0.606  0.0500  0.0142 -0.0847
 2413COC    COC 2413   7.703   4.865   0.862  0.4609  0.1433  0.2522
 2414COC    COC 2414   7.684   4.826   1.138 -0.3064 -0.5050  0.1736
 2415COC    COC 2415   7.387   4.837   1.119 -0.0454 -0.6492  0.0716
 2416COC    COC 2416   7.150   5.020   1.192 -0.3382 -0.1728  0.1122
 2417COC    COC 2417   7.092   5.274   1.016  0.2804 -0.0909  0.2214
 2418COC    COC 2418   7.194   5.577   0.954  0.2628 -0.1697  0.2713
 2419COC    COC 2419   7.050   5.798   0.953  0.0262 -0.6930 -0.0136
 2420COC    COC 2420   6.865   5.853   1.189  0.3201  0.2499 -0.0165
 2421COC    COC 2421   6.795   6.135   1.228 -0.0726 -0.3937 -0.0181
 2422COC    COC 2422   6.856   6.265   1.482  0.0665  0.3576 -0.0462
 2423COC    COC 2423   6.843   6.058   1.714 -0.0247  0.1725 -0.0539
 2424COC    COC 2424   6.991   5.828   1.638 -0.1066 -0.0715 -0.1670
 2425COC    COC 2425   7.125   5.639   1.840 -0.0188 -0.2153  0.1728
 2426COC    COC 2426   7.263   5.486   2.055  0.0216 -0.1926  0.2672
 2427COC    COC 2427   7.522   5.569   2.194  0.4365 -0.3680  0.2721
 2428COC    COC 2428   7.701   5.771   2.116 -0.3220  0.1407  0.3187
 2429COC    COC 2429   7.673   6.030   2.291  0.0093 -0.0502 -0.1750
 2430COC    COC 2430   7.837   6.140   2.546  0.0560  0.0125  0.1129
 2431COC    COC 2431   8.108   6.093   2.541  0.0123 -0.1592 -0.0943
 2432COC    COC 2432   8.169   5.841   2.373  0.2072  0.6505  0.0844
 2433COC    COC 2433   8.154   5.864   2.088  0.1564  0.1453  0.1071
 2434COC    COC 2434   8.022   6.145   2.078 -0.0760 -0.0911  0.2057
 2435COC    COC 2435   8.071   6.419   2.213 -0.0233  0.2143 -0.2736
 2436COC    COC 2436   8.102   6.562   2.492 -0.2089 -0.1104  0.0445
 2437COC    COC 2437   8.075   6.851   2.536 -0.3016  0.0859 -0.0850
 2438COH    COH 2438   7.953   7.004   2.338 -0.0086 -0.0403  0.0080
 2439COH    COH 2439   9.887   4.883   2.384  0.1305  0.2532  0.0865
 2440COC    COC 2440   9.695   5.043   2.440 -0.1717 -0.2225  0.0498
 2441COC    COC 2441   9.434   4.889   2.543 -0.0435 -0.4753  0.2085
 2442COC    COC 2442   9.385   4.573   2.543 -0.1697 -0.2535 -0.0223
 2443COC    COC 2443   9.594   4.435   2.394 -0.3548  0.1050  0.4838
 2444COC    COC 2444   9.737   4.219   2.528  0.2446  0.2941  0.1436
 2445COC    COC 2445   9.797   4.187   2.788 -0.0541 -0.0217  0.0259
 2446COC    COC 2446   9.908   3.898   2.821 -0.0337  0.0829  0.0584
 2447COC    COC 2447  10.230   3.875   2.831  0.4410 -0.0123  0.0857
 2448COC    COC 2448  10.311   4.086   2.623 -0.1203 -0.0644 -0.0242
 2449COC    COC 2449  10.138   4.366   2.636  0.5649  0.1342  0.0440
 2450COC    COC 2450  10.302   4.623   2.573  0.1734 -0.0007 -0.0028
 2451COC    COC 2451   0.033   4.577   2.295 -0.0807 -0.0035  0.0207
 2452COC    COC 2452   0.146   4.777   2.153  0.3212 -0.1438  0.3411
 2453COC    COC 2453   0.440   4.786   2.168  0.0055  0.6227  0.4519
 2454COC    COC 2454   0.522   5.076   2.230  0.2986 -0.2864  0.3261
 2455COC    COC 2455   0.311   5.311   2.307 -0.1369  0.0634 -0.0889
 2456COC    COC 2456   0.134   5.489   2.439 -0.0338  0.0859  0.1493
 2457COC    COC 2457  10.195   5.502   2.269 -0.0840  0.2324 -0.3773
 2458COC    COC 2458   9.970   5.555   2.476  0.0171 -0.4109 -0.1541
 2459COC    COC 2459   9.702   5.446   2.503 -0.0563 -0.3701 -0.1281
 2460COC    COC 2460   9.394   5.481   2.620  0.2603 -0.0704 -0.0447
 2461COC    COC 2461   9.445   5.695   2.832 -0.2530 -0.0429 -0.3158
 2462COC    COC 2462   9.328   5.799   3.129 -0.1777 -0.3632  0.0370
 2463COC    COC 2463   9.554   5.871   3.344 -0.1762  0.0974 -0.0769
 2464COC    COC 2464   9.328   5.920   3.601 -0.0221  0.0627  0.0966
 2465COC    COC 2465   9.042   5.848   3.574 -0.1752 -0.2862 -0.0449
 2466COC    COC 2466   8.798   5.881   3.434  0.4032  0.3387 -0.3476
 2467COC    COC 2467   8.802   5.962   3.160  0.2911  0.3056  0.4121
 2468COC    COC 2468   8.590   5.917   2.938  0.3381  0.2462 -0.1268
 2469COC    COC 2469   8.670   6.161   2.805 -0.2569  0.2881  0.1478
 2470COC    COC 2470   8.440   6.344   2.683 -0.2079  0.0549 -0.0008
 2471COC    COC 2471   8.387   6.626   2.840  0.3323  0.2336  0.0413
 2472COC    COC 2472   8.565   6.898   2.839  0.1826  0.0348 -0.3098
 2473COC    COC 2473   8.406   7.160   2.863 -0.3800 -0.1148  0.0830
 2474COC    COC 2474   8.425   7.149   3.202 -0.2282  0.1238  0.0721
 2475COC    COC 2475   8.616   7.180   3.443  0.3793  0.1522 -0.2910
 2476COC    COC 2476   8.623   7.443   3.581 -0.1703 -0.1504 -0.0344
 2477COC    COC 2477   8.763   7.619   3.373 -0.2198 -0.3364 -0.0659
 2478COC    COC 2478   9.071   7.672   3.394  0.0249  0.0751 -0.1194
 2479COC    COC 2479   9.158   7.907   3.224  0.0356 -0.2316 -0.0624
 2480COC    COC 2480   9.264   8.048   3.469 -0.0536 -0.1736 -0.3294
 2481COC    COC 2481   9.472   8.296   3.358 -0.0482 -0.2981 -0.2931
 2482COC    COC 2482   9.706   8.196   3.491  0.0235 -0.0500 -0.2666
 2483COC    COC 2483   9.592   8.052   3.736  0.2084 -0.1135  0.2162
 2484COH    COH 2484   9.347   8.123   3.863 -0.1711  0.2422 -0.0674
 2485COH    COH 2485   0.325   4.002   2.275  0.2919 -0.4949 -0.3440
 2486COC    COC 2486   0.393   3.895   2.519 -0.0337  0.3749  0.0671
 2487COC    COC 2487   0.590   4.077   2.650  0.1811 -0.0172  0.2070
 2488COC    COC 2488   0.876   3.979   2.527 -0.1814 -0.1898 -0.0535
 2489COC    COC 2489   0.868   3.674   2.469 -0.1920  0.1440  0.0445
 2490COC    COC 2490   0.614   3.509   2.430 -0.2377  0.5312 -0.2641
 2491COC    COC 2491   0.422   3.318   2.254 -0.2090  0.3055 -0.0407
 2492COC    COC 2492   0.448   3.132   2.003 -0.1834 -0.1990  0.2200
 2493COC    COC 2493   0.653   2.874   1.986  0.1156 -0.2179  0.1247
 2494COC    COC 2494   0.897   2.999   1.880  0.0922  0.2609  0.3925
 2495COC    COC 2495   1.219   3.002   1.980  0.1691  0.2232  0.0774
 2496COC    COC 2496   1.444   2.986   1.781  0.1516  0.1060  0.2483
 2497COC    COC 2497   1.627   2.712   1.811  0.2914  0.0021  0.3225
 2498COC    COC 2498   1.659   2.522   2.092 -0.1559 -0.0632  0.0212
 2499COC    COC 2499   1.772   2.649   2.345 -0.0048 -0.0212 -0.0334
 2500COC    COC 2500   1.590   2.617   2.598 -0.3873 -0.3940  0.2813
 2501COC    COC 2501   1.609   2.559   2.903  0.0440 -0.4445 -0.1801
 2502COC    COC 2502   1.743   2.787   3.061  0.0277  0.2580  0.2313
 2503COC    COC 2503   1.976   2.668   3.233 -0.0211 -0.0552  0.3420
 2504COC    COC 2504   1.896   2.675   3.516 -0.0109  0.2687  0.0109
 2505COC    COC 2505   1.607   2.704   3.630  0.1249 -0.2116  0.4386
 2506COC    COC 2506   1.551   2.824   3.887 -0.0904  0.1224 -0.3000
 2507COC    COC 2507   1.761   2.752   4.122  0.2921  0.1737 -0.1296
 2508COC    COC 2508   1.623   2.503   4.138 -0.0262  0.0676  0.1888
 2509COC    COC 2509   1.352   2.437   4.070 -0.3245 -0.4185 -0.0701
 2510COC    COC 2510   1.139   2.584   4.019  0.1371 -0.1794  0.0904
 2511COC    COC 2511   1.112   2.738   3.760 -0.1168  0.0906  0.0029
 2512COC    COC 2512   1.145   3.028   3.876  0.0169 -0.4492  0.1766
 2513COC    COC 2513   1.358   3.263   3.919 -0.1330  0.0369 -0.2149
 2514COC    COC 2514   1.367   3.578   3.904  0.4102  0.0479  0.4906
 2515COC    COC 2515   1.623   3.659   3.827  0.0620 -0.0126 -0.5699
 2516COC    COC 2516   1.860   3.545   3.923 -0.3170  0.0658 -0.0677
 2517COC    COC 2517   1.726   3.371   4.128 -0.0255 -0.1876  0.0555
 2518COC    COC 2518   1.518   3.434   4.352  0.1215  0.2882 -0.0137
 2519COC    COC 2519   1.179   3.411   4.302  0.3495 -0.0044  0.1241
 2520COC    COC 2520   1.160   3.693   4.397  0.0993 -0.0813  0.1789
 2521COC    COC 2521   1.358   3.773   4.593  0.0081  0.2165 -0.0677
 2522COC    COC 2522   1.521   4.012   4.727  0.1161  0.2640  0.1389
 2523COC    COC 2523   1.782   4.021   4.574 -0.2666  0.1320 -0.1595
 2524COC    COC 2524   1.898   4.132   4.327 -0.2644 -0.0191 -0.1883
 2525COC    COC 2525   1.915   4.458   4.297  0.1924  0.2761 -0.0721
 2526COC    COC 2526   1.728   4.538   4.496 -0.2171 -0.2051 -0.1524
 2527COC    COC 2527   1.739   4.413   4.782  0.2903 -0.4644  0.1828
 2528COC    COC 2528   1.590   4.456   5.012 -0.1402  0.5245 -0.2715
 2529COC    COC 2529   1.330   4.655   4.973 -0.2046 -0.4569  0.0201
 2530COH    COH 2530   1.127   4.676   5.163  0.1638  0.2426  0.4372
 2531COH    COH 2531   4.119   6.863   1.525 -0.2300 -0.6008  0.3405
 2532COC    COC 2532   4.046   6.720   1.317  0.2164 -0.1841 -0.1460
 2533COC    COC 2533   3.947   6.956   1.134 -0.0872  0.2004  0.2113
 2534COC    COC 2534   3.723   7.114   1.301  0.0154 -0.2702 -0.0101
 2535COC    COC 2535   3.642   7.342   1.503 -0.0642 -0.3251  0.0785
 2536COC    COC 2536   3.464   7.332   1.732  0.0415 -0.4074  0.2584
 2537COC    COC 2537   3.339   7.580   1.946  0.2817  0.1238 -0.0464
 2538COC    COC 2538   3.445   7.635   2.213 -0.0051 -0.4045  0.1243
 2539COC    COC 2539   3.585   7.480   2.422  0.2000  0.3980  0.1070
 2540COC    COC 2540   3.757   7.441   2.650 -0.3777  0.4154  0.2255
 2541COC    COC 2541   3.926   7.210   2.743 -0.2116  0.0433 -0.1554
 2542COC    COC 2542   4.195   7.097   2.597 -0.2528  0.1417 -0.0264
 2543COC    COC 2543   4.210   7.048   2.288 -0.1731  0.1126  0.6929
 2544COC    COC 2544   3.908   7.036   2.209  0.0405  0.0545  0.0003
 2545COC    COC 2545   3.769   7.222   2.029  0.3393 -0.0128  0.0945
 2546COC    COC 2546   3.823   7.515   2.051  0.3561 -0.0278 -0.0661
 2547COC    COC 2547   4.005   7.540   2.280 -0.3887  0.1969  0.4343
 2548COC    COC 2548   4.307   7.477   2.318  0.0952 -0.1880  0.1263
 2549COC    COC 2549   4.514   7.717   2.346  0.0157 -0.3984  0.1347
 2550COC    COC 2550   4.290   7.915   2.374  0.3618  0.0720 -0.2665
 2551COC    COC 2551   4.334   8.176   2.269  0.5363 -0.0643  0.1810
 2552COC    COC 2552   4.173   8.397   2.358 -0.1166  0.1304 -0.3504
 2553COC    COC 2553   3.909   8.313   2.280 -0.2730  0.0234 -0.0288
 2554COC    COC 2554   3.732   8.432   2.497 -0.1314 -0.0796 -0.1077
 2555COC    COC 2555   3.814   8.404   2.785  0.0612 -0.1024  0.0478
 2556COC    COC 2556   3.950   8.221   2.925  0.3322  0.0462 -0.1835
 2557COC    COC 2557   4.013   7.901   3.002  0.0162  0.2075  0.1581
 2558COC    COC 2558   3.853   7.669   2.973 -0.3172 -0.7048 -0.0361
 2559COC    COC 2559   3.818   7.672   3.282 -0.2244  0.2856  0.3638
 2560COC    COC 2560   3.707   7.733   3.562 -0.4658  0.1553 -0.2358
 2561COC    COC 2561   3.820   7.884   3.826 -0.0045 -0.0028 -0.2718
 2562COC    COC 2562   4.007   7.883   4.094  0.0878 -0.0747 -0.0619
 2563COC    COC 2563   4.230   8.073   4.176  0.3547 -0.1731  0.0003
 2564COC    COC 2564   4.509   7.965   4.225  0.3653 -0.0106  0.5253
 2565COC    COC 2565   4.649   8.206   4.386  0.0196  0.3293  0.0099
 2566COC    COC 2566   4.748   8.212   4.709 -0.3684 -0.2425  0.2415
 2567COC    COC 2567   4.628   7.970   4.824  0.3134  0.1535  0.3421
 2568COC    COC 2568   4.390   7.979   5.042  0.0709  0.0266  0.1490
 2569COC    COC 2569   4.143   8.145   5.109 -0.1415 -0.3642  0.1454
 2570COC    COC 2570   4.096   8.198   5.393  0.2479  0.1939  0.0282
 2571COC    COC 2571   4.138   8.509   5.421  0.5225 -0.0079  0.2778
 2572COC    COC 2572   4.328   8.633   5.629 -0.0784  0.2682  0.1080
 2573COC    COC 2573   4.300   8.631   5.926 -0.0441  0.2462 -0.1633
 2574COC    COC 2574   4.371   8.929   6.078 -0.0323  0.0349 -0.0473
 2575COC    COC 2575   4.283   9.064   6.328  0.2622  0.1237  0.3033
 2576COH    COH 2576   4.492   9.206   6.473  0.2654  0.1098 -0.2259
 2577COH    COH 2577   3.324   0.753   0.873  0.3527 -0.1058 -0.1562
 2578COC    COC 2578   3.456   0.945   0.718  0.2105  0.2011  0.1706
 2579COC    COC 2579   3.239   0.941   0.457  0.3286 -0.1655  0.2021
 2580COC    COC 2580   3.143   1.164   0.255 -0.4149  0.2104  0.2159
 2581COC    COC 2581   3.141   1.264  10.305 -0.1478  0.1179 -0.2915
 2582COC    COC 2582   2.941   1.459  10.169  0.1205  0.1851 -0.3169
 2583COC    COC 2583   2.840   1.723  10.208 -0.0441  0.2727 -0.0401
 2584COC    COC 2584   2.581   1.750   0.023 -0.1908  0.0975 -0.1336
 2585COC    COC 2585   2.297   1.725  10.272  0.0974  0.0669 -0.1727
 2586COC    COC 2586   2.069   1.835   0.085 -0.0478  0.2700  0.1573
 2587COC    COC 2587   1.820   1.882  10.204 -0.4485  0.1357 -0.0624
 2588COC    COC 2588   1.586   1.752  10.327 -0.2186  0.0330 -0.3710
 2589COC    COC 2589   1.494   1.486  10.275 -0.3070  0.2810 -0.0632
 2590COC    COC 2590   1.354   1.218   0.037 -0.5593  0.1233 -0.1973
 2591COC    COC 2591   1.514   1.180   0.291  0.0693  0.4649 -0.1308
 2592COC    COC 2592   1.756   1.277   0.420 -0.3927  0.0138 -0.1836
 2593COC    COC 2593   1.802   1.571   0.447 -0.2001  0.1866  0.1880
 2594COC    COC 2594   1.548   1.751   0.379  0.2739  0.2317  0.3746
 2595COC    COC 2595   1.571   1.946   0.586 -0.2812  0.0618  0.2608
 2596COC    COC 2596   1.547   1.784   0.824 -0.0947  0.2105 -0.0326
 2597COC    COC 2597   1.700   1.732   1.091 -0.0074  0.0269 -0.1893
 2598COC    COC 2598   1.565   1.509   1.287  0.1332 -0.3732  0.0227
 2599COC    COC 2599   1.301   1.516   1.137 -0.0204  0.4269  0.0967
 2600COC    COC 2600   1.196   1.539   0.848  0.2770 -0.1616 -0.0764
 2601COC    COC 2601   0.912   1.461   0.765 -0.1282  0.0741 -0.2557
 2602COC    COC 2602   0.762   1.282   0.538 -0.3836  0.1965  0.0386
 2603COC    COC 2603   0.499   1.320   0.409 -0.1935 -0.0705 -0.1848
 2604COC    COC 2604   0.496   1.429   0.115  0.3434  0.4212  0.0057
 2605COC    COC 2605   0.712   1.561  10.280 -0.3696  0.0033 -0.1812
 2606COC    COC 2606   0.990   1.708   0.074  0.2847  0.1113  0.0271
 2607COC    COC 2607   1.181   1.922  10.307 -0.0700  0.3456  0.0184
 2608COC    COC 2608   1.047   2.232  10.252 -0.2722 -0.3270 -0.1325
 2609COC    COC 2609   1.152   2.524  10.329  0.2368  0.3640  0.4742
 2610COC    COC 2610   1.391   2.724  10.269 -0.2607  0.0604  0.1713
 2611COC    COC 2611   1.674   2.593  10.294  0.0638 -0.2406  0.1969
 2612COC    COC 2612   1.948   2.713  10.232 -0.1397  0.0484 -0.2971
 2613COC    COC 2613   2.058   2.535   9.988 -0.0390  0.1901 -0.0199
 2614COC    COC 2614   1.923   2.313   9.802 -0.2031  0.1537  0.0470
 2615COC    COC 2615   1.681   2.235   9.903  0.3130 -0.2454  0.0108
 2616COC    COC 2616   1.443   2.090   9.994 -0.1573  0.0611 -0.4403
 2617COC    COC 2617   1.325   1.944   9.734 -0.0686  0.0123  0.3720
 2618COC    COC 2618   1.395   1.650   9.692  0.1642 -0.0200 -0.0150
 2619COC    COC 2619   1.649   1.632   9.886 -0.6332  0.1808  0.3179
 2620COC    COC 2620   1.852   1.469  10.073  0.0609 -0.1903 -0.0296
 2621COC    COC 2621   1.735   1.206   9.935 -0.1595 -0.0247 -0.1144
 2622COH    COH 2622   1.475   1.164   9.874 -0.1355 -0.0298 -0.1847
 2623COH    COH 2623   4.247   0.407   7.075 -0.4102  0.0040  0.2673
 2624COC    COC 2624   4.383   0.436   7.289 -0.4337  0.0615 -0.1488
 2625COC    COC 2625   4.640   0.236   7.333  0.1893 -0.1950  0.0724
 2626COC    COC 2626   4.779   0.317   7.073  0.2092  0.3483  0.2438
 2627COC    COC 2627   4.938   0.130   6.920 -0.1771  0.3154  0.5206
 2628COC    COC 2628   4.898  10.203   7.019  0.5046  0.1771  0.0245
 2629COC    COC 2629   5.143  10.053   6.980 -0.0111  0.4096 -0.1497
 2630COC    COC 2630   5.375  10.242   6.836  0.1910 -0.0062 -0.0020
 2631COC    COC 2631   5.299   0.124   6.630  0.2272 -0.1624 -0.0178
 2632COC    COC 2632   5.059   0.076   6.482 -0.0896  0.0349 -0.0628
 2633COC    COC 2633   4.914  10.126   6.516  0.0768 -0.1375  0.0348
 2634COC    COC 2634   4.653  10.318   6.579 -0.1993  0.2386 -0.1908
 2635COC    COC 2635   4.559   0.124   6.346 -0.3989  0.5141  0.2394
 2636COC    COC 2636   4.803   0.177   6.184 -0.0391  0.2531 -0.2438
 2637COC    COC 2637   4.760   0.119   5.892  0.1110 -0.3247 -0.1484
 2638COC    COC 2638   4.705  10.184   5.781  0.3866 -0.2683  0.0684
 2639COC    COC 2639   4.877   9.938   5.735 -0.0176 -0.3998  0.4036
 2640COC    COC 2640   4.904   9.726   5.556  0.2523 -0.0807 -0.1233
 2641COC    COC 2641   4.689   9.523   5.481 -0.0446  0.0261  0.0892
 2642COC    COC 2642   4.373   9.461   5.495 -0.1163 -0.5287  0.1305
 2643COC    COC 2643   4.200   9.659   5.305  0.0047 -0.0329  0.1205
 2644COC    COC 2644   4.314   9.919   5.259  0.2277 -0.0470 -0.0370
 2645COC    COC 2645   4.580  10.019   5.379  0.1240 -0.1076  0.1049
 2646COC    COC 2646   4.705  10.314   5.280  0.2962  0.0477  0.1343
 2647COC    COC 2647   4.953   0.093   5.407  0.0640 -0.2475 -0.2473
 2648COC    COC 2648   5.149   0.109   5.645  0.6721 -0.0760 -0.4373
 2649COC    COC 2649   5.192   0.235   5.964  0.0523 -0.5017 -0.1936
 2650COC    COC 2650   5.477   0.245   6.002  0.0692  0.5276 -0.1240
 2651COC    COC 2651   5.547   0.321   6.254 -0.5635 -0.1742 -0.2214
 2652COC    COC 2652   5.367   0.461   6.362 -0.5172 -0.2185  0.1008
 2653COC    COC 2653   5.237   0.629   6.129  0.1605  0.2505 -0.2979
 2654COC    COC 2654   5.079   0.893   6.198 -0.1672  0.2152  0.2461
 2655COC    COC 2655   4.760   0.898   6.241 -0.1211 -0.0052 -0.0692
 2656COC    COC 2656   4.473   0.988   6.165  0.5496 -0.3261  0.0069
 2657COC    COC 2657   4.322   1.251   6.202  0.2148 -0.0765  0.3054
 2658COC    COC 2658   4.356   1.416   6.448 -0.2849  0.0761 -0.2925
 2659COC    COC 2659   4.245   1.378   6.740  0.0226 -0.1329  0.2761
 2660COC    COC 2660   4.035   1.187   6.814 -0.0049  0.3307 -0.1479
 2661COC    COC 2661   4.051   1.292   7.087  0.0127  0.6301  0.1606
 2662COC    COC 2662   3.849   1.375   7.284 -0.3163 -0.2870 -0.0193
 2663COC    COC 2663   3.678   1.267   7.538 -0.1651 -0.0877  0.2005
 2664COC    COC 2664   3.550   0.971   7.513  0.1309  0.1899 -0.1050
 2665COC    COC 2665   3.428   0.857   7.803 -0.2109  0.0268  0.4044
 2666COC    COC 2666   3.186   1.026   7.823  0.1988  0.0007  0.3865
 2667COC    COC 2667   2.904   0.862   7.839 -0.3333 -0.4668  0.4874
 2668COH    COH 2668   2.873   0.611   7.875  0.1915  0.3290 -0.3435
 2669COH    COH 2669   9.184   0.679   3.692  0.2506 -0.2150  0.4021
 2670COC    COC 2670   9.392   0.525   3.788  0.0318 -0.1016  0.2091
 2671COC    COC 2671   9.698   0.633   3.771 -0.2061 -0.0223  0.0813
 2672COC    COC 2672   9.792   0.928   3.839  0.6201  0.4674  0.2882
 2673COC    COC 2673   9.769   1.183   3.848 -0.1082 -0.0103  0.0185
 2674COC    COC 2674   9.558   1.354   3.709 -0.1436 -0.0552  0.3599
 2675COC    COC 2675   9.308   1.453   3.906 -0.2052 -0.0663 -0.1465
 2676COC    COC 2676   9.111   1.523   3.725  0.1319 -0.0067  0.2726
 2677COC    COC 2677   8.939   1.781   3.765 -0.0335 -0.1458  0.3012
 2678COC    COC 2678   8.869   2.043   3.890  0.1864  0.2331 -0.3771
 2679COC    COC 2679   8.814   2.069   4.198  0.1959 -0.1286 -0.0165
 2680COC    COC 2680   8.883   2.383   4.174 -0.4891 -0.1870 -0.2212
 2681COC    COC 2681   8.702   2.636   4.234  0.1138 -0.0225  0.0101
 2682COC    COC 2682   8.739   2.933   4.321  0.0939 -0.0002 -0.1424
 2683COC    COC 2683   8.747   2.948   4.613  0.1905  0.0353 -0.1273
 2684COC    COC 2684   8.781   3.121   4.876 -0.0487  0.1252  0.0738
 2685COC    COC 2685   8.615   3.301   5.058 -0.1001  0.2209  0.0024
 2686COC    COC 2686   8.509   3.575   5.018 -0.6504  0.0048  0.3776
 2687COC    COC 2687   8.556   3.789   4.812  0.1660  0.2366  0.1422
 2688COC    COC 2688   8.331   3.968   4.737  0.5270  0.1213  0.2018
 2689COC    COC 2689   8.077   3.852   4.918  0.2437 -0.3003  0.1782
 2690COC    COC 2690   7.833   4.037   4.996 -0.1394  0.0087  0.3509
 2691COC    COC 2691   7.726   3.843   5.218 -0.1274  0.2452  0.5089
 2692COC    COC 2692   7.723   3.582   5.289 -0.4061 -0.0301  0.2897
 2693COC    COC 2693   7.558   3.317   5.179  0.5943 -0.0316 -0.2445
 2694COC    COC 2694   7.381   3.240   4.924  0.0695  0.4050  0.2944
 2695COC    COC 2695   7.232   2.972   4.849  0.1470  0.3778 -0.3517
 2696COC    COC 2696   7.144   2.703   4.975  0.1288  0.0062  0.2568
 2697COC    COC 2697   7.405   2.599   5.066 -0.0143  0.2310  0.1115
 2698COC    COC 2698   7.539   2.685   4.798 -0.2177  0.1172 -0.3454
 2699COC    COC 2699   7.574   2.662   4.507 -0.4062  0.4243  0.3770
 2700COC    COC 2700   7.532   2.866   4.349  0.2379 -0.1238  0.2527
 2701COC    COC 2701   7.471   3.141   4.415  0.1844  0.0551 -0.5494
 2702COC    COC 2702   7.636   3.392   4.420 -0.1451 -0.1240 -0.1528
 2703COC    COC 2703   7.611   3.676   4.384 -0.1031 -0.3212 -0.0873
 2704COC    COC 2704   7.610   3.779   4.088 -0.0070  0.1352 -0.0120
 2705COC    COC 2705   7.744   3.665   3.852  0.4406  0.3533 -0.1124
 2706COC    COC 2706   7.877   3.823   3.639 -0.5257  0.3234 -0.1825
 2707COC    COC 2707   8.149   3.814   3.462  0.1872 -0.0436 -0.1196
 2708COC    COC 2708   8.342   3.573   3.408  0.4638 -0.0108 -0.5146
 2709COC    COC 2709   8.290   3.444   3.105 -0.0860 -0.3932  0.0854
 2710COC    COC 2710   8.200   3.188   2.962  0.1379  0.3776  0.0142
 2711COC    COC 2711   8.024   3.159   2.792 -0.2327  0.2021 -0.1686
 2712COC    COC 2712   7.818   3.384   2.810  0.0243 -0.1970 -0.0514
 2713COC    COC 2713   7.521   3.352   2.872  0.2292  0.0231  0.0201
 2714COH    COH 2714   7.517   3.419   3.144 -0.2345 -0.0810 -0.3047
 2715COH    COH 2715   5.498   5.199   0.741  0.5075 -0.0256  0.3365
 2716COC    COC 2716   5.262   5.041   0.767 -0.5537 -0.0829  0.3027
 2717COC    COC 2717   5.336   4.981   1.064 -0.2900  0.0048  0.5449
 2718COC    COC 2718   5.301   4.778   1.242  0.1168 -0.1070 -0.0959
 2719COC    COC 2719   5.368   4.941   1.496 -0.2209 -0.1694 -0.0839
 2720COC    COC 2720   5.085   4.957   1.646 -0.5578 -0.3129  0.4837
 2721COC    COC 2721   5.035   5.175   1.838 -0.2993  0.2707  0.4631
 2722COC    COC 2722   5.139   5.067   2.123 -0.2170  0.0374  0.4092
 2723COC    COC 2723   5.429   4.996   2.233 -0.1049  0.0496  0.2411
 2724COC    COC 2724   5.541   4.691   2.344 -0.0690 -0.2203  0.2720
 2725COC    COC 2725   5.706   4.715   2.603  0.0239  0.0519  0.2618
 2726COC    COC 2726   5.801   4.957   2.725 -0.5051 -0.2245  0.0144
 2727COC    COC 2727   5.679   5.149   2.928  0.0672  0.4264 -0.0957
 2728COC    COC 2728   5.684   5.451   2.901  0.0072 -0.0062  0.1507
 2729COC    COC 2729   5.862   5.471   2.631 -0.1855  0.2706  0.1667
 2730COC    COC 2730   5.841   5.274   2.391  0.0037  0.0415 -0.4095
 2731COC    COC 2731   5.891   5.209   2.078 -0.3723 -0.0791 -0.2672
 2732COC    COC 2732   6.096   5.112   1.825  0.1280  0.0939  0.2928
 2733COC    COC 2733   6.305   5.206   1.640  0.5676  0.1193 -0.4244
 2734COC    COC 2734   6.600   5.110   1.664  0.3228 -0.2109  0.2055
 2735COC    COC 2735   6.616   4.792   1.702 -0.1551  0.0133  0.0574
 2736COC    COC 2736   6.397   4.743   1.901  0.1043  0.0774 -0.2450
 2737COC    COC 2737   6.150   4.521   1.910 -0.2279 -0.1162 -0.0266
 2738COC    COC 2738   5.997   4.403   1.684  0.3862 -0.2650 -0.1215
 2739COC    COC 2739   5.706   4.315   1.754  0.0137 -0.2812 -0.0249
 2740COC    COC 2740   5.513   4.136   1.855  0.2120 -0.0287  0.0043
 2741COC    COC 2741   5.229   4.088   1.801  0.1419  0.1932  0.0110
 2742COC    COC 2742   4.992   3.887   1.843  0.1942 -0.1688 -0.2736
 2743COC    COC 2743   4.964   3.640   2.025 -0.3955  0.2458  0.2904
 2744COC    COC 2744   4.812   3.709   2.281 -0.3405 -0.1560 -0.2068
 2745COC    COC 2745   4.838   4.029   2.308  0.1190 -0.0909 -0.0183
 2746COC    COC 2746   4.626   4.179   2.465  0.4738  0.1969  0.0643
 2747COC    COC 2747   4.484   4.214   2.722  0.1110  0.1184  0.0342
 2748COC    COC 2748   4.161   4.295   2.721  0.3909  0.0895 -0.1301
 2749COC    COC 2749   3.974   4.406   2.569  0.4046 -0.3263  0.0746
 2750COC    COC 2750   3.638   4.417   2.665  0.0266 -0.0809  0.2568
 2751COC    COC 2751   3.406   4.622   2.750  0.1131 -0.3381 -0.1308
 2752COC    COC 2752   3.180   4.617   2.550 -0.1717 -0.0913  0.1164
 2753COC    COC 2753   3.148   4.728   2.247 -0.2473 -0.4140  0.1541
 2754COC    COC 2754   3.124   4.519   1.969 -0.0563 -0.1957 -0.5112
 2755COC    COC 2755   2.985   4.501   1.666 -0.4032  0.5001  0.2464
 2756COC    COC 2756   3.069   4.706   1.458 -0.2821 -0.0469 -0.0300
 2757COC    COC 2757   3.167   5.002   1.509 -0.1530  0.0452  0.2530
 2758COC    COC 2758   3.254   5.074   1.779  0.2859 -0.0526  0.2077
 2759COC    COC 2759   3.406   4.943   2.017 -0.0291  0.0541  0.1179
 2760COH    COH 2760   3.677   5.008   1.989 -0.0693  0.0720 -0.5134
 2761NCO    NCO 2761   4.097   0.593   6.890  0.2235  0.0883  0.4223
 2762CC1    CC1 2762   4.138   0.640   6.569  0.3092 -0.1830  0.0811
 2763CC1    CC1 2763   4.138   0.416   6.506 -0.4841  0.1551 -0.4146
 2764NCC    NCC 2764   4.099   0.199   6.340  0.1632  0.3071  0.0674
 2765CONH  CONH 2765   3.839   0.078   6.181  0.0778 -0.0464 -0.3773
 2766CC1    CC1 2766   3.855   0.103   5.909 -0.0753 -0.3927  0.1708
 2767CC1    CC1 2767   3.974   0.283   5.769  0.0309  0.5082  0.1758
 2768CC1    CC1 2768   4.104   0.413   5.638 -0.1615  0.0891  0.3170
 2769NCO    NCO 2769   4.233   0.583   5.812  0.3109 -0.0022  0.2785
 2770CONH  CONH 2770   4.181  10.236   6.387  0.4436  0.2298  0.0303
 2771CC1    CC1 2771   4.309  10.167   6.575  0.1382  0.4846 -0.2028
 2772CC1    CC1 2772   4.404   9.965   6.529 -0.3321 -0.0824  0.0163
 2773CC1    CC1 2773   4.409   9.734   6.422  0.1017  0.6317  0.1255
 2774NCO    NCO 2774   4.576   9.485   6.426  0.2960 -0.1557  0.1570
 2775NCO    NCO 2775   5.571   8.212   9.923  0.0296 -0.0225  0.0343
 2776CC1    CC1 2776   5.624   8.027  10.142 -0.0495 -0.1370 -0.0294
 2777CC1    CC1 2777   5.839   7.981  10.216 -0.1870  0.3652 -0.1175
 2778NCC    NCC 2778   6.098   7.877  10.193 -0.0267 -0.2715 -0.0848
 2779CONH  CONH 2779   6.415   7.842  10.273 -0.2031 -0.2607  0.1433
 2780CC1    CC1 2780   6.600   7.697  10.059  0.2242 -0.0365  0.1184
 2781CC1    CC1 2781   6.670   7.493  10.137  0.0845  0.2777 -0.2476
 2782CC1    CC1 2782   6.719   7.315  10.301  0.3330  0.1013  0.1393
 2783NCO    NCO 2783   6.729   7.284   0.240  0.4328  0.1876 -0.1336
 2784CONH  CONH 2784   6.144   7.609  10.009  0.0358 -0.2181 -0.0539
 2785CC1    CC1 2785   6.353   7.461  10.003  0.1683  0.0143  0.1440
 2786CC1    CC1 2786   6.425   7.182  10.041  0.2839 -0.1098  0.1250
 2787CC1    CC1 2787   6.378   6.945  10.049 -0.4480 -0.0730 -0.2725
 2788NCO    NCO 2788   6.601   6.783  10.032 -0.5650 -0.1375 -0.1103
 2789NCO    NCO 2789   9.764   5.642   0.933  0.2607  0.4830  0.0370
 2790CC1    CC1 2790   9.722   5.505   1.186  0.4407  0.0049 -0.1411
 2791CC1    CC1 2791   9.524   5.616   1.327 -0.4141  0.3135  0.1425
 2792NCC    NCC 2792   9.282   5.705   1.437 -0.3985  0.0502 -0.0011
 2793CONH  CONH 2793   9.125   5.631   1.705  0.0866  0.0997  0.0164
 2794CC1    CC1 2794   9.239   5.655   1.973 -0.6479 -0.0142  0.1325
 2795CC1    CC1 2795   9.465   5.574   2.033 -0.0075  0.2287 -0.4888
 2796CC1    CC1 2796   9.706   5.514   2.006  0.0429  0.1710 -0.1624
 2797NCO    NCO 2797   9.732   5.282   2.056 -0.1159  0.0611  0.3695
 2798CONH  CONH 2798   9.030   5.845   1.376  0.0481 -0.1567  0.0198
 2799CC1    CC1 2799   9.035   6.135   1.312 -0.2478 -0.4293 -0.0837
 2800CC1    CC1 2800   9.212   6.306   1.235  0.1636  0.1219  0.1959
 2801CC1    CC1 2801   9.398   6.366   1.094  0.2159 -0.5459 -0.2145
 2802NCO    NCO 2802   9.254   6.464   0.815 -0.1381  0.1932  0.2034
 2803NCO    NCO 2803  10.023   8.891   9.766  0.0497  0.0245  0.1217
 2804CC1    CC1 2804   9.914   9.150   9.806 -0.0130  0.2388 -0.1566
 2805CC1    CC1 2805   9.791   9.130  10.002 -0.1945  0.1099  0.2294
 2806NCC    NCC 2806   9.646   8.982  10.184  0.2993 -0.2167  0.2059
 2807CONH  CONH 2807   9.444   9.080   0.093 -0.0556 -0.5975 -0.4991
 2808CC1    CC1 2808   9.144   9.012   0.117  0.5017  0.2226 -0.1760
 2809CC1    CC1 2809   9.017   9.014   0.267  0.2789  0.2191  0.0185
 2810CC1    CC1 2810   8.953   8.919   0.447 -0.3103  0.6689 -0.2358
 2811NCO    NCO 2811   8.829   9.014   0.691 -0.2357  0.0902  0.1808
 2812CONH  CONH 2812   9.428   8.746  10.210 -0.4981  0.0843  0.0241
 2813CC1    CC1 2813   9.474   8.563   0.034 -0.3601 -0.3727  0.1868
 2814CC1    CC1 2814   9.681   8.436   0.066  0.1332 -0.1415 -0.1120
 2815CC1    CC1 2815   9.866   8.265   0.064  0.4368 -0.4261  0.1121
 2816NCO    NCO 2816   9.712   7.983   0.238  0.0526 -0.1831 -0.2097
 2817NCO    NCO 2817   0.549   4.668   1.722 -0.0692  0.1114  0.0031
 2818CC1    CC1 2818   0.234   4.728   1.676 -0.2729  0.6185  0.4123
 2819CC1    CC1 2819   0.048   4.804   1.693  0.3948  0.2501  0.1080
 2820NCC    NCC 2820  10.138   4.826   1.777 -0.0727 -0.0994  0.2570
 2821CONH  CONH 2821   9.973   4.711   2.049 -0.5671 -0.2864  0.0248
 2822CC1    CC1 2822   9.846   4.511   2.058  0.1077 -0.0607 -0.5395
 2823CC1    CC1 2823   9.968   4.364   2.242 -0.2781 -0.2720 -0.1421
 2824CC1    CC1 2824  10.119   4.212   2.275  0.0229 -0.0532 -0.1603
 2825NCO    NCO 2825   0.042   4.011   2.185  0.2721 -0.1650  0.0900
 2826CONH  CONH 2826   9.829   4.955   1.722 -0.0383  0.1461  0.0242
 2827CC1    CC1 2827   9.736   5.094   1.523 -0.1103 -0.4144 -0.1282
 2828CC1    CC1 2828   9.854   5.123   1.327 -0.0003 -0.8804 -0.1913
 2829CC1    CC1 2829   9.831   5.165   1.085 -0.3166 -0.2412 -0.2026
 2830NCO    NCO 2830  10.102   5.078   0.929 -0.1430  0.0433  0.3395
 2831NCO    NCO 2831   4.708   1.604   8.252  0.0678 -0.5372 -0.2127
 2832CC1    CC1 2832   4.952   1.488   8.424  0.2794 -0.0309  0.3856
 2833CC1    CC1 2833   4.974   1.280   8.365  0.2085 -0.0332  0.3494
 2834NCC    NCC 2834   5.038   1.029   8.332 -0.2633 -0.1790 -0.0586
 2835CONH  CONH 2835   4.909   0.809   8.482 -0.3966  0.2572  0.0090
 2836CC1    CC1 2836   4.649   0.736   8.445 -0.4024  0.1622 -0.4119
 2837CC1    CC1 2837   4.518   0.789   8.253 -0.4965 -0.1952 -0.3741
 2838CC1    CC1 2838   4.353   0.767   8.073  0.3100 -0.1181  0.2227
 2839NCO    NCO 2839   4.315   0.945   7.896 -0.3717  0.4297  0.5466
 2840CONH  CONH 2840   5.256   0.853   8.181 -0.3813 -0.2897  0.0956
 2841CC1    CC1 2841   5.183   0.643   8.030  0.0623 -0.2703  0.3225
 2842CC1    CC1 2842   5.348   0.530   7.914 -0.1818 -0.2846 -0.3179
 2843CC1    CC1 2843   5.550   0.491   7.842  0.1805 -0.5411  0.1641
 2844NCO    NCO 2844   5.702   0.773   7.703 -0.0543 -0.3830  0.3192
 2845NCO    NCO 2845   4.208   3.707   8.047 -0.1388  0.0112  0.0945
 2846CC1    CC1 2846   4.234   3.421   7.964  0.6551 -0.0113 -0.0792
 2847CC1    CC1 2847   4.148   3.226   8.093  0.4788  0.0372 -0.2787
 2848NCC    NCC 2848   3.919   3.133   8.229 -0.1209 -0.0161  0.0020
 2849CONH  CONH 2849   3.739   2.891   8.100 -0.3062 -0.1310  0.0451
 2850CC1    CC1 2850   3.479   2.888   8.124 -0.0647  0.1920  0.3504
 2851CC1    CC1 2851   3.328   2.969   7.961 -0.4021 -0.3324  0.0468
 2852CC1    CC1 2852   3.115   3.021   7.897  0.5041  0.0863  0.3412
 2853NCO    NCO 2853   3.059   3.187   7.674 -0.2473 -0.3231 -0.1174
 2854CONH  CONH 2854   3.836   3.030   8.529 -0.1270 -0.0912  0.0166
 2855CC1    CC1 2855   3.575   2.890   8.598  0.3442  0.0310 -0.1124
 2856CC1    CC1 2856   3.366   2.792   8.520  0.2742  0.4332 -0.1817
 2857CC1    CC1 2857   3.092   2.724   8.484 -0.1869  0.3226  0.1028
 2858NCO    NCO 2858   2.997   2.761   8.218 -0.3674 -0.4212 -0.0953
 2859NCO    NCO 2859   4.374   2.933   6.935 -0.1292  0.1168 -0.2612
 2860CC1    CC1 2860   4.347   3.141   7.096 -0.0993  0.1708 -0.1868
 2861CC1    CC1 2861   4.186   3.019   7.264 -0.2284  0.3744  0.0977
 2862NCC    NCC 2862   4.175   2.903   7.546 -0.4023  0.3051 -0.0570
 2863CONH  CONH 2863   4.242   2.908   7.856  0.0476 -0.0895 -0.5175
 2864CC1    CC1 2864   4.399   2.751   7.977  0.1504  0.2937  0.6224
 2865CC1    CC1 2865   4.372   2.529   7.970  0.0488  0.3409 -0.5832
 2866CC1    CC1 2866   4.197   2.337   8.095 -0.0763 -0.1580 -0.1563
 2867NCO    NCO 2867   3.923   2.360   8.006 -0.1604  0.1778 -0.1087
 2868CONH  CONH 2868   4.113   2.580   7.603  0.3881 -0.1449 -0.0034
 2869CC1    CC1 2869   4.300   2.436   7.661  0.0239  0.0750  0.0467
 2870CC1    CC1 2870   4.233   2.208   7.736  0.1481  0.0934 -0.5111
 2871CC1    CC1 2871   4.089   1.998   7.755  0.2774 -0.1085 -0.0916
 2872NCO    NCO 2872   4.003   1.933   8.010 -0.3650  0.1781  0.1578
 2873NCO    NCO 2873   8.794   0.341   9.306  0.2591 -0.0499  0.0405
 2874CC1    CC1 2874   8.583   0.245   9.073 -0.2054  0.0004  0.1016
 2875CC1    CC1 2875   8.470   0.042   9.147 -0.1408 -0.0780  0.2025
 2876NCC    NCC 2876   8.190  10.311   9.215 -0.2951  0.1012  0.2804
 2877CONH  CONH 2877   7.917   0.136   9.246  0.2637 -0.3698  0.0258
 2878CC1    CC1 2878   7.892   0.318   9.384 -0.8659 -0.2608  0.1949
 2879CC1    CC1 2879   7.909   0.548   9.257 -0.0200 -0.0334 -0.1758
 2880CC1    CC1 2880   7.956   0.766   9.123 -0.3113  0.1555  0.2436
 2881NCO    NCO 2881   7.984   0.970   9.227 -0.1261 -0.1076  0.0912
 2882CONH  CONH 2882   8.090  10.086   9.420 -0.6020  0.0901 -0.0088
 2883CC1    CC1 2883   8.281   9.862   9.479  0.2088 -0.2377 -0.1133
 2884CC1    CC1 2884   8.463   9.887   9.630  0.2564 -0.0649  0.0545
 2885CC1    CC1 2885   8.601  10.032   9.746 -0.1439 -0.1588  0.0030
 2886NCO    NCO 2886   8.585   9.850   9.983  0.1008  0.3136  0.2753
 2887NCO    NCO 2887   1.624   6.013   7.723 -0.3126  0.0611 -0.4485
 2888CC1    CC1 2888   1.584   5.740   7.824  0.0930 -0.0154  0.3980
 2889CC1    CC1 2889   1.466   5.732   8.046  0.1719 -0.7623 -0.2917
 2890NCC    NCC 2890   1.353   5.878   8.317 -0.1093  0.1429  0.1908
 2891CONH  CONH 2891   1.309   6.186   8.388  0.2097  0.2305 -0.2229
 2892CC1    CC1 2892   1.171   6.246   8.638 -0.0290 -0.6326  0.3424
 2893CC1    CC1 2893   1.276   6.316   8.884 -0.3800 -0.2008 -0.4387
 2894CC1    CC1 2894   1.265   6.293   9.115  0.2944 -0.6125 -0.2371
 2895NCO    NCO 2895   1.174   6.526   9.244 -0.3072 -0.2180 -0.1012
 2896CONH  CONH 2896   1.315   5.810   8.654 -0.3887  0.0241  0.4144
 2897CC1    CC1 2897   1.321   5.974   8.812  0.0046  0.2241 -0.1163
 2898CC1    CC1 2898   1.265   5.976   9.037  0.0059  0.2578 -0.2184
 2899CC1    CC1 2899   1.276   6.000   9.280  0.7102  0.1396 -0.1413
 2900NCO    NCO 2900   1.408   5.822   9.459 -0.0462  0.2703 -0.5308
 2901NCO    NCO 2901  10.165   9.521   8.327  0.1045 -0.2406 -0.5392
 2902CC1    CC1 2902  10.289   9.300   8.480 -0.0416 -0.2482 -0.2281
 2903CC1    CC1 2903  10.149   9.110   8.535  0.1634  0.0714  0.2604
 2904NCC    NCC 2904   9.992   8.966   8.693  0.1149  0.2502  0.2307
 2905CONH  CONH 2905   9.952   8.652   8.684 -0.0323 -0.0137 -0.1232
 2906CC1    CC1 2906   9.857   8.530   8.918  0.0426 -0.0151 -0.0028
 2907CC1    CC1 2907   9.680   8.563   9.001  0.1555 -0.3924 -0.2520
 2908CC1    CC1 2908   9.505   8.524   9.158  0.3865  0.0809 -0.5235
 2909NCO    NCO 2909   9.611   8.474   9.409  0.2843  0.0448 -0.1858
 2910CONH  CONH 2910   9.713   9.036   8.845 -0.2555 -0.2073  0.0187
 2911CC1    CC1 2911   9.525   8.864   8.822 -0.1622  0.3087  0.2669
 2912CC1    CC1 2912   9.524   8.733   8.608  0.0368  0.1875 -0.2422
 2913CC1    CC1 2913   9.425   8.655   8.432 -0.1638  0.4307  0.3343
 2914NCO    NCO 2914   9.137   8.731   8.321 -0.2439  0.0051  0.0850
 2915NCO    NCO 2915   3.385   0.740   1.176 -0.0316 -0.3720  0.1408
 2916CC1    CC1 2916   3.688   0.711   1.330  0.4532 -0.3190 -0.0890
 2917CC1    CC1 2917   3.752   0.492   1.371 -0.1528  0.0689 -0.5771
 2918NCC    NCC 2918   3.786   0.202   1.367  0.1500 -0.0672  0.0889
 2919CONH  CONH 2919   4.052   0.031   1.314  0.0125 -0.0231 -0.1037
 2920CC1    CC1 2920   4.263   0.141   1.419 -0.4026  0.0338  0.5051
 2921CC1    CC1 2921   4.473   0.044   1.468  0.1357  0.0169  0.3509
 2922CC1    CC1 2922   4.694  10.242   1.402  0.3534 -0.2978 -0.3057
 2923NCO    NCO 2923   4.865  10.214   1.591  0.3033  0.8168 -0.0650
 2924CONH  CONH 2924   3.629  10.267   1.472 -0.0718  0.0680  0.2706
 2925CC1    CC1 2925   3.349  10.271   1.442 -0.2435  0.3355 -0.1247
 2926CC1    CC1 2926   3.275  10.074   1.366 -0.1903  0.1451  0.0243
 2927CC1    CC1 2927   3.106   9.922   1.284 -0.0151 -0.2597 -0.3152
 2928NCO    NCO 2928   3.027  10.058   1.029  0.1402 -0.0130  0.1260
 2929NCO    NCO 2929   4.116   7.133   1.648 -0.1175  0.6589 -0.5839
 2930CC1    CC1 2930   4.153   7.343   1.893 -0.1049  0.2137  0.2144
 2931CC1    CC1 2931   4.315   7.438   1.897 -0.1057  0.1008  0.5542
 2932NCC    NCC 2932   4.461   7.661   1.843 -0.2145 -0.1596 -0.0390
 2933CONH  CONH 2933   4.564   7.934   1.979 -0.4237 -0.4922  0.2962
 2934CC1    CC1 2934   4.572   8.171   1.835  0.4765  0.2431 -0.1270
 2935CC1    CC1 2935   4.384   8.319   1.865 -0.0212 -0.3951  0.3210
 2936CC1    CC1 2936   4.184   8.409   1.890 -0.0058  0.1117 -0.5387
 2937NCO    NCO 2937   4.205   8.664   1.776 -0.0681 -0.0295 -0.1179
 2938CONH  CONH 2938   4.451   7.869   1.583 -0.0484  0.6081  0.5068
 2939CC1    CC1 2939   4.688   7.940   1.439 -0.1429 -0.1976 -0.0218
 2940CC1    CC1 2940   4.828   7.782   1.356 -0.3190  0.6770 -0.1015
 2941CC1    CC1 2941   4.933   7.615   1.173 -0.3663 -0.0347 -0.0501
 2942NCO    NCO 2942   4.956   7.374   1.354  0.1745  0.2029  0.2418
 2943NCO    NCO 2943   9.902   6.157   1.798 -0.1675  0.0943  0.1008
 2944CC1    CC1 2944   9.840   5.951   2.030 -0.0910 -0.0422  0.0040
 2945CC1    CC1 2945   9.960   5.785   1.977 -0.0463  0.2683  0.2988
 2946NCC    NCC 2946  10.217   5.741   1.861  0.0001 -0.1848 -0.2581
 2947CONH  CONH 2947   0.028   5.970   1.687  0.2045 -0.1898  0.0073
 2948CC1    CC1 2948   0.165   6.155   1.822  0.4477 -0.4100  0.3794
 2949CC1    CC1 2949   0.016   6.233   2.036 -0.0294  0.6270 -0.0932
 2950CC1    CC1 2950   0.018   6.348   2.261 -0.0878  0.2889  0.5500
 2951NCO    NCO 2951   0.272   6.219   2.464  0.3446 -0.0267  0.2760
 2952CONH  CONH 2952   0.172   5.640   1.940  0.0933 -0.4809  0.4276
 2953CC1    CC1 2953   0.294   5.745   2.143 -0.0711 -0.4400 -0.4792
 2954CC1    CC1 2954   0.382   5.925   2.095  0.0095 -0.4170  0.1161
 2955CC1    CC1 2955   0.473   6.101   1.920  0.0119 -0.0549 -0.3296
 2956NCO    NCO 2956   0.473   5.918   1.671 -0.4352  0.1964 -0.0315
 2957NCO    NCO 2957   4.533   1.233   7.704  0.0580 -0.1201  0.0420
 2958CC1    CC1 2958   4.633   1.325   7.973 -0.1618  0.0781 -0.1825
 2959CC1    CC1 2959   4.620   1.227   8.179  0.1328 -0.1496 -0.1544
 2960NCC    NCC 2960   4.609   1.125   8.446  0.0425 -0.2673 -0.0623
 2961CONH  CONH 2961   4.382   1.006   8.653  0.0996  0.3971  0.0076
 2962CC1    CC1 2962   4.213   0.759   8.580  0.0723 -0.4000  0.0241
 2963CC1    CC1 2963   4.300   0.623   8.444 -0.2042  0.0692 -0.0767
 2964CC1    CC1 2964   4.277   0.466   8.274 -0.4107 -0.0379  0.3491
 2965NCO    NCO 2965   4.506   0.413   8.135  0.0165  0.4417  0.1166
 2966CONH  CONH 2966   4.778   1.145   8.698 -0.0805  0.5389 -0.0022
 2967CC1    CC1 2967   4.664   1.026   8.950 -0.1341 -0.1195 -0.0419
 2968CC1    CC1 2968   4.763   0.790   8.950  0.1690  0.5362  0.1632
 2969CC1    CC1 2969   4.807   0.577   9.032  0.2270 -0.1889 -0.2716
 2970NCO    NCO 2970   4.953   0.461   8.803 -0.0191  0.0934 -0.3015
 2971NCO    NCO 2971   3.418   1.004   8.664  0.7231 -0.0263 -0.3148
 2972CC1    CC1 2972   3.253   1.034   8.401  0.2839  0.4044 -0.1585
 2973CC1    CC1 2973   3.285   0.811   8.262  0.1506 -0.2653  0.1429
 2974NCC    NCC 2974   3.475   0.623   8.159 -0.2445  0.1418  0.0236
 2975CONH  CONH 2975   3.588   0.340   8.277  0.1596 -0.0805 -0.3422
 2976CC1    CC1 2976   3.590   0.133   8.133 -0.1486  0.1461  0.2958
 2977CC1    CC1 2977   3.710   0.176   7.931  0.4742  0.1915  0.0258
 2978CC1    CC1 2978   3.807   0.175   7.700 -0.1548 -0.2364  0.1642
 2979NCO    NCO 2979   3.984  10.295   7.760 -0.0833  0.2630  0.0389
 2980CONH  CONH 2980   3.783   0.620   8.046 -0.2428  0.1805 -0.4762
 2981CC1    CC1 2981   3.998   0.732   8.203  0.2406 -0.0815  0.1272
 2982CC1    CC1 2982   4.058   0.904   8.277  0.2968 -0.5614 -0.6503
 2983CC1    CC1 2983   4.069   1.134   8.273  0.3204  0.1066 -0.7810
 2984NCO    NCO 2984   3.855   1.353   8.253 -0.3183 -0.1387 -0.1322
 2985NCO    NCO 2985   4.494   9.988   8.872  0.0957  0.2368  0.2033
 2986CC1    CC1 2986   4.522  10.253   8.872 -0.1846 -0.1728 -0.6798
 2987CC1    CC1 2987   4.667   0.073   8.966 -0.6267  0.0123  0.1723
 2988NCC    NCC 2988   4.845   0.173   9.186  0.0390 -0.0461 -0.0277
 2989CONH  CONH 2989   5.091   0.075   9.327 -0.2231  0.2580  0.4931
 2990CC1    CC1 2990   5.088   0.064   9.606 -0.1529 -0.0828 -0.1642
 2991CC1    CC1 2991   5.037  10.193   9.715  0.0340  0.4614  0.4565
 2992CC1    CC1 2992   4.948   9.997   9.818  0.2296  0.1647 -0.0901
 2993NCO    NCO 2993   5.171   9.854   9.873 -0.0747  0.4536  0.1596
 2994CONH  CONH 2994   4.861   0.383   9.420  0.1011  0.5243  0.1556
 2995CC1    CC1 2995   4.990   0.603   9.360  0.0090 -0.2888 -0.2189
 2996CC1    CC1 2996   5.119   0.603   9.170 -0.2086  0.9501 -0.3882
 2997CC1    CC1 2997   5.324   0.588   9.004  0.5987  0.2061 -0.1137
 2998NCO    NCO 2998   5.536   0.539   9.199  0.2006  0.0233 -0.0375
 2999NCO    NCO 2999   1.060   4.393   5.201  0.2113 -0.0634 -0.0862
 3000CC1    CC1 3000   0.883   4.235   5.418 -0.1029  0.2205  0.4919
 3001CC1    CC1 3001   0.635   4.201   5.342  0.2440 -0.0286  0.0410
 3002NCC    NCC 3002   0.358   4.145   5.251  0.3616 -0.6193  0.1914
 3003CONH  CONH 3003   0.231   3.898   5.112 -0.1326  0.0034 -0.0548
 3004CC1    CC1 3004   0.033   3.816   5.194 -0.6232 -0.0444  0.4686
 3005CC1    CC1 3005   0.005   3.699   5.417  0.1964 -0.6500  0.6805
 3006CC1    CC1 3006   0.051   3.591   5.589  0.2721 -0.2237 -0.4692
 3007NCO    NCO 3007  10.168   3.354   5.636 -0.1333 -0.2387 -0.0444
 3008CONH  CONH 3008   0.076   4.149   5.413  0.0760 -0.0178 -0.1254
 3009CC1    CC1 3009  10.226   4.339   5.401  0.1761 -0.0569  0.0982
 3010CC1    CC1 3010  10.304   4.578   5.369 -0.2632  0.1954 -0.0345
 3011CC1    CC1 3011   0.009   4.776   5.267  0.4521 -0.0084 -0.4025
 3012NCO    NCO 3012   0.148   4.848   5.014 -0.1910  0.0001 -0.0066
 3013NCO    NCO 3013   8.955   9.412   0.079  0.2698 -0.2925  0.2900
 3014CC1    CC1 3014   8.902   9.354   0.344  0.0160  0.3924  0.1640
 3015CC1    CC1 3015   8.833   9.524   0.467  0.4459 -0.0377 -0.3636
 3016NCC    NCC 3016   8.728   9.733   0.551 -0.1831  0.4884  0.1775
 3017CONH  CONH 3017   8.415   9.838   0.513 -0.4283 -0.1505 -0.0441
 3018CC1    CC1 3018   8.330   9.954   0.695  0.0039 -0.0658 -0.1694
 3019CC1    CC1 3019   8.267  10.190   0.744 -0.4446 -0.2611 -0.0121
 3020CC1    CC1 3020   8.149   0.041   0.851 -0.1086 -0.0718  0.2111
 3021NCO    NCO 3021   8.202   0.271   0.700 -0.2996 -0.0195  0.0345
 3022CONH  CONH 3022   8.823   9.959   0.716  0.0181  0.1945 -0.4253
 3023CC1    CC1 3023   8.650  10.025   0.939  0.4952  0.2812  0.0840
 3024CC1    CC1 3024   8.414  10.052   1.033  0.2489  0.0453 -0.5237
 3025CC1    CC1 3025   8.285  10.094   1.211  0.0053 -0.2112 -0.0642
 3026NCO    NCO 3026   8.188   9.886   1.371  0.4213 -0.3324  0.4518
 3027NCO    NCO 3027   3.143   0.475   7.843  0.6307 -0.0364 -0.0350
 3028CC1    CC1 3028   3.380   0.327   7.908  0.2972  0.0577 -0.3850
 3029CC1    CC1 3029   3.520   0.432   7.742  0.4417  0.3981  0.3369
 3030NCC    NCC 3030   3.719   0.577   7.609 -0.0989 -0.0471  0.6281
 3031CONH  CONH 3031   3.822   0.634   7.324  0.0994  0.4769 -0.0591
 3032CC1    CC1 3032   3.638   0.723   7.146 -0.1901 -0.2426  0.1547
 3033CC1    CC1 3033   3.448   0.690   7.201 -0.0778  0.3744 -0.0191
 3034CC1    CC1 3034   3.199   0.712   7.228  0.3420  0.1303  0.0644
 3035NCO    NCO 3035   3.075   0.745   7.498  0.2012  0.1800  0.0690
 3036CONH  CONH 3036   4.069   0.611   7.670 -0.2761  0.3501  0.0183
 3037CC1    CC1 3037   4.182   0.449   7.875  0.0210 -0.1419  0.5246
 3038CC1    CC1 3038   4.097   0.267   8.009 -0.0915 -0.6795 -0.2841
 3039CC1    CC1 3039   4.044   0.101   8.141 -0.5155  0.1744 -0.2708
 3040NCO    NCO 3040   4.145  10.288   8.409 -0.1798  0.0859  0.3339
 3041NCO    NCO 3041   2.944  10.023   7.308  0.2462 -0.3566  0.1865
 3042CC1    CC1 3042   3.147   9.913   7.205  0.1627 -0.4859 -0.6540
 3043CC1    CC1 3043   3.317   9.910   7.349  0.1083  0.0180  0.1777
 3044NCC    NCC 3044   3.493   9.821   7.498 -0.0336  0.1266 -0.0099
 3045CONH  CONH 3045   3.741   9.914   7.644 -0.1794 -0.0207  0.1924
 3046CC1    CC1 3046   3.812   9.818   7.887  0.1979  0.1062  0.0022
 3047CC1    CC1 3047   3.699   9.754   8.030 -0.0416  0.7077 -0.2368
 3048CC1    CC1 3048   3.623   9.627   8.190  0.5279  0.2908  0.1851
 3049NCO    NCO 3049   3.584   9.354   8.134 -0.1882  0.1036 -0.2532
 3050CONH  CONH 3050   3.490   9.567   7.718 -0.1973 -0.2643  0.4562
 3051CC1    CC1 3051   3.291   9.534   7.898  0.0596 -0.6663 -0.0914
 3052CC1    CC1 3052   3.167   9.353   8.019 -0.1662 -0.1362  0.4174
 3053CC1    CC1 3053   3.081   9.145   8.141  0.2439  0.4266  0.1625
 3054NCO    NCO 3054   2.830   9.145   8.205 -0.2608 -0.2075  0.2076
 3055NCO    NCO 3055   3.709   4.258   7.460 -0.1010  0.2177  0.4975
 3056CC1    CC1 3056   3.782   4.402   7.729 -0.2118 -0.5736  0.2355
 3057CC1    CC1 3057   3.982   4.398   7.810  0.1461 -0.5231 -0.3276
 3058NCC    NCC 3058   4.113   4.430   8.063  0.0806 -0.1025 -0.2262
 3059CONH  CONH 3059   4.417   4.421   8.146 -0.0271 -0.2238 -0.2332
 3060CC1    CC1 3060   4.565   4.663   8.179 -0.1202 -0.2464 -0.4401
 3061CC1    CC1 3061   4.613   4.843   8.024  0.2490  0.5402 -0.6022
 3062CC1    CC1 3062   4.716   4.946   7.827  0.1709 -0.1496 -0.1767
 3063NCO    NCO 3063   4.794   5.199   7.867 -0.1420  0.4269  0.3176
 3064CONH  CONH 3064   4.044   4.583   8.324 -0.2091  0.0524 -0.0072
 3065CC1    CC1 3065   3.946   4.836   8.313 -0.3513  0.1645 -0.8877
 3066CC1    CC1 3066   3.719   4.840   8.413  0.1370 -0.5927 -0.0736
 3067CC1    CC1 3067   3.490   4.845   8.409 -0.2606  0.0040 -0.1150
 3068NCO    NCO 3068   3.338   5.058   8.418 -0.3148  0.1464 -0.0117
 3069NCO    NCO 3069   6.958   4.636   2.757  0.6175  0.1291  0.3121
 3070CC1    CC1 3070   7.020   4.892   2.761  0.0283  0.1763  0.2782
 3071CC1    CC1 3071   6.794   5.042   2.826  0.3520 -0.1954 -0.1103
 3072NCC    NCC 3072   6.510   5.149   2.805  0.6260  0.4006 -0.2896
 3073CONH  CONH 3073   6.228   5.080   2.642  0.2178 -0.2416 -0.4113
 3074CC1    CC1 3074   6.246   5.186   2.400  0.0039  0.2963  1.0330
 3075CC1    CC1 3075   6.222   5.400   2.279 -0.1750  0.1528  0.0183
 3076CC1    CC1 3076   6.115   5.538   2.087  0.2269 -0.0209 -0.2848
 3077NCO    NCO 3077   6.081   5.769   2.327  0.0299  0.3080  0.0756
 3078CONH  CONH 3078   6.307   5.222   3.051 -0.2243 -0.0086  0.2324
 3079CC1    CC1 3079   6.040   5.120   3.041  0.1024 -0.1948  0.4065
 3080CC1    CC1 3080   5.999   4.935   3.080 -0.1110  0.0168 -0.0153
 3081CC1    CC1 3081   5.904   4.766   3.072 -0.0167 -0.3253 -0.5193
 3082NCO    NCO 3082   5.639   4.704   3.040  0.1516 -0.3509 -0.0352
 3083NCO    NCO 3083   3.485   1.172   8.079 -0.8493 -0.5162  0.0726
 3084CC1    CC1 3084   3.569   1.113   8.299  0.7470  0.1365  0.1760
 3085CC1    CC1 3085   3.729   0.945   8.352 -0.0887  0.4900  0.1296
 3086NCC    NCC 3086   3.768   0.677   8.486  0.0853 -0.3219 -0.0948
 3087CONH  CONH 3087   3.557   0.513   8.686 -0.1111 -0.1006 -0.1319
 3088CC1    CC1 3088   3.619   0.229   8.756 -0.1907 -0.0936 -0.4252
 3089CC1    CC1 3089   3.789   0.237   8.889  0.2532  0.0064  0.1275
 3090CC1    CC1 3090   3.951   0.189   9.051  0.2989 -0.2878  0.4308
 3091NCO    NCO 3091   4.137  10.272   8.923  0.1153 -0.1397 -0.3062
 3092CONH  CONH 3092   3.912   0.437   8.511 -0.4078  0.1155 -0.0162
 3093CC1    CC1 3093   4.095   0.376   8.757  0.4327  0.5155 -0.1895
 3094CC1    CC1 3094   4.108   0.569   8.903  0.5842  0.3323  0.0226
 3095CC1    CC1 3095   4.250   0.723   8.987  0.0490 -0.2684 -0.2242
 3096NCO    NCO 3096   4.178   0.987   9.045 -0.0598  0.0812 -0.1941
 3097NCO    NCO 3097   5.678   0.104   2.608 -0.1288 -0.2260  0.1522
 3098CC1    CC1 3098   5.734  10.169   2.438  0.4040 -0.6593 -0.2767
 3099CC1    CC1 3099   5.523  10.034   2.463  0.2555 -0.7484 -0.3687
 3100NCC    NCC 3100   5.404   9.804   2.518  0.3781  0.3176 -0.1457
 3101CONH  CONH 3101   5.112   9.647   2.504 -0.3858 -0.1048  0.2134
 3102CC1    CC1 3102   5.025   9.483   2.703 -0.0077 -0.0532  0.1509
 3103CC1    CC1 3103   4.972   9.571   2.989 -0.3464 -0.0298  0.1663
 3104CC1    CC1 3104   4.881   9.533   3.221 -0.0917  0.0794 -0.1124
 3105NCO    NCO 3105   4.975   9.220   3.297 -0.0051 -0.0127  0.0401
 3106CONH  CONH 3106   5.461   9.493   2.611 -0.2553  0.2210 -0.0012
 3107CC1    CC1 3107   5.587   9.409   2.869 -0.2394  0.2978  0.2156
 3108CC1    CC1 3108   5.754   9.494   2.953  0.2976 -0.1445 -0.2353
 3109CC1    CC1 3109   5.869   9.607   3.137 -0.2152 -0.2506 -0.1442
 3110NCO    NCO 3110   5.682   9.770   3.282 -0.1871 -0.3855  0.3549
 3111NCO    NCO 3111   7.519   5.806   6.306  0.5490 -0.3963  0.3860
 3112CC1    CC1 3112   7.267   5.815   6.110 -0.3125  0.2454  0.3158
 3113CC1    CC1 3113   7.304   5.680   5.914 -0.1053  0.3331 -0.2984
 3114NCC    NCC 3114   7.323   5.635   5.638  0.0977 -0.0811 -0.2996
 3115CONH  CONH 3115   7.145   5.591   5.409  0.2979 -0.2624  0.2364
 3116CC1    CC1 3116   7.196   5.708   5.167 -0.0987  0.2228 -0.5387
 3117CC1    CC1 3117   7.381   5.854   5.097 -0.8285 -0.0284  0.2649
 3118CC1    CC1 3118   7.479   6.044   5.004  0.1396  0.2363 -0.3658
 3119NCO    NCO 3119   7.332   6.120   4.783  0.0472  0.2655 -0.2169
 3120CONH  CONH 3120   7.546   5.537   5.416 -0.1404 -0.3626 -0.0281
 3121CC1    CC1 3121   7.683   5.733   5.214  0.0784 -0.2300 -0.1813
 3122CC1    CC1 3122   7.895   5.825   5.224  0.2079 -0.2221  0.1002
 3123CC1    CC1 3123   8.043   5.982   5.320  0.1630 -0.0457 -0.2553
 3124NCO    NCO 3124   8.258   5.947   5.179 -0.4337  0.0171  0.0908
 3125NCO    NCO 3125   9.061   4.529   2.338  0.0481 -0.3513  0.3238
 3126CC1    CC1 3126   8.989   4.832   2.442  0.1156 -0.0505  0.2891
 3127CC1    CC1 3127   9.004   4.933   2.214  0.0742  0.0204 -0.2743
 3128NCC    NCC 3128   9.126   4.940   1.961 -0.1678  0.3376  0.2491
 3129CONH  CONH 3129   9.061   4.854   1.644 -0.3243  0.2749  0.3959
 3130CC1    CC1 3130   8.827   4.709   1.584  0.3472  0.4208  0.3962
 3131CC1    CC1 3131   8.636   4.799   1.475  0.3890  0.1626 -0.0527
 3132CC1    CC1 3132   8.429   4.948   1.449  0.0712  0.1912 -0.0200
 3133NCO    NCO 3133   8.199   4.907   1.312 -0.2166  0.3349  0.0229
 3134CONH  CONH 3134   9.392   5.033   1.823 -0.2518 -0.1854 -0.1001
 3135CC1    CC1 3135   9.410   5.252   1.638  0.2419 -0.3461 -0.4032
 3136CC1    CC1 3136   9.563   5.403   1.654  0.2015  0.2429  0.0378
 3137CC1    CC1 3137   9.727   5.523   1.635 -0.3455  0.1787  0.2288
 3138NCO    NCO 3138   9.665   5.817   1.632  0.0407 -0.2629  0.0357
 3139NCO    NCO 3139   3.028   0.962   9.382  0.0496  0.2201 -0.7573
 3140CC1    CC1 3140   3.181   1.171   9.365  0.2401 -0.4036 -0.1634
 3141CC1    CC1 3141   3.260   1.262   9.180 -0.0505 -0.1368  0.1345
 3142NCC    NCC 3142   3.131   1.350   8.927 -0.1094 -0.4381 -0.0686
 3143CONH  CONH 3143   2.982   1.211   8.681  0.0120 -0.0296 -0.2675
 3144CC1    CC1 3144   2.721   1.064   8.739 -0.5408  0.1682  0.5220
 3145CC1    CC1 3145   2.655   0.859   8.860 -0.0806  0.1871 -0.0915
 3146CC1    CC1 3146   2.519   0.713   9.020  0.1029 -0.1626 -0.2663
 3147NCO    NCO 3147   2.640   0.775   9.230  0.1915 -0.0795 -0.6968
 3148CONH  CONH 3148   3.105   1.618   8.764 -0.2212  0.7403 -0.2764
 3149CC1    CC1 3149   2.882   1.735   8.754  0.0005  0.2632 -0.1388
 3150CC1    CC1 3150   2.693   1.560   8.719 -0.1765 -0.1003 -0.2358
 3151CC1    CC1 3151   2.516   1.355   8.707  0.0210 -0.1286 -0.1878
 3152NCO    NCO 3152   2.293   1.434   8.524 -0.2540 -0.2554  0.6057
 3153NCO    NCO 3153  10.236   5.890   0.844 -0.0604  0.1932 -0.3935
 3154CC1    CC1 3154  10.149   5.628   0.894 -0.6363  0.3345  0.0287
 3155CC1    CC1 3155  10.120   5.496   1.096  0.4956  0.2807  0.4364
 3156NCC    NCC 3156  10.208   5.396   1.330  0.3728 -0.1218  0.5692
 3157CONH  CONH 3157  10.118   5.460   1.578 -0.0889  0.0049 -0.4561
 3158CC1    CC1 3158  10.061   5.305   1.758  0.4942  0.3209 -0.0624
 3159CC1    CC1 3159  10.222   5.242   1.909 -0.0179  0.1438 -0.7344
 3160CC1    CC1 3160   0.007   5.167   2.135  0.3367 -0.0952  0.6704
 3161NCO    NCO 3161  10.156   5.022   2.331  0.0773  0.5102 -0.1709
 3162CONH  CONH 3162  10.233   5.082   1.448  0.2423 -0.3475 -0.2743
 3163CC1    CC1 3163  10.121   4.879   1.316 -0.5561  0.2127  0.0354
 3164CC1    CC1 3164   9.902   4.771   1.269  0.1676 -0.3167 -0.2749
 3165CC1    CC1 3165   9.756   4.653   1.119  0.0457  0.4322  0.0326
 3166NCO    NCO 3166   9.871   4.701   0.853  0.1797 -0.3472 -0.1759
 3167NCO    NCO 3167   9.058   6.685   2.796  0.1867 -0.2833 -0.1538
 3168CC1    CC1 3168   9.173   6.687   2.562 -0.3143 -0.5905 -0.4518
 3169CC1    CC1 3169   9.376   6.528   2.509  0.0842 -0.1182 -0.1540
 3170NCC    NCC 3170   9.523   6.343   2.376 -0.2287  0.2390 -0.2015
 3171CONH  CONH 3171   9.782   6.355   2.180  0.0829  0.0138  0.1560
 3172CC1    CC1 3172  10.020   6.250   2.256 -0.1237  0.0586  0.6332
 3173CC1    CC1 3173  10.148   6.066   2.281  0.0754 -0.2102 -0.3177
 3174CC1    CC1 3174   0.001   5.908   2.281  0.1163  0.0286 -0.7258
 3175NCO    NCO 3175   0.032   5.868   2.585 -0.5753 -0.2120 -0.4313
 3176CONH  CONH 3176   9.516   6.022   2.349  0.1193  0.1472  0.2497
 3177CC1    CC1 3177   9.715   5.878   2.495  0.1823 -0.0285  0.1207
 3178CC1    CC1 3178   9.930   6.038   2.538  0.0589  0.0386 -0.4140
 3179CC1    CC1 3179  10.091   6.158   2.734  0.2798 -0.1563 -0.0031
 3180NCO    NCO 3180  10.123   6.441   2.759 -0.0899 -0.2443 -0.1339
 3181NCO    NCO 3181   4.961   1.098   9.366 -0.2879  0.1217 -0.0665
 3182CC1    CC1 3182   4.806   0.981   9.602  0.2262 -0.1360  0.2592
 3183CC1    CC1 3183   4.693   0.816   9.470 -0.0341  0.1612  0.2158
 3184NCC    NCC 3184   4.512   0.647   9.365  0.0309  0.1783  0.2710
 3185CONH  CONH 3185   4.219   0.599   9.415  0.4589  0.2403  0.3155
 3186CC1    CC1 3186   4.088   0.466   9.234  0.3252  0.4566  0.1746
 3187CC1    CC1 3187   3.858   0.483   9.194  0.1737 -0.0243  0.2478
 3188CC1    CC1 3188   3.650   0.413   9.156  0.4252 -0.0578  0.0436
 3189NCO    NCO 3189   3.624   0.160   9.361 -0.1351 -0.0807  0.0122
 3190CONH  CONH 3190   4.480   0.363   9.225 -0.2146  0.3354  0.0924
 3191CC1    CC1 3191   4.363   0.344   9.000 -0.1798  0.2493  0.0045
 3192CC1    CC1 3192   4.468   0.376   8.784 -0.0314  0.3638  0.3915
 3193CC1    CC1 3193   4.628   0.409   8.596  0.4658  0.2598  0.1496
 3194NCO    NCO 3194   4.655   0.131   8.417 -0.0639  0.0797  0.2060
 3195NCO    NCO 3195   3.149   0.476   8.470  0.3609  0.0794  0.3330
 3196CC1    CC1 3196   3.043   0.528   8.211 -0.2579 -0.0654  0.1021
 3197CC1    CC1 3197   2.947   0.738   8.188  0.3387  0.1937  0.2839
 3198NCC    NCC 3198   2.943   1.039   8.223 -0.0294  0.3336  0.1083
 3199CONH  CONH 3199   2.707   1.192   8.309 -0.3750 -0.1479 -0.1109
 3200CC1    CC1 3200   2.575   1.370   8.123  0.2020  0.1547  0.1616
 3201CC1    CC1 3201   2.568   1.268   7.832  0.6825  0.0210  0.0528
 3202CC1    CC1 3202   2.714   1.231   7.638 -0.1045 -0.0795 -0.0904
 3203NCO    NCO 3203   2.704   1.129   7.446  0.2512  0.0185 -0.2255
 3204CONH  CONH 3204   3.084   1.319   8.154 -0.1659 -0.1778  0.0877
 3205CC1    CC1 3205   2.968   1.507   8.012  0.3648  0.1360  0.4181
 3206CC1    CC1 3206   2.933   1.468   7.769 -0.1382 -0.5565 -0.3994
 3207CC1    CC1 3207   2.946   1.475   7.536 -0.6184  0.1300  0.1474
 3208NCO    NCO 3208   3.176   1.297   7.454 -0.2471 -0.6913 -0.3383
 3209NCO    NCO 3209   3.527   0.003   7.377 -0.3641 -0.1848  0.1636
 3210CC1    CC1 3210   3.391   0.023   7.625  0.0777  0.4045 -0.1836
 3211CC1    CC1 3211   3.479  10.241   7.803  0.1409 -0.2997 -0.2549
 3212NCC    NCC 3212   3.510  10.107   8.007  0.1385 -0.0026  0.0332
 3213CONH  CONH 3213   3.763  10.102   8.209  0.1581  0.3144  0.0182
 3214CC1    CC1 3214   3.761  10.218   8.490  0.3080 -0.2163 -0.0232
 3215CC1    CC1 3215   3.695  10.128   8.702  0.0004  0.1602 -0.2003
 3216CC1    CC1 3216   3.657  10.017   8.938 -0.1317 -0.0018 -0.1164
 3217NCO    NCO 3217   3.484  10.199   9.054 -0.1175 -0.0118  0.1472
 3218CONH  CONH 3218   3.346   9.953   8.188  0.2545  0.0021  0.1367
 3219CC1    CC1 3219   3.384   9.934   8.462 -0.5921 -0.4695 -0.1129
 3220CC1    CC1 3220   3.511   9.832   8.588 -0.1920 -0.1664  0.1650
 3221CC1    CC1 3221   3.615   9.654   8.712 -0.1103  0.1425 -0.1791
 3222NCO    NCO 3222   3.816   9.585   8.507  0.0817  0.1562 -0.0560
 3223NCO    NCO 3223   6.791  10.138   1.553 -0.0990 -0.1287  0.0297
 3224CC1    CC1 3224   6.968   9.924   1.711 -0.0346 -0.2313 -0.0263
 3225CC1    CC1 3225   6.896   9.722   1.733  0.5652 -0.2023 -0.5438
 3226NCC    NCC 3226   6.797   9.508   1.819 -0.2695  0.0614 -0.2580
 3227CONH  CONH 3227   6.499   9.397   1.819  0.1860 -0.2341 -0.0639
 3228CC1    CC1 3228   6.451   9.137   1.942  0.2494  0.2071 -0.2280
 3229CC1    CC1 3229   6.396   9.148   2.168 -0.3679  0.2644 -0.0198
 3230CC1    CC1 3230   6.356   9.261   2.366  0.3004  0.5304  0.1809
 3231NCO    NCO 3231   6.269   9.151   2.565  0.0382 -0.0591 -0.4291
 3232CONH  CONH 3232   6.742   9.414   2.130 -0.1059 -0.1713  0.1092
 3233CC1    CC1 3233   6.760   9.175   2.192 -0.0421 -0.3585 -0.0986
 3234CC1    CC1 3234   6.947   9.103   2.248  0.3097 -0.1358  0.2418
 3235CC1    CC1 3235   7.101   8.933   2.350 -0.3997  0.1924 -0.4897
 3236NCO    NCO 3236   7.071   8.836   2.594 -0.1858 -0.0716 -0.1547
 3237NCO    NCO 3237   6.784   8.869   0.814 -0.5539 -0.1318  0.2265
 3238CC1    CC1 3238   6.818   9.194   0.814 -0.0932  0.0250 -0.2619
 3239CC1    CC1 3239   6.966   9.382   0.809 -0.2814  0.1096  0.0951
 3240NCC    NCC 3240   7.177   9.561   0.724  0.2761 -0.0075 -0.0482
 3241CONH  CONH 3241   7.376   9.604   0.479 -0.0465 -0.3255 -0.0539
 3242CC1    CC1 3242   7.315   9.535   0.217 -0.5992  0.1701  0.3420
 3243CC1    CC1 3243   7.124   9.534   0.125  0.0379  0.0633  0.5261
 3244CC1    CC1 3244   6.906   9.637  10.327  0.0159 -0.1237  0.3218
 3245NCO    NCO 3245   6.704   9.419  10.284 -0.2831 -0.4526 -0.0391
 3246CONH  CONH 3246   7.201   9.869   0.788 -0.7618 -0.0435  0.1762
 3247CC1    CC1 3247   7.421  10.035   0.657  0.0536  0.1343 -0.4499
 3248CC1    CC1 3248   7.654   9.911   0.685 -0.4672 -0.2050 -0.1506
 3249CC1    CC1 3249   7.885   9.946   0.694 -0.0393  0.3887 -0.3264
 3250NCO    NCO 3250   7.981   9.770   0.947 -0.1156 -0.2635 -0.1085
 3251NCO    NCO 3251   9.236   7.447   6.566 -0.2818 -0.1366 -0.2721
 3252CC1    CC1 3252   8.957   7.406   6.619 -0.0331  0.2771  0.2887
 3253CC1    CC1 3253   8.853   7.536   6.550 -0.0482 -0.2570  0.2000
 3254NCC    NCC 3254   8.688   7.651   6.403  0.0707  0.3371  0.2045
 3255CONH  CONH 3255   8.643   7.922   6.263 -0.2124 -0.3563 -0.2525
 3256CC1    CC1 3256   8.427   7.970   6.045 -0.3999 -0.2725  0.0096
 3257CC1    CC1 3257   8.349   8.171   5.972  0.0202 -0.2308  0.3391
 3258CC1    CC1 3258   8.293   8.396   5.913  0.0578 -0.0501  0.0485
 3259NCO    NCO 3259   8.570   8.461   5.792  0.2741  0.0584  0.1092
 3260CONH  CONH 3260   8.543   7.540   6.134 -0.1128 -0.2823  0.3449
 3261CC1    CC1 3261   8.590   7.663   5.900 -0.3357 -0.1505 -0.1551
 3262CC1    CC1 3262   8.416   7.654   5.750  0.0530 -0.2935 -0.2166
 3263CC1    CC1 3263   8.173   7.694   5.689  0.2024 -0.1080  0.1543
 3264NCO    NCO 3264   8.030   7.612   5.921 -0.3281 -0.3904 -0.1504
 3265NCO    NCO 3265   9.393   5.910   1.061  0.1145  0.0709  0.1217
 3266CC1    CC1 3266   9.301   5.648   1.019 -0.0944  0.2884  0.4359
 3267CC1    CC1 3267   9.381   5.423   1.012  0.1084  0.0163  0.4166
 3268NCC    NCC 3268   9.383   5.169   1.072 -0.2071 -0.0745 -0.7957
 3269CONH  CONH 3269   9.483   4.905   0.900 -0.1115  0.1001 -0.0662
 3270CC1    CC1 3270   9.411   4.589   0.987  0.3629  0.1831 -0.2621
 3271CC1    CC1 3271   9.495   4.382   1.055 -0.2926  0.0816  0.3612
 3272CC1    CC1 3272   9.598   4.205   1.147 -0.2457  0.0180 -0.1397
 3273NCO    NCO 3273   9.722   4.005   0.966  0.3012  0.1802 -0.1860
 3274CONH  CONH 3274   9.354   4.974   1.326 -0.1258 -0.0752 -0.2796
 3275CC1    CC1 3275   9.540   4.788   1.355  0.2681 -0.1257 -0.0580
 3276CC1    CC1 3276   9.579   4.644   1.507 -0.2590  0.3304  0.2925
 3277CC1    CC1 3277   9.590   4.442   1.576  0.4033 -0.3461 -0.5159
 3278NCO    NCO 3278   9.848   4.305   1.509  0.0555  0.5572  0.1408
 3279NCO    NCO 3279   8.176   0.517   9.998  0.1144  0.0325  0.1446
 3280CC1    CC1 3280   8.014   0.751  10.075 -0.3109 -0.0620  0.6724
 3281CC1    CC1 3281   7.893   0.919   9.965 -0.0500 -0.1350  0.0968
 3282NCC    NCC 3282   7.709   1.145   9.968 -0.1060  0.6626 -0.1753
 3283CONH  CONH 3283   7.794   1.418  10.140 -0.0202  0.0960  0.4032
 3284CC1    CC1 3284   7.635   1.653  10.101 -0.1761  0.5569 -0.4647
 3285CC1    CC1 3285   7.716   1.836  10.209 -0.1406  0.3224 -0.1069
 3286CC1    CC1 3286   7.861   1.959   0.064  0.2065 -0.5768  0.1170
 3287NCO    NCO 3287   8.017   2.102   0.018  0.2349 -0.0740 -0.0382
 3288CONH  CONH 3288   7.426   1.248   9.856 -0.2260 -0.1102  0.0183
 3289CC1    CC1 3289   7.183   1.357  10.004 -0.4379 -0.6768 -0.0958
 3290CC1    CC1 3290   7.206   1.551  10.160  0.0047  0.4000 -0.2708
 3291CC1    CC1 3291   7.310   1.752  10.287 -0.0142 -0.1226 -0.4060
 3292NCO    NCO 3292   7.111   1.782   0.120  0.0476 -0.1022  0.0444
 3293NCO    NCO 3293   4.526   5.976   3.494  0.1680  0.0150 -0.1387
 3294CC1    CC1 3294   4.770   6.173   3.354 -0.2173  0.3623  0.0956
 3295CC1    CC1 3295   4.723   6.293   3.209 -0.4663 -0.1047  0.0336
 3296NCC    NCC 3296   4.615   6.487   2.991 -0.0121 -0.0134  0.1967
 3297CONH  CONH 3297   4.657   6.810   2.913  0.0241 -0.0506 -0.1830
 3298CC1    CC1 3298   4.544   6.914   2.678 -0.0198  0.5621  0.0345
 3299CC1    CC1 3299   4.730   6.943   2.515 -0.5146 -0.3647  0.2834
 3300CC1    CC1 3300   4.953   7.036   2.460  0.1498 -0.6413 -0.1623
 3301NCO    NCO 3301   4.977   7.186   2.294  0.5450 -0.3766  0.2711
 3302CONH  CONH 3302   4.327   6.519   2.810  0.0527 -0.0503 -0.1505
 3303CC1    CC1 3303   4.132   6.383   2.910  0.2637 -0.0273 -0.0756
 3304CC1    CC1 3304   4.005   6.527   3.026 -0.5691 -0.5123 -0.1025
 3305CC1    CC1 3305   3.813   6.629   3.059 -0.0715  0.3346 -0.1394
 3306NCO    NCO 3306   3.787   6.741   2.812  0.0464  0.1384  0.3278
 3307NCO    NCO 3307   7.137   5.729   4.054 -0.1528  0.1047  0.1767
 3308CC1    CC1 3308   7.413   5.586   3.959 -0.1327  0.4884  0.4019
 3309CC1    CC1 3309   7.525   5.456   4.073  0.4285 -0.2328 -0.0602
 3310NCC    NCC 3310   7.602   5.443   4.352 -0.2952  0.0295  0.4639
 3311CONH  CONH 3311   7.854   5.403   4.533  0.0236  0.4484  0.3218
 3312CC1    CC1 3312   7.816   5.454   4.779 -0.3289  0.3841 -0.2823
 3313CC1    CC1 3313   7.766   5.658   4.817  0.3534  0.4586 -0.1536
 3314CC1    CC1 3314   7.761   5.889   4.831  0.0198 -0.1876 -0.3384
 3315NCO    NCO 3315   7.958   6.027   4.890  0.2651 -0.2444 -0.4626
 3316CONH  CONH 3316   7.464   5.355   4.603  0.0964  0.2993 -0.0214
 3317CC1    CC1 3317   7.358   5.548   4.823  0.5040 -0.0301 -0.1026
 3318CC1    CC1 3318   7.492   5.451   5.012  0.0040  0.3640 -0.3242
 3319CC1    CC1 3319   7.728   5.377   5.085 -0.0945  0.0319 -0.0216
 3320NCO    NCO 3320   7.806   5.152   5.282  0.1642 -0.0362 -0.0301
 3321W        W 3321   7.703   6.242   1.227  0.1505  0.0270  0.1491
 3322W        W 3322   8.509   9.541   0.152  0.0989  0.2451  0.1510
 3323W        W 3323   8.334   2.364   4.193  0.2119 -0.4293 -0.1044
 3324W        W 3324   4.869   7.580  10.205  0.0679 -0.2028  0.0777
 3325W        W 3325   7.235   2.875   0.731 -0.0682 -0.2899  0.2223
 3326W        W 3326   2.338   3.405  10.110 -0.1161 -0.0284 -0.3124
 3327W        W 3327   0.311   2.241   0.415 -0.0129  0.0978  0.0672
 3328W        W 3328   5.749   1.279   9.826 -0.1050 -0.0442 -0.3679
 3329W        W 3329   5.297   7.106   7.999  0.0554 -0.2458  0.1647
 3330W        W 3330   0.520   2.927   0.285  0.0317 -0.1778 -0.1317
 3331W        W 3331   6.398   1.257   0.061 -0.0782  0.2632 -0.1587
 3332W        W 3332   9.064   7.396   4.787  0.3209 -0.1700  0.0718
 3333W        W 3333   3.714   8.967   5.120  0.0293 -0.1899 -0.1306
 3334W        W 3334   2.416   2.203   1.544 -0.3552  0.0215  0.2544
 3335W        W 3335   5.119   8.274   6.528 -0.0187  0.0796  0.1619
 3336W        W 3336   9.343  10.201  10.187 -0.0834 -0.1668 -0.1292
 3337W        W 3337   7.087   6.724   1.350  0.0341  0.1278  0.2316
 3338W        W 3338   0.466   2.754   9.788 -0.0980 -0.4492  0.3292
 3339W        W 3339   6.796   1.099   7.292 -0.0534  0.1964 -0.0991
 3340W        W 3340   0.361   7.448   3.598 -0.2209  0.0975  0.1352
 3341W        W 3341   0.355   6.144   0.766  0.3234  0.3177 -0.1544
 3342W        W 3342   1.043   4.435   0.445 -0.1652  0.3083  0.1219
 3343W        W 3343   7.203  10.148   5.037  0.1014  0.0136 -0.3504
 3344W        W 3344   3.668   7.961   6.271  0.3103 -0.0488 -0.2888
 3345W        W 3345   9.699   2.912   8.090 -0.0849 -0.2378  0.0954
 3346W        W 3346   0.408   5.454   9.529  0.1809  0.1973  0.0107
 3347W        W 3347   5.736   7.089   1.119 -0.0352 -0.1183 -0.2794
 3348W        W 3348   9.015   3.429   4.298  0.1412  0.3388  0.0687
 3349W        W 3349   8.078   3.140  10.024  0.0304  0.0658 -0.1159
 3350W        W 3350   2.643   4.337   4.844 -0.1394 -0.2629 -0.1373
 3351W        W 3351  10.027   5.790   6.726  0.1181  0.3250  0.1890
 3352W        W 3352   1.240   3.575   3.446  0.0285  0.0080  0.1522
 3353W        W 3353   4.726   5.352   9.593 -0.1623  0.0806 -0.2402
 3354W        W 3354   0.329   3.713   8.144 -0.0539 -0.0123  0.2342
 3355W        W 3355   2.334   4.226   6.346  0.0482 -0.2004  0.2566
 3356W        W 3356   4.671   3.301   6.894  0.0926 -0.1591 -0.0557
 3357W        W 3357   7.940   5.903   3.551 -0.0415  0.0733  0.0668
 3358W        W 3358   2.846   2.797   0.935 -0.0182  0.2972 -0.0202
 3359W        W 3359   4.056   3.264   6.126 -0.2955  0.2828  0.0521
 3360W        W 3360   7.230   5.800   2.429 -0.0387  0.2007 -0.1572
 3361W        W 3361   1.826   4.266   6.374 -0.2577 -0.1920 -0.2680
 3362W        W 3362   9.727   4.193   6.483 -0.1142  0.0589  0.0379
 3363W        W 3363   5.945   7.646   0.499 -0.0832 -0.1033  0.2634
 3364W        W 3364   8.974   4.276  10.123  0.0161 -0.1352 -0.2351
 3365W        W 3365   6.436   0.363   7.625  0.0265  0.0572 -0.1309
 3366W        W 3366  10.047   7.772   3.440  0.1317  0.1772 -0.0243
 3367W        W 3367   8.718   0.954   4.392 -0.4132  0.0396  0.0245
 3368W        W 3368   3.120   5.997   7.520 -0.0373 -0.1557 -0.2692
 3369W        W 3369   8.568   2.554   0.895  0.0487  0.0841  0.2917
 3370W        W 3370   2.771  10.097   4.096  0.2709  0.1621  0.2403
 3371W        W 3371   9.164   0.569   0.328 -0.1009  0.0757 -0.0320
 3372W        W 3372   2.263   8.822   3.167  0.0685 -0.1028  0.1838
 3373W        W 3373   1.263   4.449   9.862  0.4074 -0.1280  0.0116
 3374W        W 3374   7.947   0.373   6.226 -0.0190 -0.2912 -0.0030
 3375W        W 3375   1.835   8.547   6.862 -0.1450  0.0297 -0.1574
 3376W        W 3376   1.388   8.228   3.377 -0.1487 -0.1921  0.0663
 3377W        W 3377   8.643   5.415   3.361  0.0002 -0.0901  0.3506
 3378W        W 3378   1.709   7.669   1.012 -0.3978 -0.1654 -0.2414
 3379W        W 3379   1.462   5.003   8.998  0.0232 -0.2015 -0.0064
 3380W        W 3380   3.929   5.467   5.703 -0.1548  0.1644 -0.2592
 3381W        W 3381   2.416   9.151   9.835 -0.2592 -0.0305 -0.1292
 3382W        W 3382   6.064   3.412   4.649  0.0423 -0.1965  0.0050
 3383W        W 3383   5.738   4.202   6.328 -0.0016  0.0589 -0.2032
 3384W        W 3384   5.342   6.669   9.023  0.1181 -0.0039  0.3493
 3385W        W 3385   7.392   1.356   7.936  0.0543 -0.0019  0.0597
 3386W        W 3386   8.455   5.524   7.400 -0.0434 -0.2951  0.1782
 3387W        W 3387   9.542   3.898   5.718 -0.2240  0.0247 -0.1573
 3388W        W 3388   6.564   3.640   0.783 -0.1296  0.1146  0.0626
 3389W        W 3389   5.157   8.444   6.014 -0.0441  0.0096  0.0396
 3390W        W 3390   2.012   1.535   9.329  0.0726 -0.3684  0.1268
 3391W        W 3391   2.140   7.033   9.583 -0.1592 -0.1591 -0.3417
 3392W        W 3392   0.345   3.339   0.096 -0.1215 -0.0559  0.1977
 3393W        W 3393   2.426   8.494   0.819  0.2816  0.5174 -0.0895
 3394W        W 3394  10.099  10.254   1.115 -0.0184 -0.3046 -0.1134
 3395W        W 3395   9.853   6.346   8.240 -0.2649  0.0808  0.0641
 3396W        W 3396   6.460   2.990   6.751  0.0271 -0.3376  0.0262
 3397W        W 3397   1.810   7.014   8.168  0.0623  0.1434  0.0009
 3398W        W 3398   3.338   6.082   0.444 -0.1361 -0.1791  0.0800
 3399W        W 3399   5.778   5.008   3.403 -0.2098  0.3487 -0.2537
 3400W        W 3400   8.382   9.377   7.834 -0.5275 -0.0574 -0.0905
 3401W        W 3401   4.432  10.318   3.712  0.2319 -0.1087 -0.2068
 3402W        W 3402   2.675   8.574   2.527  0.1598 -0.2902 -0.1548
 3403W        W 3403   0.896   0.615   9.642 -0.2869  0.0967  0.0155
 3404W        W 3404   3.613   6.912   7.288 -0.1499  0.2170 -0.3241
 3405W        W 3405   3.172   5.730   2.199  0.0262 -0.0026  0.2342
 3406W        W 3406   3.232   7.228   9.963 -0.1630  0.3749 -0.0379
 3407W        W 3407   1.716   1.332   3.817  0.4962  0.1116 -0.0966
 3408W        W 3408   2.496   1.279   6.781  0.3125 -0.5026  0.0194
 3409W        W 3409   3.104   1.230   6.129  0.1514  0.0745  0.0272
 3410W        W 3410   1.884   8.213   1.312 -0.0322  0.1121 -0.0810
 3411W        W 3411   1.743   7.193   5.713 -0.1424  0.1613  0.2381
 3412W        W 3412   0.241   0.182   7.581 -0.1412 -0.1048 -0.2017
 3413W        W 3413   0.118   6.400   7.352 -0.1612 -0.1271 -0.0693
 3414W        W 3414   7.066  10.271   3.197  0.0433 -0.2941 -0.3057
 3415W        W 3415   0.879   8.121   1.268 -0.1685  0.0552  0.0448
 3416W        W 3416   6.021   5.842   5.485  0.1533 -0.1229 -0.1671
 3417W        W 3417   4.693   3.168   5.481  0.1763 -0.1434  0.1450
 3418W        W 3418   7.801   8.954   1.413  0.1154 -0.0061  0.0721
 3419W        W 3419   9.679   7.044   2.630 -0.2193  0.0437 -0.3404
 3420W        W 3420   6.765   5.987  10.014 -0.0055  0.0013 -0.0024
 3421W        W 3421   3.474   9.755   5.182 -0.1028 -0.2564 -0.0343
 3422W        W 3422   1.549   1.477   2.977  0.1070 -0.1086  0.0731
 3423W        W 3423   0.793   2.400   2.476 -0.0832 -0.0308  0.0687
 3424W        W 3424   5.998   7.168  10.114  0.2101  0.1113  0.1881
 3425W        W 3425   9.517   8.127   5.449  0.0763  0.1703  0.0771
 3426W        W 3426   6.013   3.389   9.387 -0.2382  0.0079 -0.2443
 3427W        W 3427   6.717   5.539   4.211 -0.0893 -0.0372  0.0212
 3428W        W 3428   2.889   7.531   2.913 -0.0011 -0.3203 -0.2312
 3429W        W 3429   1.398   4.664   8.563 -0.4780 -0.0806 -0.2648
 3430W        W 3430   7.612   8.175   1.413  0.1090  0.0158  0.3032
 3431W        W 3431   6.834   3.319   7.934 -0.2671 -0.0410  0.0508
 3432W        W 3432   0.963   9.802   6.879  0.0810  0.1923 -0.0437
 3433W        W 3433   4.149   5.043   1.273  0.1285 -0.1757  0.0260
 3434W        W 3434   3.030   9.350   6.904  0.2133  0.0590  0.1498
 3435W        W 3435   6.058   8.359   1.997 -0.2239 -0.1259 -0.2220
 3436W        W 3436   9.216   9.009   7.888  0.1498 -0.0562 -0.1689
 3437W        W 3437   1.124   3.958   9.501 -0.0815  0.0485  0.0220
 3438W        W 3438   5.716   3.092   9.008 -0.3856 -0.1182 -0.1621
 3439W        W 3439  10.141   6.376   7.728  0.3438 -0.1558 -0.3292
 3440W        W 3440   0.455   0.663   1.080 -0.2092  0.0278  0.0189
 3441W        W 3441   1.141   1.649   6.970  0.3206 -0.1538 -0.1541
 3442W        W 3442   3.070   2.513   6.369  0.0521  0.3107 -0.1601
 3443W        W 3443   2.657   1.265   1.495 -0.3384  0.0445 -0.0161
 3444W        W 3444   9.723   1.073   4.289  0.3219 -0.0711  0.2761
 3445W        W 3445   7.265   4.189   0.536 -0.0063  0.1689 -0.0133
 3446W        W 3446   5.693   0.444   3.297 -0.1533  0.1101 -0.2237
 3447W        W 3447   8.313   4.476   2.212 -0.0857 -0.2909 -0.3243
 3448W        W 3448   6.708   6.065   3.207  0.1504  0.1393  0.1310
 3449W        W 3449   0.621  10.171   0.077  0.0411  0.0404  0.1198
 3450W        W 3450   8.793   8.013   0.186  0.3166  0.0327 -0.0475
 3451W        W 3451   1.427   3.658   5.984  0.5078 -0.2743  0.5196
 3452W        W 3452   5.055   3.368   7.213 -0.0064 -0.3543  0.1597
 3453W        W 3453   7.857   9.834   3.945  0.0282  0.1459 -0.0623
 3454W        W 3454   7.142   0.899   2.290  0.1612 -0.2220 -0.0609
 3455W        W 3455   4.190   4.562   5.026  0.0757  0.1818  0.1372
 3456W        W 3456   8.921   2.031   0.826  0.0343 -0.3350 -0.3460
 3457W        W 3457   5.565   2.902   1.147  0.1244 -0.0949 -0.3243
 3458W        W 3458   7.572   8.537   9.110 -0.1727  0.1116  0.2018
 3459W        W 3459   9.315   5.243   2.225  0.1528 -0.3702 -0.1205
 3460W        W 3460   9.291   9.793   5.860 -0.1222 -0.0675 -0.2407
 3461W        W 3461   1.414   1.145   2.033  0.2831  0.4420 -0.0833
 3462W        W 3462   3.949   1.467   1.388 -0.0605 -0.1146  0.0096
 3463W        W 3463   0.109   0.285   4.200  0.1115 -0.3100  0.2062
 3464W        W 3464   9.826   5.067   7.853 -0.0566 -0.1465 -0.0932
 3465W        W 3465   7.718   3.004   0.684 -0.0906  0.1436 -0.1041
 3466W        W 3466   3.013   3.360   5.313  0.0912 -0.3332 -0.3160
 3467W        W 3467   0.441   8.070   1.696  0.3537 -0.0508  0.0589
 3468W        W 3468   5.620   1.003   1.374  0.1658 -0.1371 -0.2031
 3469W        W 3469   1.118   8.611   9.173  0.0986 -0.1797  0.5085
 3470W        W 3470   7.096   2.503   7.080  0.0646 -0.0568  0.1573
 3471W        W 3471   3.050   3.512   1.568 -0.0566  0.0135  0.1050
 3472W        W 3472   0.919   1.856   9.971 -0.0047  0.0609  0.0227
 3473W        W 3473   3.685   2.113   7.688 -0.0822 -0.3106  0.0892
 3474W        W 3474   3.238   7.097   1.366  0.1627  0.1229  0.0172
 3475W        W 3475   8.166   8.385   2.712  0.4280 -0.0167 -0.1087
 3476W        W 3476   6.579   2.092   5.300  0.2132  0.2128  0.1445
 3477W        W 3477   1.180   9.014   7.800 -0.3380  0.0918  0.2058
 3478W        W 3478   7.529   0.214   1.111  0.1405 -0.0052 -0.0768
 3479W        W 3479   6.825   2.674   2.588 -0.1826 -0.0619 -0.0531
 3480W        W 3480   4.246   2.662   1.312 -0.2496 -0.0445 -0.1764
 3481W        W 3481   6.760   7.433   7.349 -0.0567 -0.2940  0.0400
 3482W        W 3482   0.765   5.138   3.804  0.1763  0.1281  0.1358
 3483W        W 3483   8.699   7.699   3.952  0.2556  0.1078  0.1004
 3484W        W 3484   2.739   2.056   8.853  0.0231  0.0042 -0.0800
 3485W        W 3485   5.289  10.029   9.392 -0.2446 -0.3207 -0.0501
 3486W        W 3486   7.785   5.227   6.556 -0.2638  0.2644 -0.0293
 3487W        W 3487   2.582   3.961   8.262 -0.4204  0.0555  0.0003
 3488W        W 3488   1.693   2.367   0.671  0.1862 -0.2401  0.1909
 3489W        W 3489   5.257   6.285   8.686 -0.2310  0.0197 -0.0916
 3490W        W 3490   4.178   5.631   6.281  0.3246 -0.3919 -0.1981
 3491W        W 3491   2.533   2.370   1.041  0.0108 -0.0022 -0.1429
 3492W        W 3492   5.371   2.993   7.064  0.3334 -0.0022  0.1370
 3493W        W 3493   1.247   5.307   5.843 -0.0175 -0.2635  0.2600
 3494W        W 3494  10.334   0.019   6.704  0.0017 -0.0443  0.4300
 3495W        W 3495   4.975   1.488   6.883  0.3734 -0.0399  0.1337
 3496W        W 3496   3.641   5.719   7.614 -0.1078  0.1305  0.3397
 3497W        W 3497   4.506   7.025   4.555 -0.1091  0.0051  0.2167
 3498W        W 3498   5.682   9.328   9.140 -0.1329 -0.0109 -0.0773
 3499W        W 3499   0.052   1.466   7.618  0.0448  0.3603  0.0748
 3500W        W 3500   7.415   4.404   0.947  0.3350  0.0266 -0.1222
 3501W        W 3501  10.131   2.487   5.980 -0.2228  0.4396  0.1032
 3502W        W 3502   1.089   4.111   4.874  0.1985  0.0749  0.0496
 3503W        W 3503   1.880   3.643   8.911 -0.1964  0.0701  0.2728
 3504W        W 3504   7.158   8.852   9.890 -0.1618 -0.0835 -0.1036
 3505W        W 3505   8.615   2.844   8.052  0.0287  0.0328  0.3393
 3506W        W 3506   3.339   4.758   6.353  0.0284 -0.1871 -0.3286
 3507W        W 3507   8.450   4.461   0.479  0.4252  0.1194  0.0969
 3508W        W 3508   2.939   8.509   4.921 -0.1416 -0.2518 -0.0588
 3509W        W 3509   5.112   8.248   8.033  0.0835  0.3015 -0.3437
 3510W        W 3510   7.686   7.634   1.489 -0.2232 -0.2499 -0.2918
 3511W        W 3511   2.337   7.474   1.648 -0.2847  0.0235 -0.0484
 3512W        W 3512   3.176   3.492   6.293  0.3252  0.2478 -0.0391
 3513W        W 3513   3.502   6.225   6.705  0.1169  0.3884 -0.0413
 3514W        W 3514   4.273   2.480   4.426  0.2159 -0.2407  0.0109
 3515W        W 3515   3.762   5.939   6.405  0.0409  0.1362  0.2525
 3516W        W 3516   9.395   6.593   5.548  0.2382 -0.0712  0.0439
 3517W        W 3517   6.143   2.637  10.273 -0.0801  0.1321 -0.2150
 3518W        W 3518   2.481   8.458   9.067 -0.0905 -0.1369 -0.0495
 3519W        W 3519   4.917   0.700   7.315 -0.0195  0.2186  0.2620
 3520W        W 3520   8.863   9.372   4.754 -0.3228  0.1092 -0.1692
 3521W        W 3521   8.396   9.015   3.932 -0.0338  0.1675  0.1779
 3522W        W 3522   4.932   2.540   2.945 -0.0310  0.1582 -0.1345
 3523W        W 3523   3.899   3.006   1.269  0.4137 -0.1313 -0.0643
 3524W        W 3524   6.921   5.032   7.981  0.1903 -0.0963 -0.0290
 3525W        W 3525   1.716   2.240   3.793 -0.1432  0.3013 -0.0522
 3526W        W 3526   1.894   2.245   4.458 -0.0276  0.3291  0.3785
 3527W        W 3527   3.193   2.804   7.462  0.0142  0.0952 -0.2941
 3528W        W 3528   9.019   8.935   3.805 -0.1305 -0.0103  0.1215
 3529W        W 3529   0.876   9.961   2.718  0.1455 -0.3305  0.2626
 3530W        W 3530   7.580   7.292   7.850  0.1694 -0.0301  0.2559
 3531W        W 3531   3.987   6.112   0.801 -0.0067  0.1725  0.0190
 3532W        W 3532   3.522   7.183   7.999  0.1988 -0.1126 -0.0051
 3533W        W 3533   1.803   6.024   3.856  0.0325  0.2347 -0.0123
 3534W        W 3534   7.623   8.606   7.323  0.1684 -0.0501 -0.0307
 3535W        W 3535   1.719   6.375   5.415 -0.0218 -0.0505 -0.0054
 3536W        W 3536   4.066   2.900   9.739 -0.3177 -0.2056  0.1679
 3537W        W 3537   3.441   7.910   0.346  0.1321  0.3274  0.0564
 3538W        W 3538   7.523   4.393   7.355 -0.0898  0.0491 -0.3307
 3539W        W 3539   1.265   4.771   7.034  0.1002  0.2467  0.0688
 3540W        W 3540   6.633   8.816   2.207  0.1667  0.0029  0.0611
 3541W        W 3541   3.823   3.693  10.112  0.0132 -0.1111  0.0968
 3542W        W 3542   4.362   6.423   0.554  0.0193  0.1438 -0.2745
 3543W        W 3543   9.730   8.995   5.846 -0.1540 -0.0641  0.2208
 3544W        W 3544   4.243   2.470   8.826  0.3550 -0.2223 -0.2982
 3545W        W 3545   8.125   6.856  10.306 -0.0478  0.0399 -0.2269
 3546W        W 3546   3.710   0.615   4.957  0.1124 -0.0746  0.0511
 3547W        W 3547   5.970   6.849   2.456  0.0366 -0.1174 -0.3370
 3548W        W 3548  10.174   8.902   1.153 -0.0552 -0.2620  0.4595
 3549W        W 3549   4.379   6.364   7.741 -0.4119 -0.2225  0.0144
 3550W        W 3550   3.332   7.304   0.951  0.2074 -0.0783 -0.1139
 3551W        W 3551   0.498   6.820   5.356 -0.0701  0.2658 -0.2477
 3552W        W 3552   2.207   2.003   4.007  0.2154 -0.0154  0.0570
 3553W        W 3553   5.661   4.825   9.090  0.0057 -0.0162 -0.0843
 3554W        W 3554   6.204   9.871   1.052 -0.1067 -0.3281  0.0804
 3555W        W 3555   6.761  10.181   4.882  0.3518  0.0307  0.1474
 3556W        W 3556   2.273   5.754   0.827  0.1988  0.2154 -0.0256
 3557W        W 3557   8.200   9.013   9.077  0.1289 -0.1830  0.1974
 3558W        W 3558   4.489   6.236   4.944  0.1043  0.1011 -0.0487
 3559W        W 3559   8.338   1.587   2.579  0.1178 -0.0250  0.2036
 3560W        W 3560   4.463   0.894   6.630  0.0123 -0.2059 -0.1741
 3561W        W 3561   6.491   8.201   8.950 -0.0671  0.0644 -0.2645
 3562W        W 3562   0.718   8.035   8.842  0.0818  0.3738 -0.1775
 3563W        W 3563   4.947   0.544   6.480  0.3213 -0.1077  0.2891
 3564W        W 3564   3.665   1.146   0.280  0.2847  0.1728 -0.0555
 3565W        W 3565   2.340   5.008   9.414  0.1328 -0.0015 -0.2184
 3566W        W 3566   1.790   5.122   1.407  0.2022  0.0522  0.0272
 3567W        W 3567   3.140   4.744   9.192 -0.0300  0.0926  0.0897
 3568W        W 3568   3.807   0.140   4.844  0.0384 -0.0333 -0.2520
 3569W        W 3569   3.811   2.404   1.985 -0.0353  0.0663  0.0756
 3570W        W 3570   1.076   1.254   5.609 -0.2251 -0.3373 -0.1852
 3571W        W 3571   3.474   5.960   8.036  0.2149 -0.1928  0.4030
 3572W        W 3572   7.255   4.719   1.957  0.0213  0.0131  0.0091
 3573W        W 3573   9.334   7.788   1.838 -0.1450  0.2887  0.0435
 3574W        W 3574   3.846   1.043   7.901 -0.1017 -0.1308 -0.0499
 3575W        W 3575   9.605   9.069   6.488 -0.1889 -0.3365 -0.0671
 3576W        W 3576   0.674   0.782   0.450 -0.2933 -0.2079  0.0669
 3577W        W 3577   2.534   4.288   4.323 -0.0027 -0.2825  0.0183
 3578W        W 3578   1.085   1.683   3.180 -0.1388  0.0671  0.3156
 3579W        W 3579   5.320   1.195   2.603  0.0203  0.0710 -0.0832
 3580W        W 3580   0.528   8.204   0.834  0.1309 -0.2693 -0.1087
 3581W        W 3581   2.613   2.685   2.201  0.1406  0.2195  0.1875
 3582W        W 3582   9.081   2.969   2.994  0.0422  0.0975 -0.3543
 3583W        W 3583   6.392   4.185   3.867 -0.0986 -0.1050 -0.1292
 3584W        W 3584   1.550   5.257   2.945  0.2359  0.0757 -0.2057
 3585W        W 3585   5.154   1.087   3.736  0.1512  0.0134  0.0646
 3586W        W 3586  10.258   4.881   8.202 -0.0762 -0.1042 -0.2066
 3587W        W 3587   1.369   1.265   6.548  0.3000  0.0059 -0.2540
 3588W        W 3588   2.033   9.121   0.874 -0.0550  0.1243  0.1136
 3589W        W 3589   1.005   8.128   3.668 -0.1501 -0.0295  0.0994
 3590W        W 3590   0.851   4.585   3.370  0.0525 -0.1425 -0.2339
 3591W        W 3591   9.614   4.111   7.471  0.0470 -0.0918  0.2011
 3592W        W 3592   8.810   2.261   2.221 -0.0046  0.0786  0.1028
 3593W        W 3593   9.588   7.704   9.184  0.1263  0.0520  0.0456
 3594W        W 3594   3.333   9.717   5.655  0.4089 -0.2570 -0.1814
 3595W        W 3595  10.263   7.132  10.077 -0.3170  0.1265 -0.3916
 3596W        W 3596   0.150   9.583   0.555  0.2597 -0.0267 -0.0784
 3597W        W 3597  10.038   9.397   5.711 -0.3550  0.1372  0.1110
 3598W        W 3598   1.910   0.448   3.385 -0.2242 -0.1880 -0.0216
 3599W        W 3599   3.411   8.500   9.803 -0.1061 -0.3478  0.0121
 3600W        W 3600   7.136   1.093   5.231  0.1620  0.0418  0.0541
 3601W        W 3601   6.209   3.279   3.323  0.2440  0.0986  0.0701
 3602W        W 3602   6.058   6.284   3.176  0.2646  0.2915 -0.2202
 3603W        W 3603   4.453   9.814   3.811 -0.0102 -0.3921  0.0208
 3604W        W 3604   5.468   5.715   7.369 -0.0490 -0.0842 -0.1540
 3605W        W 3605   5.290   6.569   2.276 -0.2254  0.0833  0.2645
 3606W        W 3606   1.738   7.966   9.460 -0.2817 -0.1393 -0.0003
 3607W        W 3607   6.193   4.844   5.927 -0.0554 -0.1892 -0.0714
 3608W        W 3608   3.841  10.069   5.879 -0.0121  0.0819  0.0324
 3609W        W 3609   7.339   4.121   7.760 -0.0123  0.0340 -0.0823
 3610W        W 3610   8.379   2.789   3.894  0.1315 -0.1936 -0.1833
 3611W        W 3611   1.845   1.614   5.305 -0.1033  0.1874  0.2737
 3612W        W 3612   0.368   0.955   4.021  0.1565 -0.0300 -0.0379
 3613W        W 3613   4.738   3.199   9.328 -0.1553  0.2806  0.0534
 3614W        W 3614   0.200   8.215   8.833 -0.1746 -0.1053  0.2259
 3615W        W 3615   6.704   6.032   0.825  0.2339 -0.0194  0.1387
 3616W        W 3616   8.699   9.138   7.365  0.0874 -0.0560 -0.3754
 3617W        W 3617   9.900  10.214   4.844 -0.0041 -0.1181 -0.2105
 3618W        W 3618   7.916   4.416   9.405 -0.3157  0.1183 -0.0385
 3619W        W 3619   3.992   7.965   9.119  0.0966  0.0765  0.0459
 3620W        W 3620   6.356   1.994   6.129 -0.0801 -0.1498 -0.2766
 3621W        W 3621   3.985   6.621   0.835 -0.1662  0.2235  0.4246
 3622W        W 3622   1.469   6.560  10.040 -0.0627 -0.1041  0.0428
 3623W        W 3623   8.140   3.349   4.867  0.1215  0.3661  0.0185
 3624W        W 3624   1.232   4.978   9.897  0.0002  0.0646  0.0106
 3625W        W 3625   1.635   9.789   5.720  0.0539 -0.1007  0.1466
 3626W        W 3626   2.198   5.010   6.970 -0.3554 -0.0813 -0.3027
 3627W        W 3627   7.539   5.295   1.187 -0.0932  0.2545 -0.2168
 3628W        W 3628   3.371   0.125   3.132  0.1330 -0.1573 -0.3641
 3629W        W 3629   8.829   2.890   3.583 -0.1231 -0.3069  0.1745
 3630W        W 3630   4.402   2.319   0.966 -0.2364  0.0484  0.2312
 3631W        W 3631   2.943   2.491   5.680  0.2113 -0.1626 -0.2313
 3632W        W 3632   2.021   7.100   4.578  0.0404 -0.0780 -0.1120
 3633W        W 3633   5.518   7.425   8.442 -0.2449 -0.0005  0.1854
 3634W        W 3634   4.965   0.849   2.768 -0.0826 -0.2268  0.2281
 3635W        W 3635   5.224   9.385   7.433  0.0352 -0.0679 -0.1995
 3636W        W 3636   6.996   5.660   3.272 -0.0226 -0.1365  0.0455
 3637W        W 3637   7.951   3.203   1.078  0.1677  0.0388  0.0307
 3638W        W 3638   5.294   1.244   9.986 -0.1081 -0.0764  0.0935
 3639W        W 3639   1.971   7.202   7.729  0.1753  0.0076  0.1821
 3640W        W 3640   8.313   3.059   5.895 -0.1481  0.0456 -0.2759
 3641W        W 3641   2.999   5.523   1.728 -0.1455  0.2476 -0.0104
 3642W        W 3642   0.513   3.614   6.891  0.0743 -0.1228 -0.0221
 3643W        W 3643   9.426   1.721   9.672  0.3782 -0.3861 -0.1281
 3644W        W 3644   7.142   7.152   2.944 -0.0729 -0.0962 -0.0937
 3645W        W 3645   0.465   0.819   1.788  0.2291 -0.0765  0.0502
 3646W        W 3646   1.726   5.624   2.151  0.4084 -0.0904 -0.0509
 3647W        W 3647   0.123   5.380   5.800  0.3986 -0.0896 -0.1140
 3648W        W 3648   9.673   1.707   6.288 -0.0822 -0.1099  0.0844
 3649W        W 3649   3.514   5.181   7.498  0.0392 -0.1247  0.1790
 3650W        W 3650   6.660   5.510   0.989 -0.1242  0.3121 -0.0112
 3651W        W 3651   2.424   1.971   4.471  0.1384  0.0733 -0.0832
 3652W        W 3652   7.956   7.287   6.260  0.0223  0.1155  0.2148
 3653W        W 3653   8.116   4.878   8.573  0.1524 -0.2159 -0.0450
 3654W        W 3654   4.881   4.294   2.001  0.0076 -0.2708 -0.0359
 3655W        W 3655   3.895   4.458   3.062 -0.0886  0.1984  0.0667
 3656W        W 3656   7.166   9.867   5.574 -0.1523  0.0313 -0.0004
 3657W        W 3657   2.512   9.363   9.196  0.0700  0.1042  0.2100
 3658W        W 3658   4.693   9.339   4.086 -0.0550  0.1689  0.0494
 3659W        W 3659   1.719   0.850   2.538 -0.2152  0.2860  0.1159
 3660W        W 3660   1.791   5.885  10.016  0.2953  0.1931  0.2255
 3661W        W 3661   8.894   7.835   8.651 -0.1871 -0.2057  0.0715
 3662W        W 3662   7.185   5.296   7.624  0.0158  0.3316  0.0475
 3663W        W 3663   4.375   9.630   2.557  0.0624 -0.0543 -0.0745
 3664W        W 3664   7.320  10.162   1.979  0.0236  0.1311 -0.0627
 3665W        W 3665   3.358   6.760  10.089 -0.1965 -0.0404 -0.0587
 3666W        W 3666   9.832   0.018   4.337 -0.0464 -0.2281  0.4512
 3667W        W 3667   1.799   1.708   7.615 -0.1581 -0.1821 -0.3415
 3668W        W 3668   2.952   1.829   3.706 -0.0949 -0.2473  0.1011
 3669W        W 3669   3.036   6.040   1.539  0.3260  0.0642  0.2709
 3670W        W 3670   2.980   7.601   0.443 -0.3188  0.3145 -0.0679
 3671W        W 3671   8.481   3.500   0.504 -0.3095  0.1831  0.0184
 3672W        W 3672   2.619   7.992   3.195 -0.2364  0.4584  0.0663
 3673W        W 3673   6.288   2.132   0.006  0.0842 -0.0635 -0.0041
 3674W        W 3674   6.446   5.846   7.882 -0.1600 -0.1216  0.1326
 3675W        W 3675   3.671   5.231   7.009 -0.0267  0.1525  0.1930
 3676W        W 3676   1.178   7.854   8.890  0.2388  0.0824  0.5122
 3677W        W 3677   0.651   9.604   6.072  0.1432 -0.1106 -0.0615
 3678W        W 3678   9.133   2.926   8.134 -0.0264  0.3357 -0.1308
 3679W        W 3679   5.509   2.542   7.734  0.0933 -0.2731  0.1706
 3680W        W 3680   2.423   0.310   9.654  0.2161 -0.2570  0.0694
 3681W        W 3681   7.292   5.341   2.977 -0.0126 -0.2964 -0.1336
 3682W        W 3682   4.061   5.237   4.197 -0.1138 -0.0686 -0.1431
 3683W        W 3683   3.088   8.114   8.257  0.0061  0.0825  0.0172
 3684W        W 3684   1.899   8.732   4.123  0.1278 -0.1761  0.0322
 3685W        W 3685   0.565   0.392   2.031  0.1096 -0.6236  0.1318
 3686W        W 3686   2.481   7.500   3.802  0.1843 -0.0791  0.1366
 3687W        W 3687   2.405   5.199   8.929 -0.1624 -0.0784 -0.2802
 3688W        W 3688   6.172   7.371   4.337 -0.0230 -0.0155 -0.2333
 3689W        W 3689   0.453   6.110   7.054 -0.0216  0.0974  0.1505
 3690W        W 3690   4.003   1.628   0.314  0.0094  0.1379 -0.0801
 3691W        W 3691   7.317   1.314   4.794  0.0625 -0.0123  0.0360
 3692W        W 3692   6.292   0.769   2.670 -0.1169  0.0979  0.2996
 3693W        W 3693   6.369   3.009   8.177  0.0492 -0.1934  0.1359
 3694W        W 3694   7.450   6.780   7.918 -0.0123  0.2812  0.0983
 3695W        W 3695   8.461   9.479   8.767  0.1940  0.0799 -0.1096
 3696W        W 3696   6.130   0.821   6.766  0.0872 -0.1645  0.1795
 3697W        W 3697   2.647   0.343   1.903  0.0550 -0.0245 -0.0414
 3698W        W 3698   4.713   8.807   6.643  0.2176 -0.1206  0.1620
 3699W        W 3699   9.563   1.839   3.817  0.1194 -0.2322  0.0140
 3700W        W 3700   0.853   3.969   1.576 -0.2087  0.0268 -0.0581
 3701W        W 3701   5.313   2.493  10.240  0.1631 -0.3037  0.1032
 3702W        W 3702   0.583   8.150   4.401 -0.1807 -0.3683 -0.2739
 3703W        W 3703   4.361   3.601   4.010 -0.3801  0.1062 -0.1320
 3704W        W 3704  10.084   6.624   7.064 -0.0191  0.1763  0.0584
 3705W        W 3705   9.625   2.942   4.604 -0.2974 -0.2540 -0.0779
 3706W        W 3706   5.890   5.064   7.811 -0.0063  0.4290  0.1291
 3707W        W 3707   2.176   9.490   4.275  0.0776  0.0146 -0.0988
 3708W        W 3708   0.267   5.858   4.316 -0.2321  0.4839 -0.1307
 3709W        W 3709   3.768   6.418   2.177 -0.2563 -0.1357 -0.1299
 3710W        W 3710   9.106  10.003   8.274  0.0918  0.4234  0.1177
 3711W        W 3711   5.294   7.924   8.425 -0.1406  0.0866  0.1492
 3712W        W 3712   0.734   9.376   6.964 -0.3410  0.1819  0.0192
 3713W        W 3713   2.116   6.133   9.081 -0.0370 -0.1715  0.4561
 3714W        W 3714   1.297   7.160   0.344 -0.1900  0.3100 -0.0744
 3715W        W 3715   1.757   9.386   4.771 -0.1914  0.0573  0.1832
 3716W        W 3716   7.899   7.244   4.602  0.3707  0.0315  0.1469
 3717W        W 3717   1.657   5.641   6.965  0.1100  0.0019  0.0830
 3718W        W 3718   6.831   3.996   3.728  0.0597  0.0110  0.2439
 3719W        W 3719   0.053   5.316   6.306  0.4287 -0.0502  0.0267
 3720W        W 3720   2.027   2.156   5.226 -0.5055 -0.1790  0.0980
 3721W        W 3721   3.778   4.926   9.662 -0.3592 -0.1270 -0.0763
 3722W        W 3722   6.854   2.240   5.735 -0.0102 -0.0914  0.0719
 3723W        W 3723   6.848   1.298   1.586 -0.0135  0.0579  0.0509
 3724W        W 3724   5.902   2.271   2.211  0.1115  0.1789 -0.1506
 3725W        W 3725   1.267   8.787   2.930  0.0441  0.0047  0.0737
 3726W        W 3726   2.373   0.351   6.327 -0.3109 -0.0309  0.3689
 3727W        W 3727   5.222   6.524   4.152  0.1555  0.2390  0.1163
 3728W        W 3728   5.844   3.699   9.024  0.0135  0.4287 -0.0333
 3729W        W 3729   3.102   9.809   3.779  0.1297 -0.0285 -0.0648
 3730W        W 3730   7.604   9.042  10.021 -0.0658 -0.0588  0.0592
 3731W        W 3731   7.976   8.125   6.164  0.2577 -0.2586  0.0491
 3732W        W 3732   6.359   1.637   3.218 -0.0250 -0.1646 -0.0542
 3733W        W 3733   9.590   2.754   6.703  0.1714  0.2987  0.2417
 3734W        W 3734   4.674   9.516   0.380 -0.2646  0.0950  0.2244
 3735W        W 3735   1.282   8.326   2.691 -0.1443  0.3346 -0.5854
 3736W        W 3736   3.034   2.520   9.365 -0.3128 -0.1557  0.1287
 3737W        W 3737   0.221   9.284   5.523 -0.2768 -0.0536  0.3337
 3738W        W 3738   3.261   0.878   4.194  0.1673 -0.0944  0.0101
 3739W        W 3739   7.443   1.241   0.043  0.1377  0.0370 -0.0527
 3740W        W 3740   6.347   2.254   7.477  0.2012  0.4190 -0.2088
 3741W        W 3741   4.577   2.571   5.333 -0.1012  0.2098 -0.1296
 3742W        W 3742   9.182   6.737   6.088  0.0002  0.0777  0.1192
 3743W        W 3743   6.520  10.186   3.248  0.0349  0.0825 -0.0859
 3744W        W 3744   3.108   1.223   2.908  0.0461 -0.1983 -0.2256
 3745W        W 3745   6.208   1.411   2.289 -0.0581 -0.1966  0.1040
 3746W        W 3746   3.323   3.222   0.452 -0.0311  0.1901 -0.4212
 3747W        W 3747   4.295   9.630   4.327  0.0113  0.1515 -0.0323
 3748W        W 3748   8.924   4.106   4.891  0.1751  0.2303  0.1473
 3749W        W 3749   8.202   1.622   5.877  0.0296  0.1569  0.1021
 3750W        W 3750   3.051   2.028   7.664 -0.1771  0.2421 -0.0343
 3751W        W 3751   6.359  10.253   7.149  0.0627 -0.2174 -0.1040
 3752W        W 3752   5.321   4.748   0.445 -0.0605 -0.0121 -0.1164
 3753W        W 3753   9.064   1.163   8.576 -0.3490  0.1945  0.1224
 3754W        W 3754   3.657   0.373   0.077  0.0677 -0.0877 -0.1909
 3755W        W 3755   1.424   7.741   6.359  0.0980 -0.0518  0.1826
 3756W        W 3756   6.642   1.793   7.653  0.0581  0.0361 -0.1979
 3757W        W 3757   9.900   4.431   7.722 -0.0580  0.0614  0.0053
 3758W        W 3758   8.630   1.049   3.437 -0.1032 -0.0788 -0.1280
 3759W        W 3759   9.667   2.233   5.101 -0.1378  0.0434 -0.2992
 3760W        W 3760   6.671   4.117   2.086 -0.2265  0.0420  0.1773
 3761W        W 3761   2.306   7.948   3.614 -0.1912 -0.1030 -0.3320
 3762W        W 3762   2.907   3.841   5.155  0.1524 -0.0621  0.0825
 3763W        W 3763   0.752   4.108   3.044 -0.4097 -0.2561 -0.0724
 3764W        W 3764   7.324   3.889   3.764  0.2239 -0.0320  0.0927
 3765W        W 3765   2.927   8.991   0.150 -0.0629 -0.0327  0.1609
 3766W        W 3766   9.786   6.646   0.950 -0.2205  0.0722 -0.0878
 3767W        W 3767   7.702   5.900   5.893 -0.4538  0.0925 -0.0945
 3768W        W 3768   0.285   3.062   1.175 -0.2193 -0.0861 -0.1552
 3769W        W 3769   8.879   8.218   5.413  0.1459  0.0325  0.0261
 3770W        W 3770   8.223   3.623   6.477  0.0939 -0.0086  0.0009
 3771W        W 3771   5.889   1.571   2.806  0.1125 -0.2100  0.0655
 3772W        W 3772   2.860   6.884   0.095 -0.3200  0.1167  0.0945
 3773W        W 3773   7.694   2.933   6.602  0.0707 -0.0715  0.0123
 3774W        W 3774   9.984   2.666   7.779 -0.1653  0.3824  0.2828
 3775W        W 3775   3.683   1.066   1.613 -0.1479 -0.1237  0.2282
 3776W        W 3776   7.183   6.106   7.552 -0.0657  0.0029 -0.1288
 3777W        W 3777   4.752   2.290   1.392  0.2872 -0.1615 -0.1157
 3778W        W 3778   8.411   2.114   0.249 -0.1124  0.1612  0.2216
 3779W        W 3779   6.569   3.533   3.037 -0.1723 -0.3806 -0.3503
 3780W        W 3780   3.228   2.841   2.877 -0.1093 -0.1172 -0.1598
 3781W        W 3781   1.031   2.586   2.039  0.0803  0.1199 -0.1427
 3782W        W 3782   6.275   0.556   0.136 -0.1863 -0.3374 -0.3736
 3783W        W 3783   4.222   7.379   1.078 -0.1460  0.0065 -0.0291
 3784W        W 3784   8.933   3.745   3.944  0.1925 -0.2240 -0.1370
 3785W        W 3785   4.869   6.636   9.826  0.1141 -0.2704  0.1563
 3786W        W 3786  10.253   7.136   8.394 -0.2724  0.1023  0.1754
 3787W        W 3787   6.610   9.811   6.300 -0.0718 -0.0911  0.0674
 3788W        W 3788   8.603  10.194   5.336  0.2013  0.0911 -0.0864
 3789W        W 3789   1.571   4.235   1.479 -0.1089  0.0269 -0.0897
 3790W        W 3790   3.450   4.843   0.603 -0.0591  0.0681  0.0042
 3791W        W 3791   5.645   0.783   4.931 -0.3559 -0.1559  0.0234
 3792W        W 3792  10.332   3.118   2.501 -0.0018 -0.2347 -0.2088
 3793W        W 3793   4.182   9.473   6.620 -0.2565  0.1147 -0.1210
 3794W        W 3794   0.825   8.375   0.459  0.3340  0.1571  0.1441
 3795W        W 3795   1.876  10.165   3.541  0.1170 -0.0054  0.3355
 3796W        W 3796  10.296  10.243   4.491  0.1108 -0.2037 -0.1245
 3797W        W 3797   7.577   2.526   6.866  0.0345 -0.0981 -0.1450
 3798W        W 3798   1.473   7.574   4.875 -0.0450 -0.2160  0.2035
 3799W        W 3799   4.214   3.745   9.812 -0.0401  0.0421 -0.0522
 3800W        W 3800   7.289   0.141   0.480  0.2580  0.0109 -0.0068
 3801W        W 3801   5.476   3.704   1.684  0.0421  0.2393  0.0968
 3802W        W 3802   0.741   8.709   6.598 -0.0828  0.0352  0.2913
 3803W        W 3803   2.477   6.619   3.336  0.1891 -0.3858 -0.1330
 3804W        W 3804   0.681   6.720   5.872 -0.0050  0.0623 -0.0910
 3805W        W 3805   5.683   4.010   9.350  0.1002 -0.0932 -0.1233
 3806W        W 3806   4.700   0.431   4.993  0.2690 -0.0285  0.1314
 3807W        W 3807   0.882   7.599   3.720 -0.1979 -0.3517 -0.1330
 3808W        W 3808   5.488   6.679   2.785  0.2083  0.0208 -0.4029
 3809W        W 3809   7.502   1.054   8.895  0.2674  0.2193 -0.2512
 3810W        W 3810   7.788   1.332   6.006 -0.2209  0.2392  0.0131
 3811W        W 3811   1.867   1.786   3.709 -0.1150 -0.0565 -0.1957
 3812W        W 3812   2.615   1.266   0.112 -0.0908 -0.3176 -0.1723
 3813W        W 3813   0.833   3.620   1.948 -0.2068  0.0783  0.1942
 3814W        W 3814   0.466   4.149   1.023 -0.0737  0.3432 -0.1155
 3815W        W 3815   9.989   1.617   2.580 -0.0358 -0.3048 -0.0647
 3816W        W 3816   5.382   7.072   5.816 -0.1481 -0.2757  0.2392
 3817W        W 3817   1.107   1.726   8.784 -0.1824 -0.2068  0.1621
 3818W        W 3818   4.592   9.546   8.010  0.0591  0.0492  0.2065
 3819W        W 3819   2.321   8.253   5.678  0.2993 -0.1465 -0.0378
 3820W        W 3820   5.481   9.198  10.122  0.2162  0.1200 -0.1395
 3821W        W 3821   2.626   5.511   3.959  0.0134 -0.0790  0.3844
 3822W        W 3822   9.151   0.066   5.205  0.0237 -0.0590  0.1125
 3823W        W 3823   9.904   5.138   6.160 -0.0025  0.0909 -0.3207
 3824W        W 3824   8.824   2.279   7.110 -0.3026 -0.0074  0.0103
 3825W        W 3825   5.893   0.242   3.667  0.0306 -0.0380 -0.0156
 3826W        W 3826   4.018   1.871  10.215  0.1402 -0.0120  0.0378
 3827W        W 3827   1.540   6.143   1.827  0.2481 -0.1657 -0.0750
 3828W        W 3828   2.859   9.595   1.627  0.2660  0.0927  0.0845
 3829W        W 3829   4.632   7.784   7.459  0.0409  0.2839  0.1161
 3830W        W 3830   2.134   3.867   0.492 -0.2174  0.2612  0.0326
 3831W        W 3831   3.457   3.972   5.945 -0.0363  0.2074  0.1992
 3832W        W 3832   6.148   8.809   5.964  0.1900 -0.4095 -0.2124
 3833W        W 3833   9.905   8.780   1.612 -0.4741 -0.2639  0.0548
 3834W        W 3834   5.637   4.919   5.698 -0.1623  0.3757 -0.0685
 3835W        W 3835   2.813   8.198   0.605 -0.1471  0.3260 -0.2418
 3836W        W 3836   7.719   3.237   5.682 -0.2036  0.1628 -0.0140
 3837W        W 3837   8.284   1.705   7.491 -0.2173 -0.3055  0.4175
 3838W        W 3838   4.877   6.129   7.847 -0.0095 -0.2617  0.0734
 3839W        W 3839   1.933   5.386   4.533  0.0715 -0.0007 -0.3684
 3840W        W 3840   5.412   5.946   7.867 -0.1062 -0.0492 -0.1131
 3841W        W 3841   6.090   2.125   7.029  0.2494  0.1250  0.2632
 3842W        W 3842   0.896   0.518   7.750 -0.2252 -0.0052  0.3593
 3843W        W 3843   8.969   7.883   2.141  0.0638  0.2814  0.0476
 3844W        W 3844   4.247   2.981   5.129 -0.1669  0.0786 -0.1918
 3845W        W 3845   5.484   6.018   5.627 -0.3365 -0.0987 -0.1132
 3846W        W 3846   3.005   6.564   9.660 -0.2545 -0.0958  0.2434
 3847W        W 3847   9.511   9.679   1.809 -0.1696 -0.1079  0.3208
 3848W        W 3848   7.323   2.057   7.124  0.1398 -0.0321 -0.1838
 3849W        W 3849   0.672   2.791   6.630 -0.0793 -0.0507 -0.0314
 3850W        W 3850   2.556   7.102   6.906 -0.0012  0.3425  0.1124
 3851W        W 3851   0.989   7.903   2.678  0.2499  0.1475  0.1927
 3852W        W 3852   1.692   8.055   1.776  0.2354  0.0075 -0.0825
 3853W        W 3853   8.921   2.996   9.447  0.0579  0.2129 -0.0821
 3854W        W 3854   5.669   4.951  10.179 -0.0400 -0.1266  0.1498
 3855W        W 3855   4.905   8.059   5.314  0.2703 -0.0193  0.0666
 3856W        W 3856   4.119   7.019   0.517  0.1516  0.1208 -0.0065
 3857W        W 3857   0.673   5.507   2.053  0.0094 -0.0115  0.0956
 3858W        W 3858   0.983   6.073   4.951 -0.1343 -0.2484 -0.1694
 3859W        W 3859   8.558   5.215   5.113  0.2103  0.1480  0.0869
 3860W        W 3860  10.160   9.275   9.537  0.1308 -0.0369 -0.1247
 3861W        W 3861   7.142   3.549   4.492  0.3086 -0.0879  0.0742
 3862W        W 3862   6.117   8.592   4.624 -0.3218 -0.1189  0.0595
 3863W        W 3863   9.494   1.984   2.926 -0.0485  0.0948  0.0403
 3864W        W 3864   3.974   9.234   0.612  0.2200  0.0881 -0.0594
 3865W        W 3865   7.417   7.373   0.336  0.1193 -0.2018  0.0547
 3866W        W 3866   0.895   0.613   6.226 -0.0792  0.2421  0.0381
 3867W        W 3867   7.550  10.171   4.201  0.1908 -0.3126  0.0775
 3868W        W 3868   0.920   1.350   7.312 -0.1112  0.1709 -0.2089
 3869W        W 3869   6.759   7.996   5.406 -0.3191  0.2998  0.0094
 3870W        W 3870   2.429   9.048   4.150 -0.0699  0.0774  0.4109
 3871W        W 3871   7.651   5.193   9.327  0.0677  0.0123 -0.0800
 3872W        W 3872   5.971   0.905  10.271 -0.0809  0.0222  0.1489
 3873W        W 3873   4.056   3.413   4.432  0.2143  0.1669  0.3403
 3874W        W 3874   4.082   6.626   5.106  0.0780  0.1988 -0.0146
 3875W        W 3875   8.595   3.069   9.051  0.0602 -0.1410  0.0074
 3876W        W 3876   5.171   6.830   5.034  0.0203 -0.2022  0.1114
 3877W        W 3877   2.582   2.641   8.179  0.1580 -0.0266 -0.1377
 3878W        W 3878   4.493   9.811   9.363  0.0256  0.0218  0.0013
 3879W        W 3879   2.110   0.772   2.225  0.0866 -0.2109 -0.0816
 3880W        W 3880   9.518   2.536   7.258  0.1725 -0.2093 -0.0728
 3881W        W 3881   6.109   0.087   3.145 -0.2476 -0.0918  0.0325
 3882W        W 3882   4.379   6.415   9.111 -0.1293 -0.1370  0.0054
 3883W        W 3883   9.847   6.597   1.434 -0.4138  0.0413  0.0129
 3884W        W 3884   6.204   7.553   6.151 -0.1224 -0.1669 -0.1259
 3885W        W 3885   2.522   7.534   5.609 -0.1373  0.1946  0.0829
 3886W        W 3886   9.916   0.271   6.937  0.0287  0.1376  0.1786
 3887W        W 3887   6.088   2.114   4.940  0.1609  0.0895  0.0380
 3888W        W 3888   2.363   4.516   0.171  0.1539 -0.2754  0.1121
 3889W        W 3889   6.744   9.238   2.586 -0.0707  0.1470 -0.1007
 3890W        W 3890   4.094   9.002   1.078  0.0185  0.2485 -0.4324
 3891W        W 3891   0.647   0.711   4.782  0.0712  0.4056 -0.0483
 3892W        W 3892   9.820   2.452  10.105  0.2227  0.0902  0.1369
 3893W        W 3893   6.879   9.615   9.902 -0.2003 -0.0233  0.2454
 3894W        W 3894   2.400   2.109   3.519  0.0660  0.2385 -0.2223
 3895W        W 3895   1.687   7.671   5.971 -0.0365 -0.1924 -0.0400
 3896W        W 3896  10.248   3.474   3.681  0.1694 -0.0275  0.0109
 3897W        W 3897   5.062   1.497   3.474 -0.2449  0.0999  0.0582
 3898W        W 3898   3.024   5.995   2.949 -0.1223 -0.0281 -0.1927
 3899W        W 3899   2.288   7.649   3.187  0.0287 -0.0851 -0.1603
 3900W        W 3900   6.754   5.493   8.030  0.1672  0.2541 -0.1073
 3901W        W 3901   0.146   6.012   3.591 -0.0135 -0.0722 -0.2445
 3902W        W 3902   1.328   0.985   4.725  0.0491 -0.0004  0.1684
 3903W        W 3903   4.956   3.640   5.518  0.0550  0.2212 -0.0876
 3904W        W 3904   7.355   6.196   6.042  0.0947  0.0815  0.0866
 3905W        W 3905   7.338   8.157   2.924  0.1093 -0.1536  0.3024
 3906W        W 3906   9.741   8.827   2.618 -0.0019  0.1205  0.0368
 3907W        W 3907   8.418   8.519   2.191 -0.3105 -0.1643  0.1602
 3908W        W 3908   1.800   2.703   7.360 -0.1020  0.0749  0.0536
 3909W        W 3909   1.614   3.538   5.417 -0.0476  0.1838  0.0333
 3910W        W 3910   8.976   1.914   3.039 -0.1355 -0.0909  0.2944
 3911W        W 3911   4.760   5.045   9.186 -0.0468  0.1075  0.0544
 3912W        W 3912   4.150   6.938   3.005 -0.1718  0.1791 -0.0400
 3913W        W 3913   6.723   0.325   3.901  0.1806  0.2480  0.1459
 3914W        W 3914   7.570   6.238   7.033  0.0266  0.1159  0.0355
 3915W        W 3915   4.519   3.309   5.960 -0.1955  0.0523  0.3925
 3916W        W 3916   3.142   8.970   2.646 -0.0295 -0.0342  0.1214
 3917W        W 3917   2.711   5.116   7.430  0.2244 -0.0657 -0.1757
 3918W        W 3918   2.351  10.039   4.448  0.1336  0.0928  0.1610
 3919W        W 3919   0.626   3.092   5.620  0.2196 -0.2780 -0.1690
 3920W        W 3920   2.732   3.857   4.708  0.3045  0.3454  0.1776
 3921W        W 3921   0.065   1.757   3.372  0.0040 -0.2686  0.1401
 3922W        W 3922   6.011   6.980   6.539 -0.0435 -0.1245 -0.0109
 3923W        W 3923   3.552   0.794   6.172 -0.1586  0.0133  0.1304
 3924W        W 3924   6.614   3.006   3.498  0.0266  0.3294  0.0777
 3925W        W 3925   1.699   6.120   0.455  0.0641  0.0548  0.0236
 3926W        W 3926   6.458   6.090   6.600 -0.2263 -0.3589 -0.0344
 3927W        W 3927   1.230   5.410   3.871  0.0410 -0.1090 -0.0349
 3928W        W 3928   0.138   7.614   2.716  0.4423  0.0123 -0.1890
 3929W        W 3929   2.552   7.776   4.716  0.0949  0.0354 -0.0734
 3930W        W 3930   1.327   9.995   5.305 -0.3086  0.0258 -0.1618
 3931W        W 3931   4.366   8.589   0.149 -0.1066  0.1386 -0.3815
 3932W        W 3932   5.313   8.900   3.503  0.0512 -0.0475 -0.2900
 3933W        W 3933   9.714   6.588   4.507 -0.1415  0.1253  0.0340
 3934W        W 3934   4.333   2.875   5.694  0.0587  0.0740  0.0349
 3935W        W 3935   1.498   9.726   1.417  0.1794  0.0731 -0.0300
 3936W        W 3936   9.843  10.142   3.614  0.0940  0.0187  0.2553
 3937W        W 3937   2.862   7.735   6.098 -0.0545  0.1082  0.1449
 3938W        W 3938   3.260   5.562   3.253  0.0781 -0.0665  0.2183
 3939W        W 3939   2.405   4.077   5.146 -0.2021  0.1629 -0.0489
 3940W        W 3940   0.670   2.534   1.655  0.0999 -0.3458 -0.0292
 3941W        W 3941  10.308   9.131   3.476 -0.0871  0.2424  0.0241
 3942W        W 3942   4.541   5.694   4.360 -0.0218  0.2181  0.1652
 3943W        W 3943   1.343   2.844   6.205  0.0689 -0.0525  0.2308
 3944W        W 3944   9.533   0.162   7.219 -0.1397  0.2242  0.3763
 3945W        W 3945   6.569   1.911   4.292 -0.0677  0.2311  0.3919
 3946W        W 3946   1.942   3.055   9.926  0.0992  0.2020  0.0276
 3947W        W 3947   6.900   5.596   2.769  0.0606  0.2805  0.0233
 3948W        W 3948   4.874   6.379   5.174 -0.1161  0.0443  0.1389
 3949W        W 3949   0.898   6.956   6.555  0.0600 -0.0182 -0.2299
 3950W        W 3950   4.031   4.495   5.932  0.2605 -0.1411 -0.1946
 3951W        W 3951   2.541   1.756   1.929 -0.2384 -0.1223  0.1061
 3952W        W 3952   2.557   5.801   5.415  0.2195  0.0394  0.0245
 3953W        W 3953   1.529   3.543   9.482 -0.0295  0.0194 -0.0805
 3954W        W 3954   6.348  10.076   1.494 -0.1287  0.0272  0.1358
 3955W        W 3955   7.986   5.640   2.712 -0.3003  0.1016  0.2138
 3956W        W 3956   8.614   3.965   1.304  0.1056 -0.0595 -0.0511
 3957W        W 3957  10.024   6.323   4.970  0.1788  0.0542  0.2206
 3958W        W 3958   5.681   2.013   0.692 -0.1081 -0.1301 -0.0015
 3959W        W 3959   9.801   7.044   9.879  0.1859  0.1670 -0.2522
 3960W        W 3960   6.070   7.072   9.128  0.3315  0.0166  0.2121
 3961W        W 3961   5.829   7.173   6.049  0.1822  0.2693  0.1192
 3962W        W 3962   4.894   6.023   4.748 -0.1790  0.0019 -0.2300
 3963W        W 3963   4.656   9.473   4.606  0.0717 -0.2484 -0.1730
 3964W        W 3964   2.259   8.346   9.853 -0.2314  0.0133  0.0668
 3965W        W 3965   0.037   5.764   8.448  0.1444 -0.2408  0.1176
 3966W        W 3966   2.639   1.914   9.891 -0.0708  0.2135 -0.1896
 3967W        W 3967   2.972   3.522   0.222 -0.1212  0.1892 -0.1107
 3968W        W 3968   0.246   9.709   2.299 -0.0700 -0.0603  0.2520
 3969W        W 3969   2.294   1.647   3.536 -0.3695 -0.1190  0.1988
 3970W        W 3970   9.958   6.945   1.796 -0.0232 -0.1110 -0.3454
 3971W        W 3971   0.240   2.493   3.891  0.5676 -0.0703  0.0359
 3972W        W 3972   6.855   2.307   9.577 -0.1267  0.0424 -0.1372
 3973W        W 3973   0.210   7.769   4.465 -0.1976  0.0368  0.3196
 3974W        W 3974   9.446   6.907   2.230 -0.0339 -0.1385  0.0980
 3975W        W 3975   8.608   3.364   7.576  0.2243  0.0478 -0.0397
 3976W        W 3976   0.552   1.046   6.268  0.0865  0.4742 -0.3325
 3977W        W 3977   9.318   4.217   8.347  0.0841  0.2102 -0.1526
 3978W        W 3978   6.269   8.269   8.233  0.3396 -0.1003 -0.0402
 3979W        W 3979  10.112   0.492  10.069  0.1181  0.2298 -0.1507
 3980W        W 3980   7.855   2.943   4.669  0.0116  0.0366 -0.1546
 3981W        W 3981   8.195   7.924   2.936  0.3738  0.0759 -0.1000
 3982W        W 3982   9.507   3.068   2.665  0.2342 -0.4374 -0.0725
 3983W        W 3983   8.647   5.066   0.161 -0.0560  0.2333 -0.4449
 3984W        W 3984   1.907   6.694   1.086  0.0654 -0.1799 -0.3298
 3985W        W 3985   6.983   6.544   7.759  0.1792  0.2189 -0.0895
 3986W        W 3986   2.280   6.296   6.154  0.0270 -0.0252 -0.1272
 3987W        W 3987   8.402   4.296   5.104 -0.1666  0.1196  0.2181
 3988W        W 3988   9.994   1.165   0.592  0.1694  0.3381 -0.1261
 3989W        W 3989   0.511   1.715   1.572  0.0111  0.0200 -0.0455
 3990W        W 3990   8.141   8.499   8.959 -0.0641  0.3538 -0.2735
 3991W        W 3991   6.711   4.380   6.270 -0.0282 -0.1174 -0.0331
 3992W        W 3992   6.950   9.926   2.249  0.0013 -0.0614  0.4562
 3993W        W 3993   1.157   9.680   9.170  0.2429  0.1895 -0.1238
 3994W        W 3994   4.524   7.786   1.036 -0.1688  0.1798  0.1352
 3995W        W 3995   7.326   7.733   7.953  0.1783  0.0036  0.1291
 3996W        W 3996   7.279   5.048   0.667 -0.2756 -0.0629 -0.2139
 3997W        W 3997   4.491   4.140   0.264 -0.0172  0.2549 -0.0375
 3998W        W 3998   4.321   9.060   0.244 -0.0324 -0.2133  0.0692
 3999W        W 3999   7.887   5.614   6.315  0.0323  0.4174 -0.1109
 4000W        W 4000   4.693   4.359   4.575 -0.1011 -0.0770  0.0422
 4001W        W 4001   0.824   4.870   8.494 -0.0521 -0.0891 -0.3907
 4002W        W 4002   9.251   7.349   0.809 -0.1052 -0.1014 -0.2619
 4003W        W 4003   5.989   5.141   9.638  0.1463 -0.2194 -0.4730
 4004W        W 4004   9.713   3.133   5.030 -0.1327  0.0818  0.0466
 4005W        W 4005   9.359   4.493   6.561 -0.2839  0.0386  0.1410
 4006W        W 4006   6.378   0.226   3.527  0.0089 -0.2638 -0.1585
 4007W        W 4007  10.231   8.219   6.163  0.1661 -0.2294  0.0260
 4008W        W 4008   0.444   2.784   8.152  0.2862  0.1431 -0.3088
 4009W        W 4009   0.797   0.526   2.521 -0.0513  0.0060  0.1568
 4010W        W 4010   2.711   5.863   0.643  0.0761  0.2789  0.0115
 4011W        W 4011   2.148   4.301   4.656 -0.0092 -0.0566 -0.3022
 4012W        W 4012   5.835   3.267   0.224  0.2459  0.3518 -0.0677
 4013W        W 4013   8.868  10.005   6.077  0.0437 -0.0647 -0.1744
 4014W        W 4014   1.588   0.319   4.221  0.1916 -0.2880  0.1246
 4015W        W 4015   5.685   2.594   8.279 -0.1052  0.1652 -0.1345
 4016W        W 4016   3.453   4.552   3.214  0.0349  0.3469 -0.0477
 4017W        W 4017   3.692   5.752   0.290  0.2469  0.1080 -0.0036
 4018W        W 4018   5.867   7.647   3.735  0.1644 -0.4128  0.0780
 4019W        W 4019   5.160  10.046   5.443  0.1167  0.1572  0.2064
 4020W        W 4020   9.943  10.178   2.606 -0.0959  0.3633 -0.1547
 4021W        W 4021   4.090   4.994   7.260 -0.0823  0.0124  0.2219
 4022W        W 4022   6.782   7.348   3.278 -0.1462 -0.0174 -0.0563
 4023W        W 4023   1.409  10.222   7.720 -0.2580  0.1475 -0.1125
 4024W        W 4024   0.574   9.323   2.433  0.0055 -0.0415 -0.2792
 4025W        W 4025   0.475   4.783   3.038  0.2768 -0.0018  0.2969
 4026W        W 4026   9.823   9.936   4.078 -0.2208 -0.2386 -0.1268
 4027W        W 4027   3.552   5.023   4.951  0.1246  0.0055 -0.2516
 4028W        W 4028   1.037   5.816   4.140  0.1327  0.0841 -0.2710
 4029W        W 4029   3.821   8.115   3.407 -0.0626  0.1666  0.0808
 4030W        W 4030   0.345   8.715   8.794 -0.0791 -0.0845  0.0187
 4031W        W 4031   4.480   3.548   8.834 -0.0714 -0.1940 -0.0054
 4032W        W 4032   3.333  10.244   3.983 -0.0154 -0.3938 -0.2891
 4033W        W 4033   4.110   8.681   7.328 -0.1586 -0.1866 -0.1978
 4034W        W 4034   9.466   6.469   0.020  0.0531 -0.4650  0.1980
 4035W        W 4035   5.293   9.969   7.413 -0.1044 -0.0272  0.0358
 4036W        W 4036   2.696   3.150   7.343  0.1790  0.1049  0.1263
 4037W        W 4037   9.580   2.846   3.900 -0.0539  0.0874  0.0144
 4038W        W 4038   9.817   3.511   5.401  0.1493 -0.1961 -0.0587
 4039W        W 4039   1.405   1.328   3.434 -0.1992 -0.2254  0.0137
 4040W        W 4040   9.597   6.648   5.056  0.1837  0.0297  0.1194
 4041W        W 4041   8.599   2.604   6.786 -0.1131  0.0595  0.6110
 4042W        W 4042   3.982   4.462   1.920  0.0939 -0.2371 -0.2865
 4043W        W 4043   1.105   4.356   2.361 -0.0772  0.1707  0.2345
 4044W        W 4044   3.662   0.037   4.323 -0.1838 -0.1338 -0.0099
 4045W        W 4045   2.616   1.504   6.043 -0.1523 -0.2331 -0.1443
 4046W        W 4046   1.007   2.101   5.434  0.0602 -0.0794 -0.0504
 4047W        W 4047  10.111   8.204   7.254 -0.0130 -0.1707  0.2449
 4048W        W 4048   2.534   7.740   2.597 -0.0115  0.1371  0.0098
 4049W        W 4049   0.313   1.294   5.645  0.0719  0.2490 -0.0978
 4050W        W 4050   9.471   8.673   6.157 -0.1909  0.0438 -0.0487
 4051W        W 4051   8.456   1.045   9.198 -0.2763  0.2706  0.2839
 4052W        W 4052   5.609   9.883   6.994 -0.0548 -0.1413  0.2521
 4053W        W 4053   3.802   7.851   5.785 -0.0236 -0.0819  0.2127
 4054W        W 4054   1.486   0.762   7.379  0.0414  0.0486  0.0390
 4055W        W 4055   0.234   8.956   0.630  0.0047 -0.2075  0.4465
 4056W        W 4056   7.843   5.700   1.182  0.0543 -0.1076 -0.0851
 4057W        W 4057   2.562   4.887   8.411 -0.1927  0.1606  0.0341
 4058W        W 4058   8.367   4.465   8.301  0.1104 -0.0390 -0.1314
 4059W        W 4059   6.277   4.387   2.308 -0.0738  0.1681  0.0119
 4060W        W 4060   7.876   4.445   8.502  0.1860 -0.0372 -0.0223
 4061W        W 4061   3.832   9.053   7.167  0.2360 -0.0992  0.1433
 4062W        W 4062   7.924   4.422   0.649 -0.2664  0.1962  0.2368
 4063W        W 4063   4.015   5.611   0.719  0.1682 -0.1226 -0.0158
 4064W        W 4064  10.296   7.323   3.121 -0.2919  0.0576  0.1005
 4065W        W 4065   7.601   2.483   0.521  0.1301 -0.2886 -0.0590
 4066W        W 4066   5.235   2.750   4.919  0.1208  0.0024 -0.1172
 4067W        W 4067   2.265   3.423   2.371 -0.2026  0.0858  0.0110
 4068W        W 4068   5.966   7.949   7.344  0.2342  0.1368  0.2552
 4069W        W 4069   1.035   2.259   7.394 -0.0140 -0.1654  0.2088
 4070W        W 4070   8.812   1.236   8.141 -0.1562 -0.0716  0.1773
 4071W        W 4071   5.457   1.753  10.153  0.2356 -0.2779 -0.2839
 4072W        W 4072   5.942   8.342   5.796 -0.1721  0.1702  0.0241
 4073W        W 4073   2.137   8.220   7.144  0.3788  0.1121 -0.2986
 4074W        W 4074   0.244   8.174   1.271 -0.0130  0.2653  0.1283
 4075W        W 4075   5.340   5.016   9.858  0.0115 -0.1186 -0.1242
 4076W        W 4076   7.322   8.645   0.528  0.1931 -0.0478  0.1737
 4077W        W 4077   5.432   9.274   6.222  0.1572 -0.1382  0.1214
 4078W        W 4078   6.042   9.862   0.177  0.1880  0.3055  0.0177
 4079W        W 4079   0.973   1.803   1.455  0.1457  0.2892  0.1411
 4080W        W 4080   5.602   8.551   5.049  0.0859 -0.2591  0.0187
 4081W        W 4081   0.718   9.611   8.249  0.0861  0.0753 -0.1602
 4082W        W 4082   2.849   7.343   0.824  0.2986  0.0550 -0.0355
 4083W        W 4083   7.239   7.102   0.862 -0.1719  0.0967  0.0962
 4084W        W 4084   4.486   1.751   1.335 -0.2605  0.1263 -0.2910
 4085W        W 4085   2.653   7.880   1.461 -0.1662  0.0589 -0.2492
 4086W        W 4086   0.231   7.311   7.729  0.3029  0.4634  0.2112
 4087W        W 4087   5.787   0.740   9.752  0.0703 -0.1245  0.1422
 4088W        W 4088   5.653   0.031   7.173 -0.0318 -0.0720  0.2089
 4089W        W 4089   3.310   9.233  10.221  0.1151 -0.0131  0.0643
 4090W        W 4090   6.200   7.021   7.436 -0.4426  0.3575  0.1647
 4091W        W 4091   0.473   8.061   9.859 -0.0133  0.2244  0.2034
 4092W        W 4092   0.892   8.699   4.499 -0.1310 -0.0789 -0.0982
 4093W        W 4093   2.914   5.770   8.109  0.0772 -0.2198 -0.0589
 4094W        W 4094   0.911   9.310   0.147 -0.0681  0.1962  0.2112
 4095W        W 4095   5.605   8.715   8.768  0.2033  0.0792  0.1651
 4096W        W 4096   4.617   8.255   6.658  0.1068 -0.2104  0.0079
 4097W        W 4097   7.741   4.827   0.067 -0.1181  0.0887 -0.2662
 4098W        W 4098   0.686   1.493   8.064  0.2234 -0.0684 -0.1373
 4099W        W 4099   7.287   4.332  10.238 -0.2578 -0.1519  0.5616
 4100W        W 4100   8.231   9.931   7.786  0.1179 -0.1535 -0.1153
 4101W        W 4101   5.241   9.545   6.975 -0.2674 -0.1862  0.2054
 4102W        W 4102   3.610   9.969   6.353  0.0740  0.1487  0.0784
 4103W        W 4103   3.004   4.915   6.035  0.2827  0.2158  0.3054
 4104W        W 4104   8.000   4.396   0.126 -0.0579 -0.3306  0.0651
 4105W        W 4105   3.737   8.978   3.162 -0.0745  0.1720  0.1082
 4106W        W 4106   0.637   8.445   3.736 -0.0721 -0.1184 -0.0289
 4107W        W 4107   2.069   3.320   0.569  0.1978  0.0045  0.0356
 4108W        W 4108   4.396   1.730   9.401  0.3190  0.0410  0.0092
 4109W        W 4109   8.425   3.097   9.497  0.3356 -0.1559 -0.3301
 4110W        W 4110   3.836   2.270   6.174  0.0611 -0.1139 -0.0701
 4111W        W 4111   0.017   1.842   4.280 -0.2725  0.5950 -0.0081
 4112W        W 4112   6.534   0.431   9.186 -0.0136 -0.0231  0.2618
 4113W        W 4113   9.632   8.386   4.009 -0.1525  0.0858 -0.1239
 4114W        W 4114   5.545   8.852   9.253  0.2014  0.0476 -0.3159
 4115W        W 4115   6.291   1.368   2.781  0.0112  0.0820 -0.0605
 4116W        W 4116   2.684   9.605   2.195  0.0245  0.0773 -0.2530
 4117W        W 4117   2.269   3.317   4.614  0.1810 -0.1996 -0.0121
 4118W        W 4118   1.175   8.495   2.231  0.1748  0.1547 -0.0957
 4119W        W 4119   4.562   3.150   1.316  0.1495  0.0900  0.0305
 4120W        W 4120   7.099   0.980   9.961  0.0148 -0.0004 -0.0924
 4121W        W 4121   5.173   7.480   9.026  0.0176  0.0275  0.1529
 4122W        W 4122  10.260   3.104   0.403  0.1810  0.0668 -0.0199
 4123W        W 4123   4.574   3.553   1.659  0.0385  0.2857  0.0511
 4124W        W 4124   3.250   2.028   1.588 -0.1881 -0.1719  0.2138
 4125W        W 4125   2.664   6.828   9.462 -0.1412 -0.0501 -0.0705
 4126W        W 4126   5.370   5.543   4.419  0.1200  0.1979 -0.2464
 4127W        W 4127   7.135  10.310   0.904 -0.0732  0.1800  0.2950
 4128W        W 4128   5.309   8.238   5.542 -0.3645 -0.1843  0.0386
 4129W        W 4129   0.753   3.392   4.890  0.0969  0.0323 -0.2637
 4130W        W 4130   5.917   2.793   9.322 -0.0870 -0.1630 -0.0809
 4131W        W 4131   7.698   9.013   8.878 -0.2138  0.0481 -0.2123
 4132W        W 4132   9.549   9.123   2.997 -0.0157  0.0061 -0.1050
 4133W        W 4133   6.832   5.876   3.713 -0.2009  0.0948 -0.2429
 4134W        W 4134   7.591   5.149   2.097 -0.3828  0.2124  0.0619
 4135W        W 4135   5.047   9.055   9.260 -0.0839 -0.0280 -0.0319
 4136W        W 4136   0.945   0.022   2.483 -0.1095  0.0902  0.3304
 4137W        W 4137   5.018   0.389   7.715 -0.0721  0.0766  0.1172
 4138W        W 4138   8.147   8.589   9.443 -0.0544 -0.0191  0.0078
 4139W        W 4139   1.995   7.790   3.983 -0.0099 -0.0298  0.4117
 4140W        W 4140   9.185   9.618   2.738  0.0906  0.1553 -0.1715
 4141W        W 4141   1.910   2.385   1.583  0.0433  0.0327 -0.3871
 4142W        W 4142   4.013   2.607   2.507  0.0728 -0.1752  0.2023
 4143W        W 4143   2.756   7.912   9.114  0.0456  0.1539  0.0376
 4144W        W 4144   9.708   2.461   0.352 -0.1337 -0.4937  0.0642
 4145W        W 4145   8.537   8.915   4.479  0.1633  0.0845  0.0857
 4146W        W 4146   8.091   4.086   8.129  0.0420 -0.0435  0.0549
 4147W        W 4147   7.186   4.579   6.151 -0.3018 -0.0957 -0.2091
 4148W        W 4148   1.645   1.129   9.475  0.1293 -0.0092 -0.0233
 4149W        W 4149   7.782   3.164   7.701  0.1240 -0.1914 -0.1680
 4150W        W 4150   4.712   6.290  10.135 -0.0704 -0.1302 -0.2566
 4151W        W 4151   6.902   2.072   0.560 -0.2500 -0.4994 -0.0555
 4152W        W 4152   0.044   4.631   9.009 -0.2014 -0.1900 -0.2089
 4153W        W 4153   7.104   9.614   9.216  0.0811 -0.0752  0.1224
 4154W        W 4154   5.374   2.364   0.740 -0.0108  0.0395  0.3469
 4155W        W 4155   3.482   0.397   2.627  0.0814  0.0338  0.2568
 4156W        W 4156   9.429   4.276   4.630  0.1253  0.1446  0.0052
 4157W        W 4157   1.541   7.527   0.056  0.1464  0.0123  0.0839
 4158W        W 4158   3.306   3.941   6.367  0.0877 -0.3410 -0.3289
 4159W        W 4159   4.102   6.660   2.446  0.2191  0.1322  0.2325
 4160W        W 4160   8.450   7.167   0.145 -0.1746  0.2441  0.0005
 4161W        W 4161   9.085   7.246   3.555  0.3626 -0.1956 -0.0640
 4162W        W 4162   5.535   5.677   9.226 -0.1201 -0.0243 -0.0606
 4163W        W 4163   7.861   7.927   5.302 -0.2969  0.1065 -0.2851
 4164W        W 4164   8.956   0.029   5.710  0.2616  0.0299 -0.0248
 4165W        W 4165   2.876   0.853   0.104  0.1460  0.0696 -0.0812
 4166W        W 4166   8.340   1.360   2.119  0.1107  0.1045 -0.1643
 4167W        W 4167   2.310  10.245   3.801  0.0975 -0.1778  0.1029
 4168W        W 4168   4.191   6.782   7.482 -0.0353 -0.0561 -0.1300
 4169W        W 4169   3.508   2.571   9.342 -0.2392  0.3901 -0.0497
 4170W        W 4170   3.768   4.052   2.353 -0.1843 -0.1232 -0.2901
 4171W        W 4171   4.380   6.738  10.055  0.3918  0.0501 -0.0089
 4172W        W 4172   4.733  10.037   8.093  0.0889  0.0725 -0.0857
 4173W        W 4173   5.313   8.892   0.140  0.1847  0.0165 -0.0117
 4174W        W 4174   0.914   8.278   9.578 -0.3753 -0.1158 -0.0936
 4175W        W 4175   7.220   7.543   3.358 -0.0418  0.2001  0.0090
 4176W        W 4176   4.559   5.197   7.028  0.0145  0.0334 -0.3189
 4177W        W 4177   7.026   0.763   6.476 -0.0779 -0.0222 -0.0199
 4178W        W 4178   1.800   9.025  10.295 -0.0675  0.2309  0.0250
 4179W        W 4179   1.124   8.989   0.651 -0.0176  0.1531 -0.0182
 4180W        W 4180   6.387   8.486   5.546  0.3612  0.2400 -0.0682
 4181W        W 4181  10.305   6.119   5.365  0.2008  0.1394  0.0289
 4182W        W 4182   5.030   3.487   1.361 -0.3985 -0.0268  0.0999
 4183W        W 4183   5.639   2.092   8.768  0.1301  0.0376 -0.1901
 4184W        W 4184   7.157   8.396   7.293 -0.2049  0.0941  0.0791
 4185W        W 4185   4.502   0.393   6.764  0.0855  0.1795  0.3040
 4186W        W 4186   1.357   1.991   9.184  0.1312 -0.0048  0.1729
 4187W        W 4187   8.035   0.528   4.618  0.4441 -0.2903  0.1660
 4188W        W 4188   0.754   4.137   2.105  0.0257 -0.3260  0.1380
 4189W        W 4189   2.709   7.416   3.355 -0.0437 -0.0532 -0.1048
 4190W        W 4190   9.229   8.322   0.391 -0.3678  0.0843 -0.1865
 4191W        W 4191   3.434   0.671   9.325 -0.1839  0.1030 -0.1696
 4192W        W 4192   4.576   0.149   1.832 -0.0944  0.0302 -0.2012
 4193W        W 4193   8.101   1.243   1.377  0.0974 -0.0620  0.1950
 4194W        W 4194   4.742   2.042   9.564 -0.2972  0.2739  0.1501
 4195W        W 4195   3.776   7.491   9.259 -0.0744 -0.1437  0.1236
 4196W        W 4196   4.370   5.210   5.003  0.1779  0.1954 -0.1605
 4197W        W 4197   2.352   9.483   1.616 -0.0382  0.1995  0.2519
 4198W        W 4198   5.539   5.196   4.098 -0.1418 -0.1920 -0.0317
 4199W        W 4199   1.231  10.300   8.498 -0.1554  0.1471  0.0053
 4200W        W 4200   0.847   7.499   6.233 -0.2096 -0.1641 -0.1307
 4201W        W 4201   1.230   7.155  10.092 -0.0746  0.1331  0.3146
 4202W        W 4202   2.115   6.710   9.113  0.0685 -0.0727 -0.0729
 4203W        W 4203   2.928   5.860   4.127  0.1037  0.0936  0.1513
 4204W        W 4204   6.203   9.806   5.472  0.2956 -0.0658  0.1543
 4205W        W 4205   7.096   4.786   0.287 -0.2470 -0.0199  0.1318
 4206W        W 4206   9.257   9.557   8.740 -0.0082 -0.0694  0.1317
 4207W        W 4207   5.429   4.169   2.789 -0.0679  0.2669  0.3166
 4208W        W 4208   9.043   9.550   3.591  0.0239 -0.0500  0.1055
 4209W        W 4209   6.200   2.190   1.616  0.3306 -0.2844  0.5012
 4210W        W 4210   0.176   8.943   9.781 -0.2222  0.0035  0.2767
 4211W        W 4211   1.599   0.943   3.037 -0.1704  0.1285  0.1611
 4212W        W 4212   3.512   4.669   1.599 -0.0800 -0.0320  0.2628
 4213W        W 4213   6.288   9.606   1.458  0.3244 -0.1122 -0.0302
 4214W        W 4214   7.707   1.129   8.398  0.1981 -0.4215 -0.0723
 4215W        W 4215   0.625   1.768   0.445 -0.1241  0.0325 -0.1860
 4216W        W 4216   9.004   9.935   9.624  0.3386 -0.0606  0.4510
 4217W        W 4217   2.933   4.257   0.084  0.0152  0.0385 -0.2407
 4218W        W 4218   5.278   0.972   7.694 -0.2403  0.0352 -0.0746
 4219W        W 4219   0.225   8.983   5.988  0.1197 -0.4796 -0.0958
 4220W        W 4220   8.342   8.558   4.787  0.2006 -0.0787 -0.0034
 4221W        W 4221   9.132   2.268   5.024 -0.1249 -0.1314 -0.1787
 4222W        W 4222   9.324   2.223   1.664  0.2076  0.1825  0.2208
 4223W        W 4223   8.399   3.068   2.451 -0.0434  0.1311  0.1100
 4224W        W 4224   0.013   9.417   7.404 -0.2393 -0.1640 -0.1365
 4225W        W 4225   8.719   9.523   6.067 -0.0316  0.3618 -0.2119
 4226W        W 4226   3.283   4.036   0.381 -0.1387  0.0224 -0.1122
 4227W        W 4227   5.913   6.642   4.722  0.2100  0.2338 -0.3819
 4228W        W 4228   4.214   9.474   0.015  0.1517 -0.0597  0.0391
 4229W        W 4229   1.528   8.017  10.231 -0.0185  0.1783 -0.0465
 4230W        W 4230   6.649   1.176   0.454  0.1544 -0.2811 -0.0241
 4231W        W 4231   3.453   2.522   2.530 -0.1814  0.0476  0.0473
 4232W        W 4232   3.779  10.009   9.859 -0.2718 -0.2568 -0.4965
 4233W        W 4233   6.359   0.283   9.654  0.1335 -0.0046 -0.0892
 4234W        W 4234  10.304   1.408   8.858  0.1586  0.2203 -0.1304
 4235W        W 4235   5.933   6.022   7.677 -0.2386 -0.0422 -0.0983
 4236W        W 4236   8.064   5.670   1.671 -0.4819  0.2093  0.1442
 4237W        W 4237   5.302   0.630   3.496  0.0252 -0.2116 -0.1877
 4238W        W 4238   1.822   8.238   2.681  0.3865  0.3887 -0.0432
 4239W        W 4239   3.951   0.757   0.205 -0.1680  0.4942  0.3008
 4240W        W 4240   2.030   5.512   7.722  0.1557 -0.1158  0.0517
 4241W        W 4241   0.968   8.755   1.832  0.0517 -0.5152 -0.2927
 4242W        W 4242   7.832   3.557   8.963  0.0759  0.1562 -0.2142
 4243W        W 4243  10.013   3.611   0.212 -0.0845  0.1209 -0.0182
 4244W        W 4244   6.846   4.841   4.870  0.2733  0.2018  0.0209
 4245W        W 4245   6.780   1.872   2.048  0.0029 -0.1118  0.1476
 4246W        W 4246   7.916   1.497   8.185  0.2713  0.1287  0.3510
 4247W        W 4247   2.112   8.998   4.534 -0.0333  0.1739 -0.1233
 4248W        W 4248   2.440   6.575   5.804 -0.1979  0.0518 -0.0890
 4249W        W 4249   9.274   1.435   1.728 -0.1009  0.0907 -0.0630
 4250W        W 4250   3.309   8.686   7.050  0.0100  0.3119  0.1080
 4251W        W 4251   8.464   5.317   3.892 -0.0155  0.0190  0.0062
 4252W        W 4252   7.361   9.056   1.585  0.0587  0.2140  0.0836
 4253W        W 4253   6.608   4.808   7.469 -0.4192  0.0426  0.1070
 4254W        W 4254   3.003   9.728   9.302 -0.1912 -0.0403  0.3929
 4255W        W 4255   0.882   1.001   4.099  0.2974  0.1895 -0.1018
 4256W        W 4256   2.117   5.633   9.108 -0.1697  0.3843  0.1417
 4257W        W 4257   5.702   4.511   1.345  0.4498  0.3530  0.5727
 4258W        W 4258   4.281   9.499   2.064 -0.0759 -0.2087  0.0805
 4259W        W 4259   4.511   9.796   8.486  0.0870  0.2672  0.6528
 4260W        W 4260   6.257   7.548   7.333  0.0114 -0.2348 -0.3073
 4261W        W 4261   5.901   6.433   7.991 -0.0646  0.0768 -0.0686
 4262W        W 4262   8.323   1.931   7.015 -0.3106  0.1093  0.1563
 4263W        W 4263   7.927   1.600   2.287 -0.0232 -0.0498  0.0045
 4264W        W 4264   4.443   9.198   0.708  0.0983 -0.0119 -0.0670
 4265W        W 4265   8.116   6.079   0.842 -0.1011  0.2523  0.1520
 4266W        W 4266   6.796   4.834   6.468 -0.1811 -0.2667  0.0671
 4267W        W 4267   6.265   7.463   6.629  0.4207 -0.1561  0.0270
 4268W        W 4268   1.885   7.642   9.104  0.0733  0.0019  0.1189
 4269W        W 4269   3.351   1.252   9.895 -0.0501 -0.3143 -0.0927
 4270W        W 4270   0.039   2.746   7.248 -0.0757 -0.1604 -0.1333
 4271W        W 4271   4.315   1.639   4.181 -0.1137  0.3050 -0.0233
 4272W        W 4272   7.037   4.186   8.412  0.0182 -0.1055  0.0431
 4273W        W 4273   8.296   6.544   5.782  0.2255 -0.0319  0.1625
 4274W        W 4274   8.392   6.315   8.087  0.0647 -0.2189  0.0341
 4275W        W 4275   1.604   0.292   1.679 -0.3238 -0.2269 -0.2568
 4276W        W 4276   0.001   2.500   1.834 -0.0187 -0.1602 -0.0983
 4277W        W 4277   9.836   5.313   9.324 -0.0654 -0.1771  0.0776
 4278W        W 4278   2.947  10.106   6.447  0.1481  0.1343 -0.0777
 4279W        W 4279   0.525   2.833   7.165  0.3029 -0.0417  0.0745
 4280W        W 4280   5.797   1.643   4.870 -0.0692  0.4440  0.1287
 4281W        W 4281   9.610   0.678   4.719  0.0626  0.1577  0.0797
 4282W        W 4282   2.233   6.770   6.713  0.0131  0.0813  0.2008
 4283W        W 4283   6.312   9.972   2.857 -0.3206  0.1420 -0.2146
 4284W        W 4284   6.161   0.717   8.928  0.1137 -0.2093 -0.4854
 4285W        W 4285   2.975  10.196   0.141  0.1050  0.1086 -0.0703
 4286W        W 4286   7.462   5.657   3.399 -0.0901  0.0494 -0.0923
 4287W        W 4287   1.544   0.021   6.777  0.0718 -0.0319 -0.0573
 4288W        W 4288   5.842   8.131   5.367 -0.0492  0.0814 -0.3927
 4289W        W 4289   1.985   5.025   2.868 -0.2617  0.3725  0.0829
 4290W        W 4290   2.105   4.463  10.078  0.0443  0.1875  0.0784
 4291W        W 4291   7.051   3.728   6.864  0.0269  0.1615  0.0249
 4292W        W 4292   7.396   9.305   5.894 -0.4137 -0.2967  0.0958
 4293W        W 4293   9.581   3.718   8.539 -0.2924 -0.0382  0.0060
 4294W        W 4294   3.211   5.532   9.362  0.1752 -0.4821  0.1477
 4295W        W 4295   6.425   0.600   1.141 -0.1115  0.2038  0.0931
 4296W        W 4296   6.842   4.610   2.164 -0.1613  0.3882 -0.0966
 4297W        W 4297   1.616   0.935   8.246 -0.0963 -0.1258 -0.0732
 4298W        W 4298   1.919   8.708   8.792 -0.1729  0.2355  0.0863
 4299W        W 4299  10.184   4.794   6.583  0.1298 -0.0515 -0.1131
 4300W        W 4300   5.357   9.970   8.149 -0.2281  0.1082 -0.0883
 4301W        W 4301   4.478   4.234   6.926 -0.0130  0.1520 -0.2066
 4302W        W 4302   7.948   1.980   4.018 -0.2787 -0.2147 -0.0580
 4303W        W 4303   3.460   6.131   8.866  0.1809  0.1595  0.1236
 4304W        W 4304   9.784   1.542   3.121  0.1171  0.1862  0.1189
 4305W        W 4305   6.875   6.090   7.913  0.2892  0.1236  0.1051
 4306W        W 4306   0.915   2.548   0.375  0.0855  0.0718  0.0245
 4307W        W 4307   9.856   9.772   9.013 -0.2337 -0.1757  0.1109
 4308W        W 4308   2.836   7.677   7.091 -0.3221 -0.1232 -0.4342
 4309W        W 4309   4.176   6.104   3.177 -0.0511  0.0075 -0.1237
 4310W        W 4310   6.969   7.949   8.922  0.1130 -0.0012 -0.0160
 4311W        W 4311   9.623   4.320   6.980  0.0853 -0.0662 -0.0118
 4312W        W 4312   9.786   5.250   0.702 -0.1203  0.0176  0.0041
 4313W        W 4313   1.483   9.871   0.117  0.1291 -0.3066 -0.0604
 4314W        W 4314   0.341   4.979   9.340  0.0813 -0.4221 -0.0979
 4315W        W 4315   3.130   7.244   2.286 -0.0529 -0.1922  0.0761
 4316W        W 4316   0.862   9.958   5.343 -0.1402  0.0454  0.3455
 4317W        W 4317   7.638   2.789   8.938  0.0296  0.0919 -0.0690
 4318W        W 4318   1.686   7.982   7.255  0.0345 -0.1443  0.2101
 4319W        W 4319   6.213   9.404   3.131  0.1700  0.3811  0.2417
 4320W        W 4320   8.593   0.595   2.550 -0.1425 -0.0787 -0.2689
 4321W        W 4321   2.085   4.854   1.041  0.1192 -0.0903  0.0234
 4322W        W 4322   4.681   1.457   2.672 -0.1551 -0.1151  0.1404
 4323W        W 4323   2.220   2.454   4.893 -0.0541  0.1629 -0.0480
 4324W        W 4324   6.971   4.645   0.998  0.0752  0.4075 -0.3394
 4325W        W 4325   3.501   9.618   9.072 -0.1692  0.2123 -0.1356
 4326W        W 4326   7.124   6.929   3.463 -0.0999 -0.3183  0.2324
 4327W        W 4327   7.042   5.777   4.719  0.0495 -0.0771 -0.1439
 4328W        W 4328   1.123   4.037   8.637  0.1450  0.1745 -0.1903
 4329W        W 4329   5.510   0.740  10.187  0.2253 -0.1037  0.2548
 4330W        W 4330   9.348   8.608   2.341 -0.2999 -0.2726  0.0183
 4331W        W 4331   3.058   6.281   2.553  0.1420 -0.0060 -0.2142
 4332W        W 4332   0.201   9.859   8.341 -0.2022  0.0081 -0.4150
 4333W        W 4333   1.641   9.176   4.291 -0.2499  0.2834 -0.2822
 4334W        W 4334   3.897   7.791   9.606 -0.1661  0.0347  0.2036
 4335W        W 4335   9.629   8.407   1.964  0.2920  0.3159 -0.0662
 4336W        W 4336   5.424   2.423   2.223  0.1654 -0.2038 -0.1964
 4337W        W 4337   2.998   0.738   3.828  0.0342 -0.0204  0.0597
 4338W        W 4338   6.795   3.846   7.336  0.3075 -0.1663  0.0214
 4339W        W 4339   9.154   2.720   4.261  0.0341  0.1423  0.1231
 4340W        W 4340   1.633   0.829   3.508 -0.2958 -0.1288 -0.1340
 4341W        W 4341   4.833   4.139   0.634 -0.1997  0.2124  0.2300
 4342W        W 4342   8.526   0.683   0.838  0.0407  0.0228 -0.0191
 4343W        W 4343   3.463   8.218   7.251  0.2849 -0.3251 -0.0584
 4344W        W 4344   2.962   2.738   0.388 -0.0932 -0.2273  0.5171
 4345W        W 4345   8.431   0.547   4.263 -0.1407  0.2222  0.0710
 4346W        W 4346   0.522   6.011   4.683  0.3349 -0.1239  0.1514
 4347W        W 4347   9.294   3.366   6.885  0.5915  0.2926  0.1753
 4348W        W 4348   5.288   7.374   1.043 -0.0676  0.0115 -0.2830
 4349W        W 4349   0.237   2.073   7.005  0.1245  0.1867 -0.2648
 4350W        W 4350   4.145   2.097   1.291  0.0455  0.0027  0.0020
 4351W        W 4351   9.405   4.563   3.098 -0.0512  0.0807 -0.0468
 4352W        W 4352   7.826   0.603   5.153  0.1558  0.1250  0.2896
 4353W        W 4353   9.181   5.357   3.355  0.0918 -0.1464 -0.2086
 4354W        W 4354   3.837   4.489   4.646  0.1599  0.0151 -0.1626
 4355W        W 4355   6.543   0.955   7.694 -0.1205  0.1654  0.2054
 4356W        W 4356   8.969   3.424   8.963  0.1673 -0.2475 -0.1025
 4357W        W 4357   0.264   8.961   2.408  0.0713 -0.0159 -0.1314
 4358W        W 4358   1.401   2.634   7.036  0.3645 -0.0399 -0.1956
 4359W        W 4359   3.770   6.501   8.572  0.4120 -0.1542 -0.0476
 4360W        W 4360   8.670   6.692   3.248 -0.0321  0.2990  0.2370
 4361W        W 4361   3.889   8.422   6.325  0.0469 -0.0970 -0.1708
 4362W        W 4362   8.707   9.382  10.008 -0.0185 -0.0257  0.3095
 4363W        W 4363   6.650   6.843   5.302  0.0522  0.1077 -0.0379
 4364W        W 4364   5.442   0.572   7.388  0.0996 -0.3433 -0.2411
 4365W        W 4365   4.277   4.172   4.744 -0.1337  0.0793  0.0759
 4366W        W 4366   3.826   4.763   5.312  0.1437 -0.1856  0.3593
 4367W        W 4367   8.539   1.240   0.702  0.1079  0.0938  0.0202
 4368W        W 4368   7.950   7.503   2.819 -0.2104  0.4356 -0.0100
 4369W        W 4369   0.613   6.479   2.740  0.0113 -0.1529 -0.1122
 4370W        W 4370   8.577   6.553   2.344  0.0986  0.1279  0.0725
 4371W        W 4371   9.794   1.568   8.070  0.2055  0.6140  0.5064
 4372W        W 4372   7.929   6.629   8.028  0.0972 -0.1194  0.0585
 4373W        W 4373   8.725   3.850   9.022 -0.0823  0.0645  0.3080
 4374W        W 4374   8.881   4.335   8.582  0.2911  0.0147 -0.1888
 4375W        W 4375   9.925   9.126   7.196 -0.1141  0.2461 -0.0014
 4376W        W 4376   1.973   0.689   9.883  0.2355  0.0502 -0.0030
 4377W        W 4377   8.452   6.545   8.830  0.0206 -0.2187 -0.5260
 4378W        W 4378   1.561   5.391   8.319  0.1815  0.0347 -0.2152
 4379W        W 4379   7.872   2.099   9.903 -0.1824 -0.1234 -0.0622
 4380W        W 4380   1.410   9.850   0.898  0.1100 -0.3049 -0.2664
 4381W        W 4381   2.205   3.109   4.110 -0.1285 -0.1586 -0.1383
 4382W        W 4382   0.273   3.568   4.801  0.2656 -0.0907  0.0062
 4383W        W 4383   4.500   9.067   8.134  0.2223  0.0198 -0.1624
 4384W        W 4384   4.686   4.099   5.058  0.3695  0.0978 -0.1768
 4385W        W 4385   4.141   8.779   3.805 -0.1167 -0.4450  0.0986
 4386W        W 4386   9.687   2.535   1.781 -0.2632 -0.1838 -0.0413
 4387W        W 4387   2.431   2.946  10.007  0.1844  0.1810 -0.1504
 4388W        W 4388   3.207   6.545   4.800 -0.0880 -0.1828  0.2730
 4389W        W 4389   6.881   2.987   7.024 -0.1737  0.1080  0.1450
 4390W        W 4390   3.703   0.359   3.937 -0.3750  0.0947 -0.1902
 4391W        W 4391   6.583   2.396   2.902  0.1301 -0.0778  0.1736
 4392W        W 4392   9.357   7.956   6.521  0.1116 -0.0875  0.2579
 4393W        W 4393   9.906   8.644   6.391 -0.2344 -0.1008 -0.1065
 4394W        W 4394   1.310   3.239   8.169 -0.3002 -0.1630  0.0210
 4395W        W 4395   0.048   9.912   7.508 -0.4704 -0.1401 -0.1199
 4396W        W 4396   7.295   7.988   2.415  0.1228 -0.0552  0.1420
 4397W        W 4397   4.791   9.987   0.472 -0.0341 -0.0849  0.0709
 4398W        W 4398   5.700   9.818   9.217  0.2382  0.2059  0.2516
 4399W        W 4399   0.545   8.586   9.886 -0.0460 -0.0193 -0.2264
 4400W        W 4400   5.586   0.828   6.199  0.0510 -0.1915 -0.2226
 4401W        W 4401   5.815   8.754   1.809  0.2896  0.1885  0.2188
 4402W        W 4402   8.951   4.761   8.882 -0.1181  0.1290  0.1270
 4403W        W 4403   7.825   1.985   6.875 -0.2014 -0.1179 -0.0106
 4404W        W 4404   7.442   2.015   3.879 -0.1745  0.2425 -0.4113
 4405W        W 4405  10.178   2.801   9.925 -0.3391 -0.1411  0.1173
 4406W        W 4406   4.032   2.882   4.601 -0.0687 -0.2405  0.1908
 4407W        W 4407   1.491   8.556   9.569  0.0286  0.0613  0.0386
 4408W        W 4408   4.943   5.692   0.376 -0.0246  0.0566  0.0583
 4409W        W 4409   5.537   2.920   0.515  0.3043  0.2140  0.1007
 4410W        W 4410   1.303   3.760   7.691 -0.1242 -0.3809  0.0264
 4411W        W 4411   7.159   3.421   7.276 -0.0593 -0.1846 -0.0736
 4412W        W 4412   0.303   1.163   7.936  0.0563 -0.1125  0.1344
 4413W        W 4413   2.198   7.633   6.967  0.1063  0.3414 -0.4224
 4414W        W 4414   5.138   8.600   8.947  0.0495  0.3596  0.0653
 4415W        W 4415   6.056   4.856   0.157  0.2357 -0.1461  0.1209
 4416W        W 4416   6.655   1.603   2.492  0.1624  0.1730  0.0102
 4417W        W 4417   0.779   8.239   2.121  0.2324 -0.1872  0.0806
 4418W        W 4418   1.072   1.156   6.156  0.0771 -0.1251  0.0155
 4419W        W 4419   0.742   1.071   2.548 -0.4219 -0.0128 -0.0818
 4420W        W 4420   5.312   7.072   4.122  0.1279  0.3461  0.3932
 4421W        W 4421   3.282   8.807   4.010 -0.0770  0.1381 -0.1092
 4422W        W 4422   8.678   0.601   1.623  0.2737  0.2253 -0.1350
 4423W        W 4423   9.883   9.405   4.145  0.1767 -0.2035 -0.2525
 4424W        W 4424   5.832   5.100   1.410 -0.5447  0.0785  0.2371
 4425W        W 4425   0.086   4.396   4.932  0.0371  0.1762  0.1844
 4426W        W 4426   0.211   9.574   1.494 -0.2146 -0.0945  0.3150
 4427W        W 4427   1.301   3.151   7.235 -0.2313  0.0276  0.3044
 4428W        W 4428  10.009   4.483   7.247  0.3273 -0.1203  0.1442
 4429W        W 4429   3.249   4.525  10.102 -0.1297 -0.1390 -0.0022
 4430W        W 4430   3.802   6.209   7.739  0.0737 -0.1259  0.0717
 4431W        W 4431   5.991   3.082   6.612  0.1318 -0.1072 -0.1011
 4432W        W 4432   1.905   0.529   5.116 -0.0611 -0.4753 -0.1055
 4433W        W 4433   7.469   4.528   1.459 -0.0355  0.0196  0.0570
 4434W        W 4434   7.896   1.337   6.489  0.1707 -0.0394  0.2605
 4435W        W 4435   3.479   8.934   1.276  0.0190 -0.0683 -0.0151
 4436W        W 4436   2.173   2.992   6.563 -0.0551 -0.0653 -0.1007
 4437W        W 4437   9.918   2.394   8.223 -0.0760 -0.0197  0.2339
 4438W        W 4438   4.537   1.856   0.606  0.1276 -0.1931 -0.1690
 4439W        W 4439   0.911   1.335   3.579 -0.2299 -0.0786  0.0462
 4440W        W 4440   1.123   5.415   0.306 -0.0473  0.2679 -0.1115
 4441W        W 4441   5.855   0.663   2.302  0.2296  0.2163 -0.3785
 4442W        W 4442   5.180   5.511   9.992  0.0676  0.2043  0.0102
 4443W        W 4443   1.731   3.605   3.303  0.2840 -0.0611 -0.0367
 4444W        W 4444   0.117   9.950   7.003  0.2855  0.2575 -0.0202
 4445W        W 4445   3.215   7.755   7.379 -0.1505 -0.0846 -0.1300
 4446W        W 4446   9.086   0.304   6.571 -0.0669  0.0239 -0.1268
 4447W        W 4447   6.135   7.975   4.237  0.0472  0.0720  0.0304
 4448W        W 4448   4.044   3.944   4.298 -0.2444 -0.2993  0.0046
 4449W        W 4449   4.273   2.284   2.232 -0.0241 -0.0398  0.0630
 4450W        W 4450   2.706   8.711   3.921  0.3518 -0.3297  0.1638
 4451W        W 4451   4.652   5.783   6.636 -0.3160 -0.0449  0.1469
 4452W        W 4452   5.659   8.433   6.219  0.3289  0.0787  0.1762
 4453W        W 4453   0.564   1.203   4.447 -0.0509  0.3199 -0.1085
 4454W        W 4454   5.378   6.541   8.179  0.4127 -0.0833 -0.1428
 4455W        W 4455   2.547   2.377   9.199  0.0123 -0.0970  0.1553
 4456W        W 4456   4.062   8.562   3.260  0.0529  0.2512 -0.2443
 4457W        W 4457   1.212   5.415   4.392 -0.0830  0.0011 -0.0524
 4458W        W 4458   1.907   6.755   1.645 -0.2828 -0.2240 -0.4328
 4459W        W 4459   5.969   4.949   4.412 -0.0406 -0.0339  0.2119
 4460W        W 4460   0.870   9.394   4.093 -0.0792  0.1110 -0.1623
 4461W        W 4461   5.742   6.896   8.198  0.3060  0.1022  0.0187
 4462W        W 4462   3.118   1.107   1.480  0.0550  0.0024  0.2871
 4463W        W 4463   0.804   6.333   7.360 -0.1635 -0.0747 -0.3292
 4464W        W 4464   9.081   7.047   7.571  0.1597 -0.0774  0.2906
 4465W        W 4465   4.837   1.733   5.185  0.0947  0.3616  0.0008
 4466W        W 4466   3.750   7.314   5.660  0.0540 -0.0907  0.0460
 4467W        W 4467   5.501   7.948   0.848 -0.1841 -0.1401 -0.2891
 4468W        W 4468   5.329   7.058   1.411  0.0089  0.1201 -0.2935
 4469W        W 4469   8.005   0.973   8.082  0.0708  0.0241 -0.1133
 4470W        W 4470   4.402   1.003   4.391 -0.0336 -0.2056  0.0938
 4471W        W 4471   3.543   6.074   7.294 -0.2191  0.0372  0.0580
 4472W        W 4472   1.693   0.242   1.052 -0.3543 -0.3460  0.5200
 4473W        W 4473   6.007   6.509   7.476  0.2235 -0.0542 -0.1018
 4474W        W 4474   4.905   8.203   1.042 -0.1741  0.2593 -0.0206
 4475W        W 4475   9.993   2.849   0.747  0.0340  0.2895 -0.0787
 4476W        W 4476   1.675   8.067   6.753 -0.2334  0.1819  0.1362
 4477W        W 4477   2.030   2.430   2.855 -0.0173  0.2042 -0.0306
 4478W        W 4478   0.954   4.686   4.063 -0.1576  0.1601  0.1126
 4479W        W 4479  10.278   9.673   8.736  0.0804  0.0060 -0.0721
 4480W        W 4480   7.238   6.709   2.577 -0.1557  0.1372 -0.1003
 4481W        W 4481   8.125   7.575   6.984 -0.0191  0.2251 -0.0434
 4482W        W 4482   1.502  10.142   3.955  0.1307 -0.1038  0.1317
 4483W        W 4483   5.311   6.343  10.081 -0.0061  0.2868  0.2601
 4484W        W 4484   3.159   2.956   3.820 -0.1301 -0.0516  0.2765
 4485W        W 4485   6.006   2.594   9.798  0.1117 -0.0267  0.1650
 4486W        W 4486   3.104   8.837   9.944  0.1779 -0.2369 -0.1780
 4487W        W 4487   0.474   3.477   9.239 -0.1402  0.2817  0.1849
 4488W        W 4488   3.282   6.165   3.864  0.0321  0.2197 -0.0552
 4489W        W 4489   4.682   7.978   0.587 -0.0267 -0.2729 -0.0552
 4490W        W 4490   0.388   0.472   9.738 -0.0148 -0.1032  0.1305
 4491W        W 4491   0.098   1.983   9.592  0.0806 -0.2157 -0.2730
 4492W        W 4492   6.234   5.417   8.693  0.4403 -0.0487  0.1629
 4493W        W 4493   2.440   4.880   3.254  0.7106  0.0738 -0.0830
 4494W        W 4494   4.200   4.118   6.363 -0.2873 -0.0822 -0.0202
 4495W        W 4495   7.757   7.812   7.207  0.1409  0.2301  0.1962
 4496W        W 4496   6.549   1.041   4.913  0.1234  0.3848 -0.0802
 4497W        W 4497   3.505   9.299   8.656 -0.1569  0.3313 -0.0835
 4498W        W 4498   7.175   3.780   8.077  0.0300  0.0025  0.1318
 4499W        W 4499   8.188   0.482   3.799 -0.4923  0.2797 -0.1093
 4500W        W 4500   2.649   3.229   1.486  0.1702  0.0003  0.0968
 4501W        W 4501   7.779   6.156   7.588 -0.3593  0.4825 -0.0761
 4502W        W 4502   7.952   4.722   7.281 -0.1681  0.2212 -0.2180
 4503W        W 4503   6.338   1.501   7.993 -0.1407  0.0388  0.0244
 4504W        W 4504   4.007   9.339   6.033 -0.2632 -0.1359 -0.1239
 4505W        W 4505   1.721   6.737   7.776 -0.2599 -0.0698  0.1002
 4506W        W 4506   9.680   6.062   2.862 -0.0611  0.0751 -0.1370
 4507W        W 4507   6.207   5.660   6.579 -0.0888  0.3454  0.3889
 4508W        W 4508  10.207   1.488   9.337  0.1244  0.2444  0.0967
 4509W        W 4509   3.014   8.225   9.874 -0.0041 -0.0859 -0.2400
 4510W        W 4510   0.132   7.476   5.616  0.6042 -0.0753  0.1679
 4511W        W 4511   3.529   7.131   0.032 -0.0151 -0.2442  0.0968
 4512W        W 4512   3.187   5.457   2.690 -0.0512  0.0534 -0.1017
 4513W        W 4513   9.666   0.635   0.044  0.2677 -0.0000  0.1361
 4514W        W 4514   9.050   1.711   6.500 -0.1017  0.2000  0.2732
 4515W        W 4515   0.079   3.190   9.280  0.0636  0.0641  0.3614
 4516W        W 4516   7.974   9.397   8.408 -0.3130 -0.0894  0.1027
 4517W        W 4517   5.271   1.728   8.882  0.2097 -0.0926 -0.0810
 4518W        W 4518   0.558   4.282   7.117  0.1996  0.1018 -0.1423
 4519W        W 4519   8.422   7.088   2.368  0.1370 -0.1559 -0.4360
 4520W        W 4520   5.665   9.079   5.078 -0.1411  0.0076  0.1321
 4521W        W 4521   3.694   5.831   9.267  0.1407  0.0611 -0.1867
 4522W        W 4522   7.622   4.726   3.742  0.2994 -0.0496  0.2285
 4523W        W 4523   6.910   5.675   7.479  0.1203  0.1913 -0.0726
 4524W        W 4524   7.537   5.943   0.831  0.1691  0.1636 -0.1540
 4525W        W 4525   5.727   9.725   6.104  0.4814  0.1002 -0.1952
 4526W        W 4526   0.723   0.314   7.341  0.1071  0.2972 -0.1905
 4527W        W 4527   0.983   5.525   6.356  0.3070  0.0509  0.4298
 4528W        W 4528   7.366   6.078   3.717  0.0394  0.2871 -0.1226
 4529W        W 4529   1.291   1.056   3.812 -0.1470  0.0399  0.0502
 4530W        W 4530   2.763   1.627   4.597  0.2129 -0.1607 -0.3344
 4531W        W 4531   2.604   0.840   1.824  0.0704  0.2265 -0.1029
 4532W        W 4532   6.572  10.314   6.141 -0.1137 -0.0456 -0.3333
 4533W        W 4533   5.584   8.503   2.121  0.1185  0.2930 -0.0350
 4534W        W 4534   2.798   0.662   4.351 -0.1027  0.2949 -0.1122
 4535W        W 4535   7.568   0.454   4.684  0.1144  0.3014  0.0218
 4536W        W 4536   8.494   9.926   3.763  0.4338  0.1741  0.2911
 4537W        W 4537   5.250   8.698   8.402 -0.0021  0.1674  0.0068
 4538W        W 4538   1.116   9.905   1.728  0.1571 -0.0146 -0.0187
 4539W        W 4539   6.203   1.447   6.146 -0.0229  0.3226 -0.0646
 4540W        W 4540   9.585   2.580   0.858 -0.1310  0.1943  0.0515
 4541W        W 4541   9.224   2.742   1.680  0.0380 -0.2327 -0.0957
 4542W        W 4542   2.526   7.335   7.774  0.1437 -0.3001 -0.0028
 4543W        W 4543   9.334   3.531   0.975 -0.2671 -0.1804 -0.1827
 4544W        W 4544   3.110   8.490   3.604 -0.0719  0.0796  0.0672
 4545W        W 4545   0.634   6.227   3.684 -0.2350  0.0205  0.1098
 4546W        W 4546   2.371   6.353   7.500  0.3215 -0.1895 -0.1690
 4547W        W 4547   0.825   9.923   6.392 -0.1064  0.1240  0.1320
 4548W        W 4548   6.732   4.374   5.155 -0.2066  0.2143  0.0558
 4549W        W 4549   5.657   9.136   8.359  0.1583 -0.0004  0.1715
 4550W        W 4550   7.166   1.335   2.623 -0.1317 -0.1062  0.3070
 4551W        W 4551   8.138   3.887   1.393 -0.3173  0.2632  0.1940
 4552W        W 4552   9.531   8.880   4.777 -0.1359  0.1969  0.3503
 4553W        W 4553   4.157   5.900   0.371 -0.0065  0.0213  0.0598
 4554W        W 4554   3.058   9.372   8.960  0.2757  0.1079 -0.2621
 4555W        W 4555   9.652   9.455   9.686  0.2240  0.1958  0.0405
 4556W        W 4556   3.298   4.215   2.900 -0.2954  0.3362  0.1482
 4557W        W 4557   9.886   0.334   7.449  0.0108 -0.2303  0.1318
 4558W        W 4558   9.942   3.106   4.132 -0.1406 -0.1395  0.0952
 4559W        W 4559   1.442   9.348   0.221 -0.1375  0.1689 -0.0798
 4560W        W 4560   6.922   7.728   8.363  0.0607 -0.3540 -0.2410
 4561W        W 4561   9.110   4.935   7.560 -0.1506  0.1594 -0.0016
 4562W        W 4562   4.403   3.054   6.425 -0.2585 -0.1535 -0.1442
 4563W        W 4563   6.986   5.711   6.580  0.0729  0.2205 -0.2162
 4564W        W 4564   1.497   0.342   3.668  0.1696  0.0198 -0.0148
 4565W        W 4565   0.348   2.679   5.766 -0.0003  0.0210  0.2097
 4566W        W 4566   6.917   1.336   0.029  0.0776  0.0426 -0.3790
 4567W        W 4567   2.810   6.062   9.562  0.1683  0.1726  0.1501
 4568W        W 4568   6.229   5.862   3.552 -0.3450 -0.0905  0.1860
 4569W        W 4569   3.098   6.906   7.253  0.0950 -0.0362  0.2385
 4570W        W 4570   2.291   7.521   2.206  0.0653  0.3643 -0.0585
 4571W        W 4571   8.881   0.877   8.968 -0.2285 -0.0840  0.1368
 4572W        W 4572   0.911   4.774   6.556 -0.0497  0.0778 -0.2796
 4573W        W 4573   8.017   0.134   3.006  0.0315  0.0793  0.0183
 4574W        W 4574   4.474   7.419   8.637 -0.0926 -0.3299  0.0832
 4575W        W 4575   7.508   7.535   2.531 -0.0887  0.0780 -0.1442
 4576W        W 4576   1.032   9.316   6.511 -0.0582  0.2363  0.0425
 4577W        W 4577   1.829   8.219   4.157  0.1134 -0.0183  0.0570
 4578W        W 4578   9.615   7.142   4.829 -0.1217 -0.0282  0.2500
 4579W        W 4579   4.545   9.290   9.137 -0.2167  0.4139 -0.3137
 4580W        W 4580   6.666   6.798   3.738  0.0258  0.0174  0.1784
 4581W        W 4581   2.172   2.037   7.677 -0.1145 -0.0633 -0.1391
 4582W        W 4582   1.077   6.277   0.244 -0.1725 -0.2281 -0.2087
 4583W        W 4583   8.493   1.501   1.484  0.0145  0.0162  0.0608
 4584W        W 4584   0.437   0.628   2.893 -0.1749  0.0517 -0.1735
 4585W        W 4585   5.313   2.453   4.565  0.3315  0.1569 -0.3068
 4586W        W 4586   8.960   3.499   0.527 -0.1499 -0.1222 -0.2608
 4587W        W 4587   1.454   6.481   2.297 -0.0251 -0.3260 -0.0098
 4588W        W 4588   8.749   2.579   2.667 -0.0152 -0.2434  0.1597
 4589W        W 4589   2.192   0.736   2.789 -0.0018  0.0770  0.0123
 4590W        W 4590   6.075   1.918   8.492 -0.1085  0.1139 -0.1294
 4591W        W 4591   5.588   2.278   5.630 -0.3699 -0.3195 -0.2202
 4592W        W 4592   1.991   4.315   0.372 -0.0328 -0.1497  0.1012
 4593W        W 4593   5.125  10.201   2.489  0.0282  0.1839 -0.0503
 4594W        W 4594   6.617  10.242   1.090  0.0281 -0.1861  0.0858
 4595W        W 4595   6.498  10.114   9.798  0.1980  0.1402 -0.0556
 4596W        W 4596   9.455   6.028  10.039 -0.0808 -0.2869 -0.1292
 4597W        W 4597   5.594   6.739   0.543  0.1498  0.2978 -0.3141
 4598W        W 4598   4.839   5.337  10.331 -0.1470 -0.0418 -0.2134
 4599W        W 4599   8.477   0.229   7.869 -0.2495 -0.0430  0.1772
 4600W        W 4600   1.259   8.416   6.754 -0.1063 -0.2595  0.1847
 4601W        W 4601   3.216   0.374  10.168 -0.1435  0.2068  0.1987
 4602W        W 4602   0.834   6.412   5.525  0.1453  0.0126 -0.1950
 4603W        W 4603   7.088   0.716   8.931 -0.0436 -0.2244 -0.0934
 4604W        W 4604   7.200   8.253   8.629 -0.2357 -0.1820  0.2574
 4605W        W 4605   3.128   8.147   1.298 -0.2372 -0.0708 -0.0117
 4606W        W 4606   9.176   0.197   7.999 -0.3858  0.3387 -0.3908
 4607W        W 4607   7.011   2.040   4.867 -0.6009  0.2005 -0.0711
 4608W        W 4608   4.912   6.533   2.648  0.1087  0.1268 -0.0562
 4609W        W 4609   0.001   9.967   3.518  0.1333 -0.0052  0.0195
 4610W        W 4610   4.157   9.204   2.946 -0.4763 -0.1483  0.0502
 4611W        W 4611   3.019   0.160   6.023 -0.0511  0.0471  0.1692
 4612W        W 4612   5.148   0.758   4.973  0.0405  0.0879  0.3559
 4613W        W 4613   5.691   9.952   5.450  0.0224  0.3518 -0.0461
 4614W        W 4614   4.909   2.352   4.995  0.1440  0.0659 -0.1506
 4615W        W 4615   9.202   5.992   4.015 -0.1307  0.1399 -0.3050
 4616W        W 4616   4.176   3.647   0.236  0.4338 -0.1770  0.1845
 4617W        W 4617   3.073   8.129   4.040 -0.0770  0.0886 -0.4513
 4618W        W 4618   5.714   8.627   0.380 -0.1960 -0.0181  0.3689
 4619W        W 4619   8.850   3.528   1.023 -0.0371  0.0037  0.0994
 4620W        W 4620   2.939   1.544   0.724 -0.1064  0.1019 -0.0360
 4621W        W 4621   4.896   4.701   0.918 -0.4474  0.1406 -0.0285
 4622W        W 4622   5.028   0.786   9.873  0.2528 -0.2139  0.4444
 4623W        W 4623   7.640   5.693   6.847 -0.0164  0.1719 -0.0149
 4624W        W 4624   2.782   0.551   6.150 -0.2614  0.1328 -0.1894
 4625W        W 4625   3.471   4.606   4.279 -0.1130 -0.3201  0.0772
 4626W        W 4626   4.090   5.196   2.607  0.1014 -0.1738 -0.1191
 4627W        W 4627   4.028   1.295   1.987 -0.1973  0.1000 -0.1072
 4628W        W 4628   1.293   7.623   0.451 -0.1612 -0.2269 -0.0575
 4629W        W 4629   9.233   9.379   6.608 -0.2240 -0.1625  0.1420
 4630W        W 4630   0.081   0.515   1.925  0.0660 -0.0856  0.1361
 4631W        W 4631   2.586   9.108   6.808 -0.0489 -0.1868  0.1752
 4632W        W 4632   1.924   0.665   8.654  0.0410  0.1576  0.1014
 4633W        W 4633   3.246   4.932   9.722 -0.1829 -0.0542  0.1151
 4634W        W 4634   7.574   6.784   1.544 -0.3306  0.3266  0.0449
 4635W        W 4635   2.414   6.170   6.627 -0.1852 -0.2152 -0.1019
 4636W        W 4636   0.701   2.443   7.864 -0.1047  0.0500  0.0914
 4637W        W 4637   4.542   0.571   7.697 -0.0848 -0.2975 -0.0483
 4638W        W 4638   5.378   3.437   9.141  0.0478 -0.2970 -0.1160
 4639W        W 4639   2.245   5.767   3.073 -0.1196 -0.4620 -0.1973
 4640W        W 4640   7.637   1.774   4.333  0.0571 -0.0328  0.2402
 4641W        W 4641   9.430   4.205   3.550  0.0371  0.2847  0.1393
 4642W        W 4642   0.561   1.718   3.551 -0.0082 -0.1794  0.4605
 4643W        W 4643   8.953   8.926   1.330 -0.2747 -0.3734 -0.1988
 4644W        W 4644   3.041   8.622   9.368 -0.0002 -0.1257  0.1196
 4645W        W 4645   6.995   1.967   1.185  0.0135 -0.1133 -0.2351
 4646W        W 4646   0.217   8.384   7.606 -0.0841  0.0872 -0.3398
 4647W        W 4647   2.292   3.245   9.592  0.0273  0.1067  0.3037
 4648W        W 4648   9.040   6.278   2.531 -0.0164 -0.2891 -0.0266
 4649W        W 4649  10.091   9.066   6.207  0.2540 -0.2578 -0.0166
 4650W        W 4650   9.293   0.968   5.125  0.1055 -0.2544 -0.2332
 4651W        W 4651   8.515   4.303   2.648  0.0254 -0.1158  0.1264
 4652W        W 4652   5.206   3.851   2.443  0.1675  0.0903  0.1004
 4653W        W 4653   3.480   6.437   0.772 -0.1040 -0.0652  0.2124
 4654W        W 4654   8.499   8.269   6.922 -0.6010 -0.3606  0.1305
 4655W        W 4655   7.618   4.755   2.417 -0.0812  0.3896 -0.0565
 4656W        W 4656   9.206   9.225   0.577  0.2783 -0.1277  0.0428
 4657W        W 4657   4.608   0.967   3.778  0.0196  0.1415  0.4368
 4658W        W 4658   5.262   2.936   7.970  0.1022  0.2363 -0.1714
 4659W        W 4659   4.509   1.039   5.735  0.0901  0.2662  0.0020
 4660W        W 4660   2.145  10.293   5.910 -0.0933  0.2270  0.0122
 4661W        W 4661   8.749   1.157   7.626  0.1251 -0.0958 -0.0625
 4662W        W 4662   6.822   8.042   4.208 -0.0491 -0.0474 -0.0231
 4663W        W 4663   7.889   5.333   8.413 -0.1372  0.1906 -0.1251
 4664W        W 4664   9.392   0.177   4.532  0.0010  0.0852  0.0532
 4665W        W 4665   1.847   4.609   7.680 -0.0724 -0.0781  0.2353
 4666W        W 4666   4.138   8.280   3.743 -0.1808  0.3110 -0.0358
 4667W        W 4667   9.384   5.811   4.486 -0.1716  0.2474 -0.0354
 4668W        W 4668   1.574   1.404   7.959  0.0576 -0.1269 -0.0384
 4669W        W 4669   5.980   3.310   8.676 -0.0338 -0.1606  0.1277
 4670W        W 4670   2.942   4.658   3.503  0.1415 -0.2995 -0.2397
 4671W        W 4671   0.447   0.074   8.962  0.2110 -0.4241  0.2331
 4672W        W 4672   6.932   0.516   7.629 -0.1228 -0.0760 -0.0045
 4673W        W 4673   1.390   4.573   6.569  0.2172  0.0300 -0.3539
 4674W        W 4674   2.254   4.698   3.902  0.2252 -0.1511  0.0393
 4675W        W 4675   3.112   4.393   6.072 -0.2971  0.1184  0.1960
 4676W        W 4676   1.862   9.320   6.132  0.1914 -0.0503  0.1404
 4677W        W 4677   6.861   0.792   1.466 -0.1275  0.1033  0.1984
 4678W        W 4678   0.794   6.727   3.383  0.5237  0.1882 -0.0368
 4679W        W 4679   6.157   2.841   4.986 -0.0547 -0.2100  0.0161
 4680W        W 4680   3.247   8.280   4.519  0.1710  0.1969 -0.1328
 4681W        W 4681   3.088   0.493   2.959  0.0201 -0.0898 -0.1538
 4682W        W 4682   1.621   6.531   3.747 -0.1130 -0.0007  0.1116
 4683W        W 4683   6.259   3.219   1.692 -0.1106  0.0112 -0.1574
 4684W        W 4684   2.151   2.999   8.336 -0.0977  0.2007 -0.0122
 4685W        W 4685   0.257   0.426   2.447 -0.0826  0.0298  0.2392
 4686W        W 4686   9.054   8.212   1.720  0.1344  0.1718 -0.0800
 4687W        W 4687   9.649   8.648   5.315 -0.0424  0.1374  0.3284
 4688W        W 4688   4.508   8.539   3.020 -0.0225  0.0162  0.1032
 4689W        W 4689   7.587   9.096   8.389 -0.1472  0.0499 -0.1880
 4690W        W 4690   1.085   1.385   4.340  0.2902 -0.0600  0.2121
 4691W        W 4691   2.093   5.840   6.785  0.0358 -0.0812 -0.1432
 4692W        W 4692   7.409   1.600   5.282  0.0446  0.1385 -0.0022
 4693W        W 4693   4.659   9.339   2.986 -0.1173 -0.2608  0.2803
 4694W        W 4694   0.722   8.682   1.337 -0.0346 -0.0220 -0.1302
 4695W        W 4695   2.874   6.356   6.622  0.2369 -0.1720 -0.1395
 4696W        W 4696   5.875   4.389   4.521  0.1938 -0.0980 -0.1516
 4697W        W 4697   2.821  10.099   9.605 -0.1673 -0.0149  0.1840
 4698W        W 4698   4.984   1.443   0.765 -0.0329 -0.1493  0.0746
 4699W        W 4699   5.795   6.915   1.677  0.1354  0.3281 -0.1213
 4700W        W 4700   4.307   0.893   9.783 -0.0206 -0.0368  0.0884
 4701W        W 4701   0.241   6.826   8.715  0.4093  0.1596  0.2239
 4702W        W 4702   3.790   8.645   6.893  0.2192 -0.1085  0.2129
 4703W        W 4703   8.243   2.101   6.092  0.0479  0.2106  0.2050
 4704W        W 4704   1.943   2.404   9.072  0.2645  0.1308 -0.2449
 4705W        W 4705   3.987   3.423   5.048  0.1724 -0.1235  0.0894
 4706W        W 4706   7.888   8.129   1.813 -0.1152  0.0400  0.1566
 4707W        W 4707   5.139   6.529   6.151  0.0039  0.3020  0.2261
 4708W        W 4708   4.916   9.712   6.118  0.1011  0.0144 -0.1330
 4709W        W 4709   8.374   8.301   8.086  0.0344  0.1307 -0.0472
 4710W        W 4710   3.925   2.085   3.710  0.1350 -0.3180  0.0621
 4711W        W 4711   5.768   5.096   6.134  0.1475 -0.3396  0.2610
 4712W        W 4712   2.300   8.094   2.791 -0.0199  0.2126  0.1214
 4713W        W 4713   0.843   3.289  10.299  0.2041  0.0989  0.5547
 4714W        W 4714   7.127   0.406   4.247 -0.1074  0.0032  0.0019
 4715W        W 4715   6.518   7.188   8.897 -0.0728 -0.0226 -0.0332
 4716W        W 4716   4.231   8.784   8.506  0.2527  0.0101  0.1009
 4717W        W 4717   6.163   6.550   8.421 -0.0744  0.2089  0.0562
 4718W        W 4718   4.147   0.514  10.112 -0.1127 -0.3768 -0.1891
 4719W        W 4719   1.694   4.850   3.826  0.0385  0.3907 -0.2646
 4720W        W 4720   9.183   9.073   9.137 -0.2337 -0.2334  0.0368
 4721W        W 4721   5.028   8.526   4.907  0.2208  0.1446 -0.1277
 4722W        W 4722   2.158   8.284   0.429 -0.0738  0.0170 -0.1982
 4723W        W 4723   0.897   0.343   3.493  0.0532  0.1669 -0.2233
 4724W        W 4724   7.421   5.225   3.696 -0.2277 -0.1685 -0.0931
 4725W        W 4725   6.854   3.924   4.696  0.3583  0.2474  0.0203
 4726W        W 4726  10.336   1.713   8.063  0.0671 -0.4553  0.1498
 4727W        W 4727   1.305   9.282   3.750  0.2794  0.2705  0.1418
 4728W        W 4728   2.188   5.745   3.749  0.2024 -0.3300  0.0757
 4729W        W 4729   9.756   8.234   2.634 -0.1939  0.1102 -0.2234
 4730W        W 4730   1.492   1.744   6.600  0.3909 -0.1174 -0.1999
 4731W        W 4731   1.815   7.863   2.206 -0.0924  0.1512 -0.0173
 4732W        W 4732   9.116   1.341   4.375  0.0615  0.0908 -0.1813
 4733W        W 4733   2.719   8.650   8.668 -0.1122  0.0586  0.4172
 4734W        W 4734   5.440   8.696   9.962  0.2841  0.0000 -0.2081
 4735W        W 4735   7.840   8.125   3.401 -0.0640  0.0006 -0.1296
 4736W        W 4736   8.798   7.466   2.383 -0.2710  0.2730  0.0493
 4737W        W 4737   0.158   8.183   8.147 -0.1225 -0.3092 -0.2381
 4738W        W 4738   5.316   1.687   5.051 -0.4308  0.0611  0.0436
 4739W        W 4739   4.704   1.173   9.992 -0.0173 -0.2012 -0.4464
 4740W        W 4740   2.101   6.176   5.153 -0.0068  0.0145  0.1494
 4741W        W 4741   3.287   0.906   2.472 -0.2336 -0.1793  0.0200
 4742W        W 4742   5.767   7.453   2.423 -0.1569  0.0055 -0.1112
 4743W        W 4743   5.268   4.314   2.294 -0.1397 -0.1372 -0.1789
 4744W        W 4744   2.435   6.573   1.272 -0.0145 -0.0232  0.3612
 4745W        W 4745   3.102   4.717   8.161 -0.0454 -0.1460 -0.1246
 4746W        W 4746   0.853   0.069   6.185 -0.2127 -0.0032  0.0505
 4747W        W 4747   8.773   3.453   2.848 -0.2899  0.0754  0.0284
 4748W        W 4748   1.927   4.422   2.087 -0.3596  0.0562 -0.2438
 4749W        W 4749   4.992   2.749   2.034 -0.0091  0.2136  0.0952
 4750W        W 4750   8.210   6.467   7.616  0.1823 -0.2575  0.2549
 4751W        W 4751   5.700   0.865   8.157  0.1610 -0.1675 -0.0231
 4752W        W 4752   0.189   7.870   6.513  0.3249 -0.2577  0.0329
 4753W        W 4753   4.413   1.413   0.843  0.0902  0.0883  0.0891
 4754W        W 4754   3.634   1.917   1.198 -0.0248  0.3315  0.0975
 4755W        W 4755   1.589   8.062   5.670 -0.1683 -0.0668 -0.2198
 4756W        W 4756   7.083   6.608   0.745 -0.2498  0.0711  0.0540
 4757W        W 4757   1.466   7.461   8.878  0.1083 -0.0097 -0.1906
 4758W        W 4758  10.015   5.195   2.797 -0.4428  0.0161 -0.1410
 4759W        W 4759   5.010   8.588   2.240 -0.0670 -0.1052 -0.0175
 4760W        W 4760   4.334   1.419   4.640  0.0070 -0.2548 -0.1296
 4761W        W 4761   8.833   1.252   5.993 -0.1704  0.1716 -0.1481
 4762W        W 4762   0.775   5.154   5.624 -0.1519  0.0142  0.0195
 4763W        W 4763   1.225   5.570   9.087  0.2433 -0.3541 -0.1617
 4764W        W 4764   9.016   1.923   5.475  0.4430  0.0163 -0.1309
 4765W        W 4765   5.309   3.908   5.912  0.1305  0.2602 -0.1643
 4766W        W 4766   6.144   9.579   2.055  0.0395 -0.1190  0.1636
 4767W        W 4767   3.623   5.324   9.157  0.0301  0.1494  0.4249
 4768W        W 4768   4.635   1.882   2.097  0.1531  0.1716  0.3602
 4769W        W 4769   0.394   7.335   8.325  0.1031 -0.0896 -0.1026
 4770W        W 4770   3.852   2.199   9.164 -0.3612 -0.2901 -0.0420
 4771W        W 4771   5.916   9.056   4.679  0.1380  0.1127  0.2098
 4772W        W 4772   2.942   5.057   0.582 -0.0405 -0.0983 -0.0960
 4773W        W 4773   9.504  10.053   0.533  0.1498 -0.3594 -0.1142
 4774W        W 4774   7.877   2.779   5.703  0.0107  0.5297 -0.0777
 4775W        W 4775   9.661   7.511   0.525 -0.1705  0.1844  0.1620
 4776W        W 4776   9.980   9.558   0.615 -0.1948 -0.0325 -0.2180
 4777W        W 4777   7.604   4.748   9.595  0.0145  0.1146 -0.2775
 4778W        W 4778   3.526   8.008   3.016  0.3285 -0.1094  0.0086
 4779W        W 4779   4.715   5.855   1.998 -0.2959  0.2791 -0.0076
 4780W        W 4780   9.632   5.129   8.355  0.1682 -0.0418 -0.0311
 4781W        W 4781   8.570   3.498   6.079 -0.1449  0.2850  0.1188
 4782W        W 4782   5.313   9.947   3.979 -0.2927 -0.1211 -0.2022
 4783W        W 4783   7.572   3.874   3.187  0.0900 -0.1359  0.1645
 4784W        W 4784  10.323   8.206   4.438  0.0017 -0.1760  0.0466
 4785W        W 4785   8.224   9.463   7.355  0.1543 -0.0713  0.2386
 4786W        W 4786   1.502   2.842   7.738  0.0039 -0.2979  0.1030
 4787W        W 4787   4.308   3.645   4.724  0.1090 -0.0514 -0.1676
 4788W        W 4788   7.525   8.078   8.971  0.1622  0.0526 -0.2796
 4789W        W 4789   2.297   5.855   9.908 -0.1142  0.1183 -0.0405
 4790W        W 4790  10.255   2.997   5.956  0.3333  0.1149 -0.0785
 4791W        W 4791   9.504   6.198   4.761 -0.4896 -0.0490 -0.0495
 4792W        W 4792   5.356   8.409   1.022  0.0793 -0.2863 -0.2371
 4793W        W 4793   0.294   6.362   4.046  0.2376 -0.0485 -0.1027
 4794W        W 4794   7.222   5.706   7.849 -0.2938  0.0377 -0.2594
 4795W        W 4795   1.922   4.066   0.910  0.1411 -0.0031 -0.2473
 4796W        W 4796   4.281   9.761   3.063 -0.0058 -0.0649 -0.0321
 4797W        W 4797   0.419   8.644   2.874 -0.0578 -0.2100  0.0327
 4798W        W 4798   1.749   8.449   8.440 -0.1703  0.2968  0.3754
 4799W        W 4799   3.617   5.273   3.497  0.0221 -0.1531  0.0301
 4800W        W 4800   1.807   7.916   0.537  0.1179  0.0561  0.1158
 4801W        W 4801   7.401   0.443   6.253  0.0586 -0.0201  0.3397
 4802W        W 4802   2.612   8.222   9.528 -0.0790 -0.1657 -0.1215
 4803W        W 4803   4.818   6.168   0.791  0.1461  0.0548  0.1367
 4804W        W 4804   1.851   8.749   3.563  0.4079  0.0484  0.2771
 4805W        W 4805   1.434   7.661   2.002 -0.0393  0.0535 -0.0662
 4806W        W 4806   2.239   8.753   5.700  0.3171  0.0325  0.1171
 4807W        W 4807   0.179   2.572   6.282  0.1030 -0.1579 -0.0710
 4808W        W 4808   5.603   3.393  10.062  0.2271  0.2988 -0.1637
 4809W        W 4809   6.550   6.098   5.605 -0.0702 -0.1919  0.1531
 4810W        W 4810   9.512   9.896   2.512  0.1077 -0.0538  0.0176
 4811W        W 4811   2.376   8.679   6.993  0.1256 -0.1826  0.3915
 4812W        W 4812  10.330   5.624   3.903  0.0026  0.0758  0.0438
 4813W        W 4813   4.954   0.093   4.216 -0.1112 -0.1546  0.2458
 4814W        W 4814   6.573   9.453   9.499  0.1068  0.0656  0.1561
 4815W        W 4815   5.509   9.066   6.778  0.0787 -0.1524  0.0225
 4816W        W 4816   1.109   1.968   0.454 -0.2099  0.1853  0.0749
 4817W        W 4817   6.021   7.562   8.924  0.2248 -0.0442 -0.2658
 4818W        W 4818   6.480   1.726   5.724 -0.0655 -0.3153 -0.1138
 4819W        W 4819   8.494   3.728   4.150  0.1183  0.1250 -0.0695
 4820W        W 4820   9.669   0.298   8.970  0.0072 -0.0145 -0.2583
 4821W        W 4821   1.403   7.885   2.924  0.2391  0.0639 -0.0029
 4822W        W 4822   7.411   7.965   5.074 -0.0830 -0.2417  0.3086
 4823W        W 4823   7.836   7.613   3.493  0.0583 -0.0647 -0.1334
 4824W        W 4824   6.378   3.756   4.864  0.2289  0.3089 -0.0202
 4825W        W 4825   3.557   6.703   1.205 -0.0182 -0.3190  0.0265
 4826W        W 4826   4.868   9.871   4.150 -0.0304  0.2680 -0.0032
 4827W        W 4827   6.497   5.166   2.131 -0.2021 -0.1798  0.2260
 4828W        W 4828   7.011   8.412   2.346  0.0718  0.0058  0.0729
 4829W        W 4829   0.622   8.093   5.943 -0.1539 -0.0798 -0.2134
 4830W        W 4830   1.705   4.982   5.236  0.3934 -0.2433 -0.1336
 4831W        W 4831   6.467  10.182   6.636  0.0894 -0.3306  0.1893
 4832W        W 4832   9.060   8.317   3.165  0.1122  0.1258  0.1874
 4833W        W 4833   3.777   4.193   5.619  0.2047  0.2711  0.1886
 4834W        W 4834   2.689   3.108   0.118  0.0222 -0.1707 -0.0936
 4835W        W 4835   2.227   7.843   9.608 -0.0751 -0.0137 -0.1968
 4836W        W 4836   3.041   0.617   1.619 -0.0787 -0.2141 -0.1710
 4837W        W 4837   1.149   7.667   1.141  0.0993  0.2097 -0.2176
 4838W        W 4838   8.466   1.907   3.971  0.0519  0.0160  0.1379
 4839W        W 4839   9.489   0.383   9.521 -0.0493  0.3056 -0.0749
 4840W        W 4840  10.291   5.863   4.945 -0.0261  0.0289  0.3568
 4841W        W 4841   9.918   5.482   5.753  0.0029  0.0233  0.0073
 4842W        W 4842   2.448   9.222   0.504  0.3505 -0.2235 -0.1110
 4843W        W 4843   8.407   4.455   1.341 -0.1126  0.3171 -0.2713
 4844W        W 4844   1.821   5.817   8.176  0.0064  0.0970 -0.1439
 4845W        W 4845   9.527   6.776   7.721  0.0494 -0.4074 -0.0870
 4846W        W 4846   0.203   7.019   9.212  0.3645 -0.1880 -0.1437
 4847W        W 4847   7.742   3.843   1.009  0.0431 -0.0222 -0.1695
 4848W        W 4848   4.192   6.674   6.058  0.1096 -0.0725  0.0054
 4849W        W 4849   9.527   3.433   4.141  0.0735 -0.2262  0.0149
 4850W        W 4850   1.845   1.463   8.853  0.3183 -0.1873 -0.0218
 4851W        W 4851   0.382   9.912   2.725  0.0462 -0.2739 -0.0634
 4852W        W 4852   1.706   9.592   3.530  0.0308  0.1126  0.0337
 4853W        W 4853   4.636   7.804   6.485 -0.0541  0.2123  0.3594
 4854W        W 4854   0.110   7.640   1.585  0.2143 -0.0407 -0.4905
 4855W        W 4855   1.446   8.519   5.469  0.2123  0.0807 -0.2958
 4856W        W 4856   2.294   8.324   8.168  0.3814 -0.1790 -0.0978
 4857W        W 4857  10.305   8.964   6.853  0.0834 -0.0461  0.1608
 4858W        W 4858   9.258   2.137   1.167 -0.1930  0.1324  0.3757
 4859W        W 4859   6.094   9.652   7.961 -0.0727  0.0118  0.0581
 4860W        W 4860   3.800   2.397   1.466  0.1046 -0.1497  0.1512
 4861W        W 4861   0.840   2.107   9.392 -0.0031 -0.3829 -0.1233
 4862W        W 4862   6.626   6.089   7.403 -0.0175  0.1855 -0.0217
 4863W        W 4863   5.610   2.737   5.297 -0.0363  0.1491 -0.3459
 4864W        W 4864   5.979   3.745   1.576  0.2080  0.0541  0.0295
 4865W        W 4865   5.442   7.624   0.400 -0.2912  0.1286 -0.1433
 4866W        W 4866  10.241   3.065   7.728  0.0378  0.1408 -0.0798
 4867W        W 4867   2.739   2.824   6.723  0.1906  0.1121  0.2154
 4868W        W 4868   0.962   4.702   9.454 -0.0852 -0.0400  0.1114
 4869W        W 4869  10.165   8.508   7.897  0.4078 -0.0117  0.2889
 4870W        W 4870   9.273   8.304   8.204  0.0771  0.2821  0.1798
 4871W        W 4871   0.372   7.697   0.736 -0.0310 -0.1069 -0.1065
 4872W        W 4872   7.999   6.719   7.213 -0.2291 -0.1545 -0.0491
 4873W        W 4873   5.622   1.419   3.682  0.1730 -0.0329 -0.0608
 4874W        W 4874   8.110   4.467   4.774 -0.1440  0.0107 -0.0255
 4875W        W 4875   6.384   7.707   8.214  0.0544  0.0708  0.0234
 4876W        W 4876   3.040   2.323   8.131  0.0272  0.1410 -0.1177
 4877W        W 4877   5.700   4.051   8.714 -0.2769 -0.1950 -0.3599
 4878W        W 4878   4.482   3.736   7.244 -0.1490  0.0690 -0.0579
 4879W        W 4879   9.386   6.402   8.166 -0.0784  0.2995  0.1284
 4880W        W 4880   1.236   2.730   1.458  0.1113 -0.2186  0.1530
 4881W        W 4881   6.480   1.505   8.451 -0.1247  0.2653 -0.0564
 4882W        W 4882   3.956   8.562   1.170 -0.1069 -0.1445  0.0955
 4883W        W 4883   0.345   9.321   1.933  0.0592 -0.0193  0.1769
 4884W        W 4884   0.805   2.668   9.451 -0.2298 -0.1850  0.0340
 4885W        W 4885   6.479   4.927   6.936  0.0709  0.0880 -0.0256
 4886W        W 4886   6.261   7.741   4.670 -0.2000 -0.0386  0.0670
 4887W        W 4887   2.778   0.141   1.048 -0.2286  0.3904 -0.2789
 4888W        W 4888   1.350   4.227   0.071  0.1483 -0.3128  0.0525
 4889W        W 4889   0.897   3.688   4.025 -0.3988  0.1600 -0.0217
 4890W        W 4890  10.130   4.418   8.561  0.0275 -0.0238 -0.0446
 4891W        W 4891   0.620   5.323   6.599  0.1693  0.1544  0.1454
 4892W        W 4892   9.652   5.518   7.873  0.1227 -0.1411  0.0175
 4893W        W 4893   2.202   2.328   8.161  0.0359  0.2595 -0.0830
 4894W        W 4894   2.431   4.363   3.497 -0.1015  0.0688  0.0323
 4895W        W 4895   0.073   5.106   4.414 -0.2199 -0.3903  0.1259
 4896W        W 4896   5.003   7.072   4.569  0.1366 -0.0253 -0.4333
 4897W        W 4897   0.982   7.359   9.710 -0.0470 -0.1314 -0.0064
 4898W        W 4898   8.573   6.330   6.123 -0.3079 -0.0276 -0.0501
 4899W        W 4899  10.190   4.278   3.123  0.2171 -0.0776  0.1134
 4900W        W 4900   8.331   7.597   3.293  0.0607  0.1496  0.2708
 4901W        W 4901   0.093  10.334   9.665  0.0612  0.2666  0.0663
 4902W        W 4902   9.333   7.458   3.105  0.1206 -0.2464 -0.0340
 4903W        W 4903   0.627   5.296   0.544  0.3862  0.1763  0.3715
 4904W        W 4904   6.036   0.615   7.949 -0.1593 -0.0787 -0.0462
 4905W        W 4905   1.074   1.272   2.947 -0.1780 -0.0299  0.2282
 4906W        W 4906   8.696   2.037   6.666  0.3005  0.0453 -0.0786
 4907W        W 4907   6.358   8.180   7.377 -0.0810  0.0337 -0.1137
 4908W        W 4908   6.313   0.814   7.300 -0.0615 -0.1102 -0.1753
 4909W        W 4909   9.959   2.843   0.076  0.0468 -0.5959 -0.1325
 4910W        W 4910   4.258   7.123   5.036  0.1112  0.1805 -0.0887
 4911W        W 4911   8.387   1.862   9.898  0.2080  0.1210 -0.2566
 4912W        W 4912  10.231   4.676   3.544  0.0423 -0.1018 -0.1169
 4913W        W 4913   0.610   1.831   5.523 -0.0684 -0.1225 -0.3276
 4914W        W 4914   4.201   8.421   9.370 -0.1170  0.0380 -0.0937
 4915W        W 4915   1.180   8.378   5.917  0.1183 -0.1272  0.1839
 4916W        W 4916   9.161   5.488   7.793  0.1058  0.0621  0.0772
 4917W        W 4917   6.192   6.726   3.540 -0.2061  0.2007 -0.1411
 4918W        W 4918   2.310   0.353   2.370 -0.0220  0.1016  0.1083
 4919W        W 4919   1.375   2.484   3.270 -0.1254  0.0959 -0.0436
 4920W        W 4920   9.728   1.082   1.093 -0.0329  0.0425 -0.1340
 4921W        W 4921   6.474   0.172   8.388 -0.0383 -0.4034  0.5177
 4922W        W 4922   8.687   8.632   4.083 -0.0407  0.0899 -0.0067
 4923W        W 4923   0.777   3.337   0.442 -0.1144  0.0971  0.2783
 4924W        W 4924   6.493   7.185   8.326  0.0833 -0.0054  0.1513
 4925W        W 4925   4.002   9.962   6.715  0.0076 -0.0118  0.0033
 4926W        W 4926   2.882   4.640   6.705  0.1885 -0.0802 -0.0484
 4927W        W 4927   5.129   8.961   4.029  0.0924 -0.0241 -0.2540
 4928W        W 4928   1.472   5.092   0.440 -0.1133  0.2038 -0.0129
 4929W        W 4929   8.624   9.221   9.205 -0.0899  0.0373 -0.1311
 4930W        W 4930   9.616  10.051   6.148  0.4471  0.0267 -0.2087
 4931W        W 4931   1.557   7.098   7.006 -0.3301  0.0729 -0.1650
 4932W        W 4932   5.988   4.593   6.610  0.1618  0.0854 -0.1239
 4933W        W 4933   1.532   5.443   5.429 -0.1522  0.0001  0.3859
 4934W        W 4934   1.047   0.472   2.118 -0.3112  0.3783 -0.0174
 4935W        W 4935   4.876   3.306   4.273  0.1678 -0.3261  0.0364
 4936W        W 4936   1.336   4.689   1.301  0.1110  0.0958 -0.0766
 4937W        W 4937   7.307   4.833   4.655  0.1425  0.0273  0.1617
 4938W        W 4938   8.284   6.386   5.312 -0.2006 -0.0614  0.3095
 4939W        W 4939  10.028   7.439   2.540 -0.2667 -0.0043 -0.2140
 4940W        W 4940   6.549   8.795   5.232 -0.1122 -0.1207  0.1432
 4941W        W 4941   2.673   5.511   2.545  0.0360 -0.0738 -0.1340
 4942W        W 4942   4.846   1.704   4.243 -0.1164 -0.2480 -0.0457
 4943W        W 4943   4.962   3.722   3.972 -0.1141  0.0225  0.2050
 4944W        W 4944   9.340   2.741   3.490  0.0392 -0.2960 -0.2495
 4945W        W 4945   2.409   5.272   2.934  0.1239 -0.3415 -0.2174
 4946W        W 4946   5.428   0.908   5.384  0.0427 -0.0417 -0.1967
 4947W        W 4947   9.387   3.278   7.961 -0.4958  0.0198  0.3654
 4948W        W 4948   0.859   1.146   0.135 -0.0611  0.1709 -0.0468
 4949W        W 4949   9.953   1.312   6.917  0.0652 -0.0240  0.3212
 4950W        W 4950   3.620   6.866   5.422  0.1974 -0.1868 -0.0044
 4951W        W 4951   3.943  10.061   2.524 -0.0425  0.1308  0.0565
 4952W        W 4952   8.946   6.732   8.899  0.4845 -0.1340 -0.1079
 4953W        W 4953   0.168   1.974   5.183 -0.1891  0.2471 -0.0528
 4954W        W 4954   5.956   5.231   4.864  0.0682  0.4101  0.0795
 4955W        W 4955   1.558   9.083   6.457 -0.3527 -0.0181 -0.3351
 4956W        W 4956   7.360   9.196   6.506  0.0716  0.0318 -0.3679
 4957W        W 4957   6.097   1.430   4.076  0.1695 -0.1342  0.0060
 4958W        W 4958   8.989   0.918   6.592  0.2139 -0.2639  0.1821
 4959W        W 4959   3.446   9.660   1.493 -0.0761  0.0035  0.3008
 4960W        W 4960   7.728   8.884   4.119  0.2762 -0.1560  0.1066
 4961W        W 4961   5.338   6.865   8.565 -0.1888 -0.3821 -0.0109
 4962W        W 4962   4.388   2.351   1.751  0.0312 -0.1535  0.1889
 4963W        W 4963   2.048   6.891   7.262  0.4911  0.0234 -0.0199
 4964W        W 4964   9.407   8.099   6.086  0.0340 -0.3597  0.3942
 4965W        W 4965   7.268   8.241   4.098 -0.1060  0.2013 -0.1437
 4966W        W 4966   6.735   9.845   0.781  0.0806 -0.1413 -0.1948
 4967W        W 4967   6.768   0.990   8.345  0.1018  0.0789  0.2528
 4968W        W 4968   5.282   8.245   2.564 -0.0342  0.0964 -0.1325
 4969W        W 4969   3.624   4.535   0.173  0.1153 -0.1246 -0.3329
 4970W        W 4970   7.498   9.517   8.136  0.2004 -0.1027 -0.1512
 4971W        W 4971   4.891  10.137   8.597 -0.1276 -0.0209  0.1535
 4972W        W 4972   3.762   3.686   4.725  0.2229 -0.1271  0.2889
 4973W        W 4973   8.947   4.455   0.287  0.2673  0.1744  0.5222
 4974W        W 4974   2.531   2.502   7.709  0.2574  0.0527 -0.0876
 4975W        W 4975   3.571   3.582   4.249 -0.1540 -0.1569 -0.1269
 4976W        W 4976   7.360   3.561   5.890 -0.0042 -0.1245  0.1220
 4977W        W 4977   1.367   6.408   7.377  0.1683 -0.1133 -0.4400
 4978W        W 4978   1.704   9.457   8.225  0.0652 -0.2467 -0.3106
 4979W        W 4979   5.759   8.637   4.259 -0.1397 -0.2248  0.1430
 4980W        W 4980   4.170   7.614   5.523  0.0178 -0.3056 -0.0920
 4981W        W 4981   7.479   3.378   1.078 -0.3000 -0.2323  0.1339
 4982W        W 4982   7.424   0.562   9.342 -0.2219  0.1578  0.1333
 4983W        W 4983   1.761   5.886   5.535  0.1343  0.0323 -0.3490
 4984W        W 4984   1.065   3.021   0.725  0.2739  0.1709 -0.0010
 4985W        W 4985   1.018   3.769   6.314  0.0811 -0.0230 -0.1620
 4986W        W 4986   5.538   3.677   2.708  0.0312 -0.3606 -0.2263
 4987W        W 4987   5.102   1.269   3.068 -0.0038  0.0101  0.1096
 4988W        W 4988   2.544   9.932   1.858  0.0730  0.0540 -0.2731
 4989W        W 4989   7.479   5.800   4.523  0.0371 -0.2442  0.0608
 4990W        W 4990   5.649   9.211   0.900 -0.0231  0.0932 -0.1916
 4991W        W 4991   1.907   5.701   9.541 -0.0078 -0.0200 -0.0863
 4992W        W 4992   7.597   3.723   6.872  0.3320  0.1965  0.0585
 4993W        W 4993   9.926   0.719   1.519  0.1594  0.2727 -0.3343
 4994W        W 4994   3.085   7.184   9.448  0.1125 -0.2131 -0.1270
 4995W        W 4995   4.445   4.970   0.173 -0.3178  0.0381 -0.1075
 4996W        W 4996   6.381   5.929   1.277 -0.1017 -0.1342  0.1358
 4997W        W 4997   8.755   5.033   9.336 -0.1662  0.0867  0.1575
 4998W        W 4998   2.641   3.738   5.591  0.0830 -0.2644  0.4940
 4999W        W 4999   7.516   4.640   0.455 -0.1904  0.1265 -0.1709
 5000W        W 5000   3.631   0.469   0.980 -0.3436  0.0649  0.2793
 5001W        W 5001   3.977   5.663   3.354  0.1702  0.0100 -0.0513
 5002W        W 5002   3.985   5.984   1.290  0.0440  0.0613 -0.1230
 5003W        W 5003   6.086   9.902   3.343  0.0471 -0.3143  0.1183
 5004W        W 5004   1.180   3.025   5.239 -0.4072 -0.2175 -0.1823
 5005W        W 5005   4.764   8.608   4.416  0.0367 -0.3417  0.2012
 5006W        W 5006   4.602   7.026   0.524  0.1052 -0.0848 -0.0133
 5007W        W 5007   9.277   5.049   6.825 -0.2126 -0.0193  0.0329
 5008W        W 5008   9.593   7.611   2.592  0.1042  0.0186  0.1394
 5009W        W 5009   7.788   0.062   3.744  0.0410 -0.2687  0.1295
 5010W        W 5010   8.203   0.738   7.098 -0.1570  0.1848  0.2176
 5011W        W 5011   7.283   1.481   9.196  0.1070 -0.1935  0.0588
 5012W        W 5012   2.065   6.662   0.047 -0.3579 -0.3573 -0.0953
 5013W        W 5013   9.559   0.272   1.390 -0.0916 -0.1507  0.2807
 5014W        W 5014   5.647   7.231   0.678 -0.0542 -0.1896  0.3458
 5015W        W 5015   5.898   9.835   4.809 -0.0629 -0.4867  0.3119
 5016W        W 5016   9.225   9.353   2.191  0.0688  0.2001 -0.2554
 5017W        W 5017   1.369   0.085   2.124  0.0976 -0.0461 -0.2280
 5018W        W 5018   6.209   2.901   0.438  0.1089 -0.1120 -0.0739
 5019W        W 5019   5.984   4.128   0.277 -0.2672  0.1103 -0.3196
 5020W        W 5020   4.017   7.717   4.983 -0.0377 -0.2079  0.0446
 5021W        W 5021   9.648   2.273   3.465 -0.1083  0.0120 -0.3428
 5022W        W 5022   6.342  10.096   7.656  0.2785 -0.1932  0.1275
 5023W        W 5023   7.679   5.419   5.799 -0.4308  0.1632  0.1382
 5024W        W 5024   7.887   4.331   1.160  0.0903  0.1530 -0.2922
 5025W        W 5025   8.235   7.876   3.666  0.0834 -0.0056  0.2685
 5026W        W 5026   1.663   7.042   8.683 -0.1644 -0.1809 -0.1028
 5027W        W 5027   1.863   5.877   3.358  0.0914 -0.2456  0.1874
 5028W        W 5028   2.255   0.023   3.282 -0.0838  0.4638 -0.1552
 5029W        W 5029   3.242   7.013   4.895 -0.1588  0.1736 -0.0821
 5030W        W 5030   2.864   6.330   6.111 -0.1789  0.0945 -0.5628
 5031W        W 5031   5.065   5.935   8.311  0.0240 -0.0125  0.3326
 5032W        W 5032   6.369   7.790   9.619  0.2841  0.0270 -0.0385
 5033W        W 5033   2.207   4.700   9.017 -0.0901 -0.1823  0.2128
 5034W        W 5034   1.612   5.169   2.394  0.2583  0.3272 -0.2388
 5035W        W 5035   4.962   9.746   7.769  0.2802 -0.2629 -0.1199
 5036W        W 5036   5.003   9.379   6.547 -0.2540  0.1259  0.0625
 5037W        W 5037   1.018   3.734   1.137  0.0793 -0.2539  0.1243
 5038W        W 5038   9.560   7.274   1.786 -0.2769 -0.0486 -0.1637
 5039W        W 5039   4.881  10.042   9.098 -0.0653 -0.0490 -0.2718
 5040W        W 5040  10.311   2.788   4.238  0.5630  0.0957  0.0680
 5041W        W 5041   6.593   6.686   8.109 -0.0258  0.0230  0.4379
 5042W        W 5042   8.689   6.390   3.925 -0.2003  0.1217  0.1775
 5043W        W 5043   1.536   0.003  10.317 -0.1271  0.0124  0.1263
 5044W        W 5044   6.627   2.824   0.015 -0.0446  0.0389  0.1761
 5045W        W 5045   3.203   4.301   1.316 -0.2794 -0.0404  0.1003
 5046W        W 5046   3.962   4.020   9.282  0.2935 -0.1229  0.1169
 5047W        W 5047   2.349   2.142   2.496  0.0691 -0.2589 -0.2987
 5048W        W 5048   7.570   4.429   3.314 -0.1156 -0.1559  0.1992
 5049W        W 5049   8.149   5.853   0.092 -0.0478 -0.0907 -0.0554
 5050W        W 5050   2.649   3.486   7.662  0.4196 -0.0397 -0.0699
 5051W        W 5051   1.404   7.085   2.549 -0.0723 -0.0866  0.1463
 5052W        W 5052   8.325   5.653   8.811  0.1198  0.0701 -0.2890
 5053W        W 5053   4.282   1.538   7.955 -0.4409  0.3580 -0.0397
 5054W        W 5054   7.081   5.715   8.333  0.0667  0.0414 -0.1957
 5055W        W 5055   2.928   1.351   9.619  0.0432 -0.1521  0.1201
 5056W        W 5056   4.516  10.302  10.015  0.0582  0.0623  0.2448
 5057W        W 5057   5.208   9.473   1.079  0.0291  0.1828 -0.2161
 5058W        W 5058   9.857   8.095   6.454  0.2183 -0.3910 -0.2973
 5059W        W 5059   7.607   9.993   1.066  0.0486  0.0855  0.1391
 5060W        W 5060   8.669   4.738   4.185 -0.1566 -0.1120  0.0582
 5061W        W 5061   5.334   9.701   2.992 -0.1215  0.0810 -0.0422
 5062W        W 5062   9.717   2.025   1.062  0.0522  0.2068  0.0414
 5063W        W 5063   0.887   8.128  10.224 -0.1898  0.1149  0.1510
 5064W        W 5064   2.873   7.336   4.665  0.0442 -0.1553 -0.1038
 5065W        W 5065   8.706   6.131   0.188  0.3692 -0.2034  0.0666
 5066W        W 5066   0.281   2.582   1.309  0.2152 -0.0578  0.0107
 5067W        W 5067   5.247   8.452   4.443 -0.3026 -0.1606  0.0029
 5068W        W 5068   7.294   6.181   3.195 -0.1751 -0.1584 -0.0266
 5069W        W 5069   2.940   2.102   4.526  0.0113 -0.1788 -0.1002
 5070W        W 5070   0.767   4.952   5.130  0.0484  0.0452 -0.1080
 5071W        W 5071   5.959   9.907   1.726 -0.1336  0.0152  0.1917
 5072W        W 5072   6.800   4.751   5.918  0.2581 -0.0050  0.0990
 5073W        W 5073   5.662   9.739   7.669 -0.0487  0.2239  0.1152
 5074W        W 5074   9.297   8.504   5.674 -0.1066  0.0183  0.2409
 5075W        W 5075   1.959   8.924   5.041  0.1135 -0.1732  0.0184
 5076W        W 5076   8.118   7.224   3.639 -0.0983 -0.0101  0.3326
 5077W        W 5077   9.456   7.551  10.226  0.1450 -0.2109 -0.3307
 5078W        W 5078   0.203   2.921   1.640 -0.1480  0.0070 -0.0288
 5079W        W 5079   5.509   7.776   5.604 -0.0159 -0.4601  0.0591
 5080W        W 5080   8.678   5.608   0.188  0.0773 -0.0524 -0.0271
 5081W        W 5081   7.853   9.396   6.636 -0.0783  0.2860  0.0565
 5082W        W 5082   0.806   1.832   3.962 -0.0156 -0.0643  0.2075
 5083W        W 5083   6.537   2.846   7.684 -0.2619 -0.2680  0.1969
 5084W        W 5084   0.002   6.557   0.174  0.0919  0.1509  0.0841
 5085W        W 5085   9.042  10.160   2.706 -0.1308  0.0238  0.2771
 5086W        W 5086   4.734   4.832   1.941  0.0166 -0.2100 -0.0130
 5087W        W 5087   1.132   9.719   8.590 -0.1044 -0.0584  0.1525
 5088W        W 5088   8.642   5.980   9.528 -0.0271  0.1840 -0.0717
 5089W        W 5089   5.093   5.534   7.731  0.3049  0.0205  0.5379
 5090W        W 5090   4.030   7.079   7.942  0.1331  0.2495 -0.1203
 5091W        W 5091   3.693   5.748   5.242  0.2197  0.0760  0.1589
 5092W        W 5092   2.081   3.501   6.693  0.1465 -0.0087 -0.0308
 5093W        W 5093   4.020   0.112   7.308 -0.0660 -0.0910  0.0268
 5094W        W 5094   6.228   5.451   5.279 -0.0674  0.0739  0.1615
 5095W        W 5095   6.558   7.316   1.528  0.0088  0.2761  0.0895
 5096W        W 5096   9.885   4.944   9.772 -0.0353 -0.3012  0.1970
 5097W        W 5097   1.528   2.693   9.808 -0.1518  0.2930 -0.2410
 5098W        W 5098   1.901   7.235   1.764 -0.0132 -0.2329  0.1923
 5099W        W 5099   0.094   6.352   8.414 -0.1138 -0.2352 -0.2318
 5100W        W 5100   8.455   9.089   1.062 -0.3092 -0.1803  0.0597
 5101W        W 5101   1.283   1.968   1.126  0.0751  0.0372 -0.2384
 5102W        W 5102   0.512   1.070   5.224 -0.3734 -0.0764 -0.0494
 5103W        W 5103   7.783   6.560   0.097  0.1976 -0.1396  0.0700
 5104W        W 5104   4.514   3.741   5.751  0.0764  0.0776  0.1351
 5105W        W 5105   7.957   3.641   7.796 -0.2081  0.0648 -0.1572
 5106W        W 5106   5.788   8.598   0.886 -0.1776 -0.1890 -0.3389
 5107W        W 5107   9.185   3.791   8.084 -0.0934  0.0624  0.0771
 5108W        W 5108   4.034   7.587   1.515  0.2008  0.0055  0.1997
 5109W        W 5109  10.051   7.846   9.006 -0.1624  0.1280  0.1415
 5110W        W 5110   5.063   5.689   9.420  0.1159  0.0718  0.1021
 5111W        W 5111   0.665   2.547  10.291 -0.0869  0.2382 -0.1695
 5112W        W 5112   9.919   3.464   9.186 -0.0762 -0.1321 -0.0431
 5113W        W 5113   6.242   2.018   8.061  0.0914  0.0793  0.0068
 5114W        W 5114   4.449   8.326   0.935 -0.0052 -0.4482 -0.0382
 5115W        W 5115   1.992   9.823   8.578 -0.0997  0.1968  0.0490
 5116W        W 5116   8.311   9.270   3.044  0.1516 -0.2911 -0.0247
 5117W        W 5117   3.585   4.591   2.280 -0.1312  0.1412  0.3330
 5118W        W 5118   4.930   4.086   8.761  0.2557 -0.3536  0.0868
 5119W        W 5119   6.820   3.309   6.084 -0.2477  0.1978  0.0779
 5120W        W 5120   3.463   1.474   8.577 -0.1797 -0.1648 -0.0750
 5121W        W 5121   7.767   4.162   6.889 -0.1228 -0.0392 -0.1094
 5122W        W 5122   1.482   1.862   3.450 -0.0075 -0.0105 -0.1244
 5123W        W 5123   4.523   0.657   0.332  0.0591 -0.0918  0.1798
 5124W        W 5124   2.347   3.721   1.512  0.3168  0.1013 -0.1086
 5125W        W 5125   9.208   6.605   4.691 -0.0870 -0.5044 -0.0205
 5126W        W 5126   5.197   8.604   9.498  0.1156 -0.1005  0.0805
 5127W        W 5127   8.757   5.586   8.518 -0.0342  0.0953  0.0226
 5128W        W 5128   5.843   3.245   6.157 -0.3688 -0.1699 -0.0090
 5129W        W 5129   6.195   4.786   1.478 -0.0838 -0.1432 -0.4630
 5130W        W 5130   6.857   1.665   8.709  0.1405  0.1278  0.1915
 5131W        W 5131   2.880   3.291   4.749 -0.3142  0.1229 -0.0080
 5132W        W 5132   1.204   8.782   1.392 -0.0275 -0.0276 -0.0489
 5133W        W 5133   8.948   2.561   8.482 -0.0966 -0.3337 -0.1953
 5134W        W 5134   0.545   1.276   2.135 -0.0018  0.0191  0.4144
 5135W        W 5135   5.451   3.993   6.730 -0.2113  0.1268 -0.2517
 5136W        W 5136   7.349   2.962   3.911  0.2288 -0.1054  0.1540
 5137W        W 5137   0.152  10.132   5.137  0.1103 -0.1939  0.0568
 5138W        W 5138   5.794   2.488   4.825 -0.2732  0.2907 -0.0766
 5139W        W 5139   6.229   4.498   7.224 -0.2017 -0.0517  0.1503
 5140W        W 5140   9.949   6.076   4.565  0.1430  0.2836  0.0826
 5141W        W 5141   8.824   1.694   8.450  0.2253 -0.0881  0.0081
 5142W        W 5142   5.231   3.684   4.515 -0.0662 -0.1071 -0.0250
 5143W        W 5143   8.229   3.721  10.197 -0.2638  0.1588  0.1077
 5144W        W 5144   7.980   5.448   2.103  0.0086  0.1991  0.0969
 5145W        W 5145   1.466   8.475   1.804  0.1436  0.1168 -0.1164
 5146W        W 5146   2.030   6.341   4.142  0.0247  0.0445  0.0687
 5147W        W 5147  10.106   1.583   9.815  0.0219  0.2282 -0.0079
 5148W        W 5148   4.196   5.219   3.132 -0.1243 -0.0574 -0.0529
 5149W        W 5149   7.870   2.858   0.048  0.1747  0.1971 -0.0491
 5150W        W 5150   7.717   1.146   5.256  0.1978 -0.2019 -0.0338
 5151W        W 5151   3.826   6.222   2.670 -0.2009  0.1012  0.0424
 5152W        W 5152   6.416   3.588   7.784  0.5875  0.2438  0.2125
 5153W        W 5153   2.015   7.211   6.839 -0.3628 -0.3496  0.1420
 5154W        W 5154   5.327   3.639   3.595 -0.1055 -0.0653 -0.0868
 5155W        W 5155   7.234   7.518   8.925  0.0892 -0.1886 -0.0299
 5156W        W 5156   7.470   9.161   2.895 -0.0074 -0.1564 -0.1032
 5157W        W 5157   7.781   8.876   6.578 -0.0372  0.0329  0.1118
 5158W        W 5158   3.029   0.757   8.884 -0.0226  0.0787  0.0253
 5159W        W 5159   3.807   0.878  10.046  0.2581 -0.1158 -0.2394
 5160W        W 5160   2.924  10.282   1.513  0.2483  0.1831  0.1693
 5161W        W 5161   9.089   2.848   6.894  0.3409 -0.0083 -0.1509
 5162W        W 5162   7.434   4.863   7.102  0.2231  0.1540 -0.0882
 5163W        W 5163   0.817   7.627   5.644 -0.1854  0.1558  0.2016
 5164W        W 5164   1.354   8.655   8.660 -0.1176 -0.0278  0.0185
 5165W        W 5165   7.431   4.170   5.949 -0.2554  0.0351 -0.0246
 5166W        W 5166   4.375   9.931   7.529  0.0013 -0.0636 -0.2687
 5167W        W 5167   0.220   1.779   5.902  0.1582  0.2309 -0.1561
 5168W        W 5168   5.420   1.019   9.542  0.1088 -0.1981 -0.0135
 5169W        W 5169   5.588   2.330   6.118 -0.1086  0.0070 -0.2551
 5170W        W 5170   5.479   2.400   9.158  0.5068  0.1182 -0.2565
 5171W        W 5171   9.850   3.053   6.943 -0.0595  0.1387 -0.3203
 5172W        W 5172   1.566   5.686   4.191  0.0471 -0.2401  0.1861
 5173W        W 5173   7.657   0.598   8.323 -0.1073 -0.0438 -0.0140
 5174W        W 5174   9.079   9.107  10.068 -0.1962  0.1920 -0.2975
 5175W        W 5175   3.206   6.778   8.196 -0.0622  0.2373 -0.3799
 5176W        W 5176   9.478   3.215   8.903  0.1185  0.0905  0.0796
 5177W        W 5177   5.369   5.083   7.871 -0.3714 -0.2922 -0.1699
 5178W        W 5178   3.221  10.081   9.933 -0.3405 -0.0819 -0.5495
 5179W        W 5179   0.546   6.359   9.930  0.1229  0.1423 -0.0873
 5180W        W 5180   2.901   5.146   9.376  0.0964 -0.1599 -0.0058
 5181W        W 5181   8.338   6.175   4.760  0.1559  0.0006  0.1389
 5182W        W 5182   8.691   4.133   7.245 -0.0148  0.2153 -0.1724
 5183W        W 5183   6.340   9.050   4.455 -0.0269  0.1041 -0.0619
 5184W        W 5184   7.662   1.611   9.674 -0.3111  0.1538 -0.0407
 5185W        W 5185   2.071   7.718  10.044 -0.0132 -0.1702 -0.2028
 5186W        W 5186   4.653   7.338   2.649 -0.0840 -0.1831 -0.1610
 5187W        W 5187   0.948   7.758   7.531  0.1131 -0.1925 -0.1416
 5188W        W 5188   5.467   9.455   5.342  0.1531 -0.0979 -0.2171
 5189W        W 5189  10.040   2.324   0.904 -0.2178 -0.0139  0.2463
 5190W        W 5190   2.987   5.179   0.051 -0.1523  0.3401  0.1662
 5191W        W 5191   4.149   9.562   1.086  0.2265  0.1694  0.2776
 5192W        W 5192   4.119   6.797   5.546  0.1308 -0.1109 -0.1901
 5193W        W 5193   9.803   4.011   4.362 -0.1810  0.2717 -0.0742
 5194W        W 5194   8.855   1.430   3.202  0.2055 -0.0217 -0.0733
 5195W        W 5195   7.688   6.570   2.468 -0.0600  0.0688  0.1233
 5196W        W 5196   5.473   4.319   9.728  0.1929 -0.1613  0.1207
 5197W        W 5197   8.256   3.082   8.530 -0.1364 -0.1614 -0.0143
 5198W        W 5198   2.612   1.676   2.408  0.0486 -0.1080 -0.2184
 5199W        W 5199   2.619   4.713   7.125 -0.3514  0.4226 -0.2003
 5200W        W 5200   9.536   9.415   6.974  0.0937  0.0569 -0.1045
 5201W        W 5201   0.436   7.640   6.030 -0.0069 -0.0793  0.0808
 5202W        W 5202   6.491   1.546   3.855 -0.4163 -0.1718  0.1184
 5203W        W 5203   1.158   0.912  10.098  0.1601 -0.1073  0.0585
 5204W        W 5204   1.848   0.411   0.005  0.0325  0.2739 -0.0760
 5205W        W 5205   2.792   5.636   7.351  0.3024 -0.0006  0.1547
 5206W        W 5206   8.213   1.900   1.386  0.0711 -0.1219  0.0090
 5207W        W 5207   0.714   9.079   8.517 -0.5042 -0.0480  0.3911
 5208W        W 5208  10.258   0.144   3.439 -0.2027  0.2615 -0.2311
 5209W        W 5209   4.858   1.885   1.042  0.3184 -0.0573  0.0656
 5210W        W 5210   7.304   1.683   2.986  0.1363 -0.0085  0.0455
 5211W        W 5211   4.626   8.200   3.858  0.0692  0.0407 -0.1765
 5212W        W 5212   8.064  10.043   5.569  0.0025  0.0043 -0.1316
 5213W        W 5213   6.098   0.817   5.746  0.1552  0.0290 -0.1503
 5214W        W 5214   6.149   1.839   4.537 -0.3695 -0.0974 -0.0185
 5215W        W 5215   0.172  10.333   5.803  0.1674 -0.0349 -0.0497
 5216W        W 5216   1.061   6.446   3.060  0.1716 -0.0622 -0.0241
 5217W        W 5217   9.671   5.437   8.790  0.0857  0.1102  0.0951
 5218W        W 5218   3.375   9.485   3.224  0.1621  0.0816  0.1728
 5219W        W 5219   5.896   3.675   3.438 -0.0794  0.0066 -0.0830
 5220W        W 5220   9.199   2.328   0.024  0.2085 -0.0024 -0.2694
 5221W        W 5221   6.565   5.664   6.950  0.0621 -0.2633  0.0532
 5222W        W 5222   8.873   5.553   9.149 -0.2442 -0.0341 -0.0663
 5223W        W 5223   2.329   4.258   0.732  0.0199 -0.1213 -0.0289
 5224W        W 5224   0.601   7.386   7.330  0.0939  0.0368  0.1653
 5225W        W 5225   0.073   8.194   2.878 -0.0216 -0.1182  0.0589
 5226W        W 5226   6.110   9.771   7.012  0.1153 -0.2007 -0.0958
 5227W        W 5227   2.064   4.108   9.046 -0.2613  0.1014 -0.1795
 5228W        W 5228   1.502   9.317   5.779  0.2757  0.1327 -0.0144
 5229W        W 5229   2.973   7.228   6.104  0.0321  0.0294  0.0467
 5230W        W 5230   8.088   1.615   1.807  0.0839  0.1168  0.3260
 5231W        W 5231   9.642   6.489   5.969  0.0165 -0.0865  0.0043
 5232W        W 5232   3.012   7.711   2.336 -0.0387  0.0633  0.0419
 5233W        W 5233   1.026   9.527   2.519 -0.2045  0.1231 -0.1492
 5234W        W 5234   7.511   4.494   6.504 -0.5417 -0.1177  0.3042
 5235W        W 5235   1.560   6.862   6.240 -0.0850  0.0383 -0.0754
 5236W        W 5236   7.718   6.381   0.721 -0.2591  0.1169 -0.0546
 5237W        W 5237   6.496   2.496   3.769 -0.2234  0.0911 -0.0383
 5238W        W 5238   5.442   9.114   9.642 -0.0627 -0.2110 -0.2747
 5239W        W 5239   4.914   7.896   9.756  0.0545 -0.0397 -0.0440
 5240W        W 5240   0.990   4.111   0.831  0.0931 -0.1545  0.2486
 5241W        W 5241   2.345   1.941   5.919  0.0871  0.0028 -0.0084
 5242W        W 5242   0.529   9.289   7.655 -0.2165 -0.0023 -0.4987
 5243W        W 5243   7.362   8.739   8.602  0.0904 -0.3409 -0.1762
 5244W        W 5244   6.302   2.416   4.554 -0.0994  0.0600 -0.0579
 5245W        W 5245   2.325   3.393   5.673  0.1299 -0.1513 -0.0623
 5246W        W 5246   3.896   2.299   4.713  0.0491 -0.1418  0.0478
 5247W        W 5247   0.515   7.610   1.894  0.0253 -0.2655  0.0076
 5248W        W 5248   0.857   0.320   1.124  0.0118 -0.1711 -0.0885
 5249W        W 5249   4.365   7.388   8.103 -0.0336 -0.2359  0.0101
 5250W        W 5250   2.857   7.849   7.762  0.0107  0.0838 -0.1037
 5251W        W 5251   3.859   1.451   0.893  0.0378  0.0880 -0.1159
 5252W        W 5252   0.655  10.169   0.987  0.1019  0.0101 -0.1978
 5253W        W 5253   3.693   2.962   5.841 -0.1059  0.0593 -0.1102
 5254W        W 5254  10.244  10.196   3.961 -0.0165  0.3793 -0.2571
 5255W        W 5255   5.722   6.171   9.392 -0.2188  0.1860  0.2950
 5256W        W 5256   9.574   7.641   3.524 -0.0473 -0.0691  0.1057
 5257W        W 5257   9.114   7.017   5.646  0.0073  0.4094 -0.1970
 5258W        W 5258   5.526   1.168   0.123  0.0871 -0.1782  0.0792
 5259W        W 5259   6.100   4.612   0.585  0.2661  0.1186 -0.1118
 5260W        W 5260   7.629   9.871   4.758 -0.1538 -0.0046 -0.0029
 5261W        W 5261   0.198   0.726   4.424 -0.2039 -0.0455 -0.0804
 5262W        W 5262   9.423   9.841   3.809 -0.0526 -0.1941  0.1151
 5263W        W 5263   2.842   8.710   7.177  0.3933 -0.0897 -0.1674
 5264W        W 5264   9.632   3.703   9.595 -0.0271 -0.0037  0.2221
 5265W        W 5265   2.739   9.348   4.497 -0.3669  0.1846  0.1217
 5266W        W 5266   7.644   0.603   3.807  0.2525  0.2008 -0.0164
 5267W        W 5267   3.748   9.119   3.773 -0.3085  0.0725  0.2099
 5268W        W 5268   7.633   5.816   8.125  0.0661  0.0833 -0.2884
 5269W        W 5269   2.209   8.621   2.711  0.1176 -0.0118  0.2463
 5270W        W 5270   6.681   5.251   7.320  0.0387  0.1932  0.2557
 5271W        W 5271   2.198   0.834   6.001 -0.0961  0.1412  0.0918
 5272W        W 5272   4.012   2.723   4.067 -0.2615  0.4146  0.2605
 5273W        W 5273   7.143   8.888   4.775 -0.1281 -0.1567 -0.1007
 5274W        W 5274   5.253   1.212   1.145  0.1846 -0.2191 -0.2018
 5275W        W 5275   0.620   4.195   0.551 -0.0920 -0.0087  0.0530
 5276W        W 5276   1.430   1.367   5.244 -0.0529 -0.1193 -0.0154
 5277W        W 5277   4.354   8.070   2.759  0.1275  0.2207  0.0518
 5278W        W 5278   2.833   8.563   1.127 -0.1818  0.0511 -0.1604
 5279W        W 5279   4.753   8.903   0.425  0.2107 -0.1726 -0.1315
 5280W        W 5280   6.124   7.920   6.424  0.2336 -0.3372  0.0629
 5281W        W 5281   8.764   6.835   3.703 -0.3819 -0.0853 -0.1543
 5282W        W 5282   1.385   9.730   7.771 -0.3219 -0.0748  0.1831
 5283W        W 5283   7.690   0.277   6.653 -0.0469  0.0327 -0.0912
 5284W        W 5284   5.724   5.491   7.781  0.0935  0.0490 -0.0027
 5285W        W 5285   0.044   6.402   8.964  0.1728 -0.1403  0.0094
 5286W        W 5286  10.073   0.882   4.620  0.0055 -0.1757  0.1796
 5287W        W 5287   8.781   2.797   2.038  0.1867 -0.2992  0.3216
 5288W        W 5288   4.100   1.378   9.774 -0.0983 -0.0139  0.2603
 5289W        W 5289   2.826   6.454   7.476  0.2956  0.0297  0.2114
 5290W        W 5290   2.021   6.813   3.764  0.2194 -0.0192  0.0002
 5291W        W 5291   6.506   1.859   7.186 -0.0142 -0.1874  0.1280
 5292W        W 5292   8.151   7.976   2.358  0.0987 -0.0583  0.0063
 5293W        W 5293   4.492   4.733   5.868  0.0833 -0.1358  0.3755
 5294W        W 5294   9.415   0.636   3.311  0.3303 -0.0830 -0.2773
 5295W        W 5295   6.836   4.412   4.031 -0.1169 -0.2476 -0.1390
 5296W        W 5296   3.692   9.375   1.065 -0.1633  0.2377  0.1599
 5297W        W 5297   7.233   9.469   7.345  0.2103  0.1373 -0.1418
 5298W        W 5298   3.765   7.763   4.500 -0.0363  0.3845 -0.1494
 5299W        W 5299   6.217   7.179   5.386 -0.3594  0.0332 -0.0445
 5300W        W 5300   5.946   8.273   2.997 -0.1105 -0.0479 -0.0405
 5301W        W 5301   4.489   4.519   9.127  0.0570 -0.0021  0.1659
 5302W        W 5302   2.785   0.700   4.892  0.0087  0.0644 -0.1026
 5303W        W 5303   6.977   1.902   9.176  0.1632  0.0478 -0.0262
 5304W        W 5304   0.413   1.525   5.068 -0.0135 -0.0733 -0.0751
 5305W        W 5305   4.471   6.068   2.732  0.0500 -0.4297 -0.0133
 5306W        W 5306   3.777   6.896   9.965 -0.1702 -0.1383 -0.2337
 5307W        W 5307   5.291   8.937   1.186  0.0610 -0.1219 -0.0246
 5308W        W 5308   9.526   3.792   0.033  0.1797 -0.2150  0.2323
 5309W        W 5309   9.526   4.743   2.101 -0.1646  0.0765  0.2586
 5310W        W 5310   8.309   2.867   4.931 -0.0307  0.1038  0.0907
 5311W        W 5311   4.851   3.886   7.550  0.2201  0.2553  0.1177
 5312W        W 5312   0.011   9.015   7.649  0.4856  0.3363 -0.0106
 5313W        W 5313   9.626   7.502   5.501  0.2882 -0.4354 -0.1314
 5314W        W 5314   2.957   5.021   2.653 -0.0101  0.1227 -0.0435
 5315W        W 5315   8.795   9.798   5.526  0.0494  0.1772  0.1457
 5316W        W 5316   4.472   2.749   9.364  0.1241 -0.0972 -0.0329
 5317W        W 5317   7.755   0.224  10.082 -0.4892  0.2449 -0.0663
 5318W        W 5318   2.267   3.850   6.009 -0.0426  0.0220  0.1948
 5319W        W 5319   2.337   8.327   1.323 -0.0682 -0.1430  0.0877
 5320W        W 5320   0.652   7.019   4.295  0.2084  0.0058 -0.3101
 5321W        W 5321  10.032   8.816   5.042  0.0481 -0.1257 -0.0902
 5322W        W 5322   2.517   3.776   8.907  0.1665  0.1211 -0.0801
 5323W        W 5323   2.375   4.757   4.567 -0.1718 -0.3291 -0.4610
 5324W        W 5324   4.089   0.768   4.112  0.0881 -0.0657  0.0237
 5325W        W 5325   8.494   7.643   1.452 -0.0362 -0.2286  0.2000
 5326W        W 5326   3.406   9.040   0.399 -0.1103  0.0145  0.2509
 5327W        W 5327   2.458   4.180   9.371 -0.1580  0.3024  0.3330
 5328W        W 5328   4.524   6.914   9.573  0.2855  0.1011 -0.1857
 5329W        W 5329   7.871   9.483   3.104  0.1135 -0.0711  0.1148
 5330W        W 5330   9.112   4.053   9.433 -0.1069 -0.2629  0.2412
 5331W        W 5331   0.839   3.794   9.009  0.1442  0.1197 -0.1370
 5332W        W 5332   6.655   4.507   1.352  0.1583 -0.2625  0.1391
 5333W        W 5333   2.319   3.425   8.591  0.0855  0.2410  0.1583
 5334W        W 5334   6.760   2.979   0.611 -0.0239 -0.0320 -0.0250
 5335W        W 5335   1.890   7.671   1.469 -0.0810 -0.2560 -0.3330
 5336W        W 5336   3.139   6.317   7.918 -0.2297 -0.2829  0.1179
 5337W        W 5337  10.098  10.031   8.310  0.2866  0.0733 -0.2203
 5338W        W 5338   1.571   4.962   3.338  0.1153 -0.0775 -0.1049
 5339W        W 5339   2.048  10.036   1.755 -0.0146 -0.4047 -0.1981
 5340W        W 5340   2.799   3.245   0.600 -0.0308 -0.3100 -0.2270
 5341W        W 5341   2.652   4.070   7.771 -0.0809 -0.0117  0.4710
 5342W        W 5342   2.489   2.467   5.312  0.0027 -0.2866 -0.0642
 5343W        W 5343   5.658   7.569   3.226  0.4135  0.1677 -0.2352
 5344W        W 5344   6.664   8.764   2.775 -0.0061 -0.1147  0.0696
 5345W        W 5345   2.307   1.522   0.459  0.1621 -0.0054  0.1496
 5346W        W 5346   6.946   8.378   6.358  0.2066 -0.0190  0.2702
 5347W        W 5347   0.455   2.476   2.112  0.0621  0.0483  0.2041
 5348W        W 5348   9.557   6.144   9.448  0.0343  0.0743 -0.1536
 5349W        W 5349   3.369   0.021   0.372  0.1736  0.0547  0.2009
 5350W        W 5350   8.914   8.157   6.600 -0.0121 -0.0374 -0.0221
 5351W        W 5351   0.746   6.301   7.829  0.2072 -0.1279 -0.1502
 5352W        W 5352   0.655   6.951   7.878  0.0973 -0.0319 -0.2880
 5353W        W 5353   2.830   0.238   2.394 -0.1949  0.0809 -0.0967
 5354W        W 5354  10.110   5.483   7.105 -0.0932  0.0337 -0.1773
 5355W        W 5355   2.596   6.083   3.276 -0.1077  0.2361  0.1487
 5356W        W 5356   9.818   5.666   4.851 -0.1842  0.1517  0.1638
 5357W        W 5357   2.513   2.993   2.551  0.0518  0.1649  0.4014
 5358W        W 5358   4.528   1.751   6.632 -0.4473 -0.0640  0.1312
 5359W        W 5359   5.942   1.450  10.283  0.1897 -0.1898 -0.1582
 5360W        W 5360   4.093   2.748   6.123 -0.0447  0.0490 -0.1331
 5361W        W 5361   9.814   1.043   3.397  0.0465  0.0360  0.2216
 5362W        W 5362   2.806   7.013   5.093  0.0311 -0.5226 -0.3980
 5363W        W 5363   2.015  10.074   2.877 -0.1815 -0.2191  0.2401
 5364W        W 5364   9.769   6.015   5.742 -0.0250  0.3007 -0.0279
 5365W        W 5365   8.308   2.832   4.386  0.0220 -0.4591 -0.3071
 5366W        W 5366   8.629   8.948   4.995  0.2105 -0.1528 -0.0683
 5367W        W 5367   4.325   4.745   2.772  0.0135  0.0924  0.1712
 5368W        W 5368   8.232   2.006   2.229 -0.0888 -0.3324 -0.2318
 5369W        W 5369   9.915   2.282   2.191 -0.3261 -0.1608 -0.1166
 5370W        W 5370   4.070   7.364   4.621  0.0805  0.3173  0.2289
 5371W        W 5371   8.357   1.754   8.674 -0.0600  0.1712  0.1989
 5372W        W 5372   4.214   9.071   5.619 -0.0690  0.0761  0.1594
 5373W        W 5373   4.735   7.096   6.702  0.0907 -0.2191 -0.1280
 5374W        W 5374   2.883   3.935   1.319 -0.1650  0.0129 -0.0691
 5375W        W 5375   1.153   2.212   1.635  0.0685 -0.0075 -0.0857
 5376W        W 5376   3.934   8.282   9.771  0.0251  0.1682 -0.2507
 5377W        W 5377   7.338   3.363   9.794 -0.3623  0.1718 -0.2117
 5378W        W 5378   7.719   1.589   3.841  0.2149 -0.0335  0.0023
 5379W        W 5379   8.238   2.119   0.947  0.1692 -0.2231  0.0993
 5380W        W 5380   1.684   6.048   2.333  0.2409 -0.1148 -0.0914
 5381W        W 5381   0.816   7.202   1.679 -0.0570 -0.3181  0.2020
 5382W        W 5382   3.992   9.511   3.509  0.0883  0.1461  0.1740
 5383W        W 5383   1.791  10.265   1.412 -0.0754 -0.2996 -0.0239
 5384W        W 5384   3.091   8.257   6.867 -0.2440 -0.3214 -0.1220
 5385W        W 5385   6.747   1.452   9.276 -0.0329 -0.0334 -0.3264
 5386W        W 5386   9.219   5.125   9.103  0.0625  0.0712  0.1492
 5387W        W 5387   4.052   2.649   7.107 -0.2025 -0.2839  0.1507
 5388W        W 5388   1.571   5.097   1.881  0.2236 -0.4120  0.0196
 5389W        W 5389   2.469   5.852   0.140  0.1871 -0.2432  0.0839
 5390W        W 5390   2.667   8.315   3.577 -0.0502  0.0808 -0.1873
 5391W        W 5391   5.173   6.002   5.186 -0.0224 -0.2790 -0.1234
 5392W        W 5392   3.874   8.749   0.329  0.1594 -0.0558  0.0918
 5393W        W 5393   9.423   5.002  10.051  0.2234  0.1633  0.1144
 5394W        W 5394   8.095   9.130   4.482 -0.1196  0.0801  0.1130
 5395W        W 5395   1.098  10.023   4.814  0.1751 -0.0269 -0.1855
 5396W        W 5396   2.671   2.112   4.025 -0.0317  0.2680 -0.1083
 5397W        W 5397   1.752   0.096   3.102 -0.1478  0.1080 -0.2383
 5398W        W 5398   2.982   1.299   4.994  0.1877  0.0489 -0.0582
 5399W        W 5399   6.917   8.555   4.263  0.0110 -0.2015  0.1919
 5400W        W 5400   9.955   6.077   9.985  0.2643 -0.0497 -0.2442
 5401W        W 5401   5.603   7.228   8.899  0.0993 -0.1541 -0.3030
 5402W        W 5402   6.535   3.936   6.936 -0.0026 -0.0072  0.0559
 5403W        W 5403   1.326   2.864   4.328 -0.1439 -0.1348  0.0635
 5404W        W 5404   8.160   2.207   6.600 -0.2465 -0.1405  0.0120
 5405W        W 5405   9.306   2.427   5.546 -0.1367  0.0032 -0.2730
 5406W        W 5406   6.547   2.120   9.192  0.1673  0.1782 -0.0483
 5407W        W 5407   3.403   1.868   4.569  0.1278 -0.0561 -0.0994
 5408W        W 5408  10.096   6.596   4.266 -0.2381  0.1575  0.0130
 5409W        W 5409   0.114   2.643   0.282  0.1979 -0.0937  0.0123
 5410W        W 5410   5.324   1.111   0.589  0.0339  0.1831  0.0208
 5411W        W 5411   4.062   4.431   6.768 -0.1662  0.2106  0.1364
 5412W        W 5412   6.068   1.010   5.192 -0.0766 -0.1853 -0.2930
 5413W        W 5413   8.473   0.495   3.405  0.0739 -0.1658  0.0073
 5414W        W 5414   1.120   6.806   4.227  0.0825  0.0185 -0.0671
 5415W        W 5415   0.718   3.177   9.621 -0.1563  0.1119 -0.4260
 5416W        W 5416   7.535   8.035   6.856  0.1346  0.0628  0.2699
 5417W        W 5417   1.930   1.621   4.248 -0.0676 -0.1917 -0.0991
 5418W        W 5418   3.850   9.434   5.160  0.2570  0.1636 -0.0530
 5419W        W 5419   0.637   0.229   0.639 -0.1660 -0.2107 -0.3442
 5420W        W 5420   9.220  10.144   1.486  0.1138 -0.1953 -0.0173
 5421W        W 5421   5.102   0.929   8.941 -0.2182  0.2474  0.0962
 5422W        W 5422   4.345  10.256   4.949  0.0741 -0.3511 -0.2522
 5423W        W 5423   6.896   0.459   0.334  0.2317 -0.1256  0.0566
 5424W        W 5424   5.448   0.510   1.617 -0.0998  0.5018  0.0051
 5425W        W 5425   5.264   9.546   9.159  0.1647 -0.3367 -0.0784
 5426W        W 5426   4.980   2.466   3.538  0.0148  0.0413 -0.2556
 5427W        W 5427   2.211   7.038   3.293  0.1362  0.1861 -0.0970
 5428W        W 5428   0.836   7.786   4.681  0.1509 -0.3170 -0.0076
 5429W        W 5429   5.722   4.517   0.295 -0.0623  0.0522  0.1012
 5430W        W 5430   6.804   9.378   6.332 -0.0769 -0.1075 -0.4995
 5431W        W 5431   4.466   1.250   5.232 -0.2108 -0.5062 -0.1472
 5432W        W 5432   1.347   2.509   5.281  0.1257 -0.5120 -0.2604
 5433W        W 5433   3.475   5.426   1.981 -0.2499  0.1747  0.4783
 5434W        W 5434   9.996   6.732   2.341 -0.1214 -0.2231  0.4217
 5435W        W 5435   7.387   1.889   8.857 -0.1486 -0.0417 -0.1009
 5436W        W 5436   4.765   5.533   5.340 -0.1935 -0.2297  0.0298
 5437W        W 5437   4.207   8.903   5.151  0.0225  0.1235 -0.2287
 5438W        W 5438   5.799   0.370   0.024 -0.0161 -0.1639 -0.0411
 5439W        W 5439   4.842   7.552   6.864  0.3150  0.1736  0.0421
 5440W        W 5440   8.540   3.867   3.138 -0.2374  0.1830 -0.0348
 5441W        W 5441   4.081   4.903   2.235  0.1589  0.2622 -0.1088
 5442W        W 5442   6.498   9.103   1.452 -0.2460 -0.2636 -0.1248
 5443W        W 5443   1.795   8.832   2.069  0.1156  0.0667  0.1040
 5444W        W 5444   4.878   1.766   1.703  0.1750  0.0440 -0.2452
 5445W        W 5445   2.535   4.703   5.140  0.0211  0.1296  0.3531
 5446W        W 5446   6.373   4.192   1.714 -0.0436  0.1228  0.1481
 5447W        W 5447   9.670   6.213   4.054  0.2105  0.1308 -0.1380
 5448W        W 5448   0.166   1.770   0.255 -0.1965  0.0106 -0.5297
 5449W        W 5449   1.388   8.111   9.765  0.1825  0.1609 -0.0382
 5450W        W 5450   5.334   9.724   5.773 -0.1846  0.0554  0.0822
 5451W        W 5451   4.543   4.714   7.255  0.0815 -0.0836  0.1747
 5452W        W 5452   7.067   0.873   2.792 -0.2108 -0.1304 -0.3264
 5453W        W 5453   0.491   1.525   8.841 -0.0678  0.1409  0.3464
 5454W        W 5454   2.366   7.278   6.413 -0.1136 -0.1305  0.0047
 5455W        W 5455   3.311   3.287   7.272 -0.4709  0.2268 -0.0534
 5456W        W 5456   0.080   6.940   5.634  0.2797 -0.4746  0.1971
 5457W        W 5457   3.984   3.629   7.125  0.0258  0.2097  0.0317
 5458W        W 5458   7.398   2.888   7.134  0.1131 -0.1426 -0.0298
 5459W        W 5459   8.048   0.792   8.671  0.4871 -0.0314  0.5018
 5460W        W 5460   6.860   9.366   0.419 -0.1971  0.3204  0.0995
 5461W        W 5461   4.772   8.037   3.436  0.0648 -0.0739  0.0446
 5462W        W 5462   2.675   5.698   4.951  0.0474  0.3328 -0.2875
 5463W        W 5463   4.978   1.783   6.264 -0.0397 -0.0324  0.3587
 5464W        W 5464   3.614   1.609   2.088  0.0553  0.0129  0.0322
 5465W        W 5465   3.497   5.146   5.911  0.1939  0.1156 -0.2521
 5466W        W 5466   1.312   5.531   7.708  0.0719  0.1464 -0.1573
 5467W        W 5467   7.151   0.993   0.514 -0.0231 -0.2445  0.0798
 5468W        W 5468   4.812   2.894   7.161 -0.0439 -0.1567  0.0509
 5469W        W 5469   0.527   5.926   6.261  0.0202  0.0809  0.2666
 5470W        W 5470   8.689   0.456   9.941  0.1649  0.2803  0.2754
 5471W        W 5471   2.108   8.013   0.902 -0.3074 -0.0465 -0.0342
 5472W        W 5472   2.201   7.273   2.696 -0.1912  0.0181 -0.3807
 5473W        W 5473   0.769   8.253   4.950  0.0375  0.0893 -0.0144
 5474W        W 5474   8.860   9.762   2.368  0.2987 -0.0596 -0.2265
 5475W        W 5475   0.738   5.152   9.066 -0.1534  0.1179  0.1301
 5476W        W 5476   2.594   5.076   4.237 -0.1687  0.0408  0.0986
 5477W        W 5477   5.019   3.395   7.783 -0.1410 -0.1743 -0.0433
 5478W        W 5478   6.702   6.959   7.679  0.0930  0.1218  0.0168
 5479W        W 5479   1.116   7.181   9.245 -0.1952 -0.0340  0.3083
 5480W        W 5480   7.087   9.166  10.264  0.0764 -0.3196  0.1392
 5481W        W 5481   5.099   2.582   5.466  0.1504  0.0210 -0.0267
 5482W        W 5482   6.548   7.660   8.731 -0.2126 -0.2682  0.1790
 5483W        W 5483   6.901   6.940   6.656  0.0482  0.1826  0.1798
 5484W        W 5484   7.062   8.420   9.148  0.1324  0.0526 -0.0581
 5485W        W 5485   2.755   3.806  10.260  0.0605 -0.1690  0.2302
 5486W        W 5486   0.821   3.114   4.153  0.1019 -0.1130  0.0995
 5487W        W 5487   4.903   3.791   6.212  0.0781  0.2942  0.0389
 5488W        W 5488   3.774   7.390   6.348  0.0236  0.3174 -0.2840
 5489W        W 5489   6.729   1.003   9.670  0.1234 -0.3544  0.2546
 5490W        W 5490   0.640   9.143   5.739  0.0660  0.2142  0.1385
 5491W        W 5491   4.653   9.294   6.874  0.0564  0.3401 -0.1353
 5492W        W 5492   0.190   8.572   5.392  0.1148  0.3951 -0.0424
 5493W        W 5493   2.169   6.225   3.590  0.1299  0.0935 -0.0330
 5494W        W 5494   1.159   5.698   6.912  0.0330  0.3059  0.0243
 5495W        W 5495   1.109   5.452   9.539 -0.0119  0.2054  0.2106
 5496W        W 5496   1.550   6.438   1.349 -0.0391 -0.0459 -0.3204
 5497W        W 5497   2.180   4.517   7.200 -0.0128 -0.0228  0.2002
 5498W        W 5498  10.109   2.945   3.697  0.2222 -0.1075  0.2802
 5499W        W 5499   7.248   9.112   0.631  0.3251 -0.0015  0.1986
 5500W        W 5500   1.139   0.608   3.935  0.0397 -0.1348  0.1481
 5501W        W 5501   0.583   0.149   2.769 -0.0926  0.3096 -0.0007
 5502W        W 5502   9.473   4.909   5.294  0.2673  0.1083 -0.0695
 5503W        W 5503   3.981   0.099   6.785 -0.2291  0.0123  0.2053
 5504W        W 5504   9.514   7.597   5.011 -0.2043 -0.0624 -0.2312
 5505W        W 5505   6.190   1.656   6.625 -0.0346  0.0034 -0.1413
 5506W        W 5506   1.313   2.140   2.457 -0.0829  0.1906  0.1568
 5507W        W 5507   9.501   4.684   8.692 -0.1268 -0.1764  0.1985
 5508W        W 5508   6.834   5.366   9.402  0.1106  0.1876  0.1227
 5509W        W 5509   8.068   1.536   2.918  0.3343  0.2035  0.1153
 5510W        W 5510   4.476   4.667   0.628  0.0629  0.1055  0.1581
 5511W        W 5511  10.015   8.277   3.221 -0.1304  0.0855 -0.0655
 5512W        W 5512   5.150   7.234   0.535  0.2539  0.0077  0.0178
 5513W        W 5513   2.643   4.972   7.926 -0.2620  0.1851  0.0321
 5514W        W 5514   1.949   9.265   0.366 -0.0370 -0.1172  0.0841
 5515W        W 5515   3.666   7.297   3.100  0.3150  0.0109  0.2886
 5516W        W 5516   5.907   7.651   7.698  0.0961  0.0883 -0.2164
 5517W        W 5517   7.476   2.692   7.770 -0.0493  0.0304  0.3757
 5518W        W 5518   1.749   1.923   9.569 -0.0486  0.1695 -0.0042
 5519W        W 5519   0.611   4.918   7.007 -0.0983 -0.0842  0.0844
 5520W        W 5520   3.312   3.516  10.147  0.0324 -0.2676 -0.1310
 5521W        W 5521   9.663   0.806   8.709 -0.3370  0.2083 -0.0665
 5522W        W 5522   2.246   0.170   0.214  0.2104 -0.0152  0.1556
 5523W        W 5523   7.124   9.955   4.523 -0.1034 -0.2035 -0.0636
 5524W        W 5524   0.416   1.482   3.149  0.3559  0.2512  0.1145
 5525W        W 5525  10.224   0.894   0.119 -0.1303  0.0639 -0.2233
 5526W        W 5526  10.020   2.308   6.500 -0.2795 -0.0980  0.1594
 5527W        W 5527   8.553   0.288   5.576 -0.3765 -0.1028 -0.0346
 5528W        W 5528   6.658   7.491   4.444  0.0976 -0.5294 -0.3017
 5529W        W 5529   4.763   7.538   0.386 -0.1598 -0.0771 -0.1364
 5530W        W 5530   2.785   2.082   2.200 -0.2287  0.0064  0.0675
 5531W        W 5531   2.960  10.305   6.928  0.0782 -0.0748 -0.1235
 5532W        W 5532   3.504   1.714   7.369 -0.1049 -0.0853 -0.2492
 5533W        W 5533   0.406   3.275   8.324 -0.1993 -0.1979  0.0129
 5534W        W 5534   4.111   7.666   7.319 -0.2142  0.0733 -0.0178
 5535W        W 5535   8.800   3.099   1.567  0.3155  0.0897  0.0656
 5536W        W 5536   8.206   6.046   1.361  0.1044  0.0649 -0.1510
 5537W        W 5537   9.264   1.880  10.145  0.1883 -0.1651 -0.0699
 5538W        W 5538   5.170   7.257   5.380  0.0562 -0.1056 -0.0683
 5539W        W 5539   2.537   7.472   9.978  0.1085  0.0216  0.0823
 5540W        W 5540   8.323   3.548   8.975 -0.4928 -0.1510 -0.2496
 5541W        W 5541   3.428   7.864   8.600  0.1593 -0.0700 -0.1564
 5542W        W 5542   4.377   2.821   2.199 -0.2279  0.1805 -0.1419
 5543W        W 5543   9.581   6.010   8.559 -0.1298 -0.1502 -0.2422
 5544W        W 5544   8.905   5.648   5.245 -0.1028  0.1901  0.1643
 5545W        W 5545   3.474   2.127   9.591 -0.2620 -0.3862 -0.3683
 5546W        W 5546  10.199   1.893   1.755  0.1327  0.0517 -0.1201
 5547W        W 5547   2.903   0.607   0.747  0.0606  0.1365 -0.0013
 5548W        W 5548   3.418   8.957   8.227  0.1726  0.2702 -0.0094
 5549W        W 5549   2.890   8.358   7.842  0.0476 -0.0064  0.2378
 5550W        W 5550   0.186  10.260   8.063 -0.0428 -0.1577  0.0307
 5551W        W 5551   8.387   5.049   7.139  0.4052  0.2419 -0.0028
 5552W        W 5552   6.187   1.154   3.670 -0.3259  0.0005 -0.2385
 5553W        W 5553   8.776   0.765   5.793  0.4046 -0.0060  0.0918
 5554W        W 5554   8.998   5.662   2.856  0.2146  0.2248  0.1393
 5555W        W 5555   4.281   4.188   3.145  0.2524  0.0618  0.0403
 5556W        W 5556   0.402   7.258   1.392  0.2144 -0.3704 -0.0435
 5557W        W 5557   7.447   3.061   3.371 -0.4307 -0.1491 -0.1777
 5558W        W 5558   1.978   9.140   9.019 -0.1425 -0.0641 -0.1198
 5559W        W 5559   9.993   9.919   3.143  0.0657 -0.1309  0.1852
 5560W        W 5560   6.644   2.321   7.891 -0.0707 -0.1272  0.2718
 5561W        W 5561   6.902   1.193   4.449 -0.4076 -0.1496 -0.0563
 5562W        W 5562   2.212   6.154   8.339 -0.0440 -0.0163  0.0836
 5563W        W 5563   1.157   0.053   0.846  0.2656 -0.1424 -0.0352
 5564W        W 5564   8.493   5.041   6.243 -0.0691 -0.1441  0.0996
 5565W        W 5565   2.700   9.089   2.418  0.1446 -0.3174  0.1251
 5566W        W 5566   9.462   3.641   9.134  0.2469 -0.1133  0.0288
 5567W        W 5567   2.384   4.618   6.654  0.0710 -0.4650  0.1352
 5568W        W 5568   7.562   0.893   1.852  0.1584  0.1765  0.1527
 5569W        W 5569   0.378   3.348   7.824 -0.0703  0.1389  0.0973
 5570W        W 5570   4.307   6.382   7.172  0.1953 -0.0047  0.1000
 5571W        W 5571   5.608   3.994   4.411  0.2989  0.0492  0.3339
 5572W        W 5572   6.696   9.824   7.255 -0.2779 -0.0115 -0.0097
 5573W        W 5573   3.969   3.095   2.268 -0.2434 -0.0399 -0.1622
 5574W        W 5574   7.568   7.889   3.879 -0.2619  0.2340  0.2197
 5575W        W 5575   9.356   4.670   6.040 -0.0189  0.0692  0.0518
 5576W        W 5576   2.476   8.824   8.131  0.1246 -0.1841 -0.1696
 5577W        W 5577   4.298   8.144   3.270  0.0706 -0.1375 -0.4200
 5578W        W 5578   9.384   1.116   8.953  0.1163 -0.0349 -0.0751
 5579W        W 5579   0.332   2.164   1.760  0.0784 -0.0603  0.0241
 5580W        W 5580   8.553   5.657   1.941  0.0782 -0.0121  0.4693
 5581W        W 5581   9.739   3.500   4.635  0.1775 -0.1499  0.1042
 5582W        W 5582   3.024   5.896   6.877  0.0454  0.0559 -0.2778
 5583W        W 5583   0.300   7.058   2.741 -0.0903  0.0301 -0.1937
 5584W        W 5584   5.468   3.544   8.667  0.0591 -0.0941  0.2576
 5585W        W 5585   3.332   2.668   3.339  0.0719  0.1487  0.1762
 5586W        W 5586   2.361   2.122   3.062 -0.0475 -0.3291  0.0091
 5587W        W 5587   3.921   4.200   3.700  0.0890 -0.2337  0.3020
 5588W        W 5588   5.784   5.900   0.325  0.0505 -0.3573  0.1788
 5589W        W 5589   8.597   0.193   6.702 -0.0343  0.2348 -0.1113
 5590W        W 5590   8.809   8.283   8.392  0.0040 -0.0923 -0.1423
 5591W        W 5591   6.621   2.565   7.197 -0.0166 -0.3611 -0.0760
 5592W        W 5592   0.706   1.021   3.223 -0.3198 -0.1744 -0.2243
 5593W        W 5593   0.088   0.762   1.471  0.0075 -0.0980 -0.1760
 5594W        W 5594   8.710   7.309   7.393 -0.1746  0.0395  0.2931
 5595W        W 5595   0.281   8.690   8.007  0.0353  0.1873 -0.3735
 5596W        W 5596   9.106   8.471   3.637 -0.0593 -0.0403  0.2281
 5597W        W 5597   5.446   2.316   3.157  0.0810  0.2579 -0.2356
 5598W        W 5598   0.128   3.347   4.159  0.0454 -0.1900  0.1163
 5599W        W 5599   6.416   8.145   3.800  0.5028 -0.0948  0.1961
 5600W        W 5600   4.576   8.336   1.435  0.2830  0.3884  0.2827
 5601W        W 5601   0.544   7.996   5.356 -0.1110 -0.2575  0.1600
 5602W        W 5602   7.920   2.614   8.583  0.0906 -0.1512 -0.1081
 5603W        W 5603   9.141   3.445   7.553 -0.2146 -0.0999  0.1748
 5604W        W 5604   9.648   8.883   2.005  0.1413 -0.1537  0.0076
 5605W        W 5605   4.561   6.370   9.555  0.2806  0.0184  0.0221
 5606W        W 5606   3.758   2.964   5.344 -0.2549 -0.1668  0.1040
 5607W        W 5607   5.453   4.394   5.734 -0.1686  0.0423  0.0831
 5608W        W 5608   9.166   6.973   0.515  0.2431  0.1885  0.2327
 5609W        W 5609   6.391   5.236   9.156  0.1279 -0.0805 -0.2688
 5610W        W 5610   9.619   3.683   6.242 -0.1656  0.0942  0.2998
 5611W        W 5611   8.197  10.302   8.223 -0.0132  0.1280 -0.2489
 5612W        W 5612   9.359   6.428   9.096 -0.1118  0.2432  0.1000
 5613W        W 5613   6.547   4.249   5.796  0.1544 -0.0331  0.2038
 5614W        W 5614   9.345   4.221   7.868  0.3690  0.2074 -0.0202
 5615W        W 5615   0.349   6.229   6.601 -0.0807  0.1477 -0.0836
 5616W        W 5616   1.527   0.360   9.980  0.1871  0.0547 -0.0661
 5617W        W 5617   8.048   5.956   6.610  0.1650 -0.1284  0.0178
 5618W        W 5618   6.905  10.310   6.930  0.1423 -0.0576  0.1877
 5619W        W 5619   3.674   5.355   2.964  0.2682  0.0265  0.2041
 5620W        W 5620   1.268   0.252   7.472 -0.0774 -0.0088  0.1412
 5621W        W 5621   4.589   7.689   5.880 -0.0423  0.1587  0.1665
 5622W        W 5622   5.317   5.804   2.940 -0.1501  0.2864 -0.1637
 5623W        W 5623   9.962   6.522   3.269 -0.1202  0.0299 -0.0709
 5624W        W 5624   0.224   8.179   4.002  0.0252  0.0933 -0.1585
 5625W        W 5625   1.158   4.218   7.754 -0.2396  0.3013  0.0784
 5626W        W 5626   2.546   1.439   9.972 -0.0962  0.3369 -0.2643
 5627W        W 5627   3.668   1.740   5.563 -0.1302 -0.1982  0.0883
 5628W        W 5628   2.195   5.135   4.938 -0.1959  0.2557 -0.1934
 5629W        W 5629   4.836   4.207   9.330 -0.2481 -0.1479  0.0795
 5630W        W 5630   9.095   0.671   9.566  0.1428  0.1678  0.0005
 5631W        W 5631   0.616   7.770   8.369  0.0424  0.2264  0.0984
 5632W        W 5632   3.835   8.489   5.110 -0.0321 -0.1896  0.2604
 5633W        W 5633   1.922   4.573   3.469  0.2218 -0.1532 -0.0715
 5634W        W 5634   9.294   0.604   6.253  0.0527 -0.2669  0.0540
 5635W        W 5635   3.575   7.007   2.531  0.1334  0.2614 -0.2362
 5636W        W 5636   5.163   7.561   4.070  0.2783  0.0132 -0.1386
 5637W        W 5637   2.118   0.851   9.379  0.1606  0.0327  0.0041
 5638W        W 5638   0.301   0.127   6.290 -0.1371  0.1085  0.0000
 5639W        W 5639   9.231   8.633   5.154  0.2781  0.0329  0.0518
 5640W        W 5640   4.404  10.021   1.271 -0.2120 -0.0633 -0.4217
 5641W        W 5641   3.713   3.515   8.263  0.0957 -0.0884 -0.1960
 5642W        W 5642   0.703   6.139   4.169 -0.1036  0.1198 -0.1181
 5643W        W 5643   0.793   4.521   4.509  0.0953 -0.3153 -0.1486
 5644W        W 5644   2.398   7.323   4.872  0.1777 -0.2335 -0.1893
 5645W        W 5645   2.715   8.204   4.591  0.0291 -0.0381 -0.0669
 5646W        W 5646   8.324   2.922   1.221 -0.1900  0.0443  0.0628
 5647W        W 5647   5.196   8.736   1.736 -0.0421 -0.1874 -0.1005
 5648W        W 5648   1.312   6.117   2.774 -0.1811 -0.2209 -0.1011
 5649W        W 5649   5.370   7.756   3.565  0.1831  0.4206 -0.1803
 5650W        W 5650   3.662   0.551   4.433  0.2946  0.0710  0.0276
 5651W        W 5651   9.611   4.903   7.404 -0.0119 -0.0565 -0.1249
 5652W        W 5652   7.139   1.736   0.787 -0.6272  0.2001 -0.0212
 5653W        W 5653   3.086   1.005   3.373 -0.2036 -0.0188  0.1897
 5654W        W 5654   5.512  10.278   8.515  0.3378  0.1620 -0.0016
 5655W        W 5655  10.018   1.640   0.314 -0.0030  0.0171 -0.5038
 5656W        W 5656   4.082   2.722   0.236 -0.0766  0.0997  0.0958
 5657W        W 5657   9.957   2.091   2.737 -0.2798  0.0409 -0.0565
 5658W        W 5658   0.308   6.372   5.066 -0.0428 -0.2840  0.2389
 5659W        W 5659   0.030   6.635   1.946 -0.0118 -0.0240 -0.0955
 5660W        W 5660   5.774   4.639   8.605  0.0246 -0.1695  0.1323
 5661W        W 5661   5.657   4.677   0.846 -0.1915 -0.2850  0.0986
 5662W        W 5662   9.720   1.228   5.894 -0.2423 -0.1151  0.0515
 5663W        W 5663   7.498   9.931   6.043  0.0253  0.1754  0.0943
 5664W        W 5664   1.835   3.486   5.848  0.1518 -0.1229  0.1255
 5665W        W 5665   1.916   9.431   5.371 -0.1080  0.1000 -0.0967
 5666W        W 5666   0.132   0.873   9.963  0.0644  0.1455  0.1608
 5667W        W 5667   5.742   7.171   7.748 -0.1667  0.0386  0.0944
 5668W        W 5668   9.687   9.804   6.584 -0.3288  0.1223  0.0564
 5669W        W 5669   2.392   8.502   7.529  0.0420 -0.1157 -0.2262
 5670W        W 5670   2.498   2.431   9.807  0.0600 -0.2757 -0.1427
 5671W        W 5671   0.234   0.501   0.076  0.0040  0.1582 -0.2932
 5672W        W 5672   2.758   1.978   5.666  0.0381  0.2669  0.2217
 5673W        W 5673   6.300   6.970   9.591 -0.0159 -0.0038 -0.0390
 5674W        W 5674   9.970  10.251   8.779  0.1828 -0.2302 -0.1360
 5675W        W 5675   1.383   3.800   9.046 -0.1265  0.2759  0.1422
 5676W        W 5676   5.551   4.695   6.222 -0.0128 -0.2631  0.4353
 5677W        W 5677   7.998   3.757   2.940 -0.0670  0.1456  0.2684
 5678W        W 5678   5.913   4.250   7.649  0.1501 -0.1446  0.1030
 5679W        W 5679   9.579   9.902   9.868  0.3238 -0.0022  0.1596
 5680W        W 5680   4.238   1.250   3.901 -0.1104 -0.3070  0.1137
 5681W        W 5681   4.786   8.618   8.260 -0.2379  0.1762 -0.0998
 5682W        W 5682   8.756   9.119   6.449 -0.1325 -0.1917 -0.3262
 5683W        W 5683   8.315   3.970   6.854 -0.3822  0.0981 -0.3062
 5684W        W 5684   8.561   4.366   5.671  0.2238  0.0015  0.0446
 5685W        W 5685   2.994   5.611   4.529  0.1871 -0.0252  0.0331
 5686W        W 5686   0.667   6.907   2.391 -0.1204  0.0007  0.1822
 5687W        W 5687   7.782   7.783   7.748  0.0983 -0.1107  0.3157
 5688W        W 5688   0.312   9.895   4.653 -0.0902 -0.0058 -0.0833
 5689W        W 5689   6.627   5.575   4.906 -0.0641 -0.0771  0.2247
 5690W        W 5690   0.354   6.830  10.063  0.0062  0.1786  0.1242
 5691W        W 5691  10.269   9.286   0.925  0.0600  0.0456  0.0444
 5692W        W 5692   6.796   1.309   2.962 -0.1904 -0.1933 -0.0339
 5693W        W 5693  10.238   6.544   6.540 -0.1665 -0.1150 -0.1331
 5694W        W 5694   2.952   3.710   0.718  0.1297  0.1997  0.0427
 5695W        W 5695  10.152   8.276   4.913  0.4395  0.2269 -0.0925
 5696W        W 5696   6.737   7.758   4.902 -0.4950  0.1883 -0.0275
 5697W        W 5697   0.740   8.531   5.349  0.1171 -0.0050  0.1198
 5698W        W 5698   3.450   9.537   0.526  0.2659 -0.0280 -0.2638
 5699W        W 5699   5.689   7.696   4.686  0.5200  0.0532  0.3073
 5700W        W 5700   5.766   4.256   8.241  0.1315  0.1128 -0.3741
 5701W        W 5701   9.601   7.014   5.804 -0.0072  0.0680  0.0111
 5702W        W 5702   1.865   8.190   3.574 -0.2522  0.1852 -0.1600
 5703W        W 5703   0.162   7.368   4.102  0.1939  0.1197  0.1854
 5704W        W 5704   2.859   7.198   5.593 -0.0062  0.1999  0.0002
 5705W        W 5705   8.034   2.002   2.746  0.0590  0.2386  0.0513
 5706W        W 5706   6.307   9.562   4.488  0.1694 -0.2976 -0.0592
 5707W        W 5707   4.451   9.981   1.921  0.1122 -0.1472 -0.2286
 5708W        W 5708   3.855   2.525   5.741 -0.1112  0.1863 -0.0308
 5709W        W 5709   2.715   8.200   6.025  0.2254  0.2915 -0.0986
 5710W        W 5710   0.730   2.384   8.445 -0.0776  0.1238 -0.1977
 5711W        W 5711   3.799   3.616   9.546 -0.0762  0.0145  0.0798
 5712W        W 5712   2.528   7.113   5.920  0.1001  0.2153 -0.0213
 5713W        W 5713   9.715   0.267   6.207 -0.2599 -0.0435  0.1737
 5714W        W 5714   7.465   6.278   7.967  0.1471 -0.0845 -0.1354
 5715W        W 5715   6.024   8.699   8.265  0.0292 -0.1608 -0.2317
 5716W        W 5716   9.494   5.201   5.817  0.1591 -0.1589 -0.0880
 5717W        W 5717   1.158   6.913   3.752 -0.1400  0.0033  0.1718
 5718W        W 5718  10.253  10.202   1.580 -0.1103  0.1894 -0.0396
 5719W        W 5719   1.822   0.056   2.045 -0.0921 -0.0126 -0.3024
 5720W        W 5720   2.462   6.887   4.635  0.0674  0.0251 -0.2677
 5721W        W 5721   1.056   8.121   5.479  0.0648  0.0445 -0.1474
 5722W        W 5722   9.709   9.160   8.259 -0.0291 -0.1870 -0.2932
 5723W        W 5723   3.496   0.732   2.017 -0.1191 -0.0519 -0.1772
 5724W        W 5724   3.142   5.713   0.135 -0.1094  0.1666  0.0142
 5725W        W 5725   9.914   5.886   7.677 -0.1264  0.0642  0.1893
 5726W        W 5726   2.323   7.687   8.871  0.1214  0.2000  0.2823
 5727W        W 5727   1.242   3.254   1.111  0.1293 -0.0720  0.0430
 5728W        W 5728   7.991   4.604   5.222  0.1998 -0.2373  0.0943
 5729W        W 5729   9.137   1.296   6.963  0.0704 -0.3211 -0.2991
 5730W        W 5730   9.745   3.805   1.586 -0.0671  0.2457  0.3918
 5731W        W 5731   9.873   5.985   3.679 -0.3524 -0.1678  0.2273
 5732W        W 5732   3.562   8.511   3.162 -0.1788 -0.1741  0.0709
 5733W        W 5733   7.170   1.177   6.924  0.1105 -0.0614  0.1419
 5734W        W 5734   8.130   4.609   5.675  0.2309 -0.0349 -0.2479
 5735W        W 5735  10.228   8.356   0.196 -0.2353  0.2125  0.0014
 5736W        W 5736   5.278   0.418   9.673  0.4360  0.2297  0.0940
 5737W        W 5737   1.971   4.494   9.510  0.0339 -0.1550 -0.0854
 5738W        W 5738   5.223   4.896   5.932  0.2188 -0.0212  0.0883
 5739W        W 5739   8.224   1.709   6.407 -0.2013  0.1704  0.0925
 5740W        W 5740   9.142   4.566   9.316  0.0907  0.1328  0.0891
 5741W        W 5741   4.680   2.911   9.761  0.0860  0.1042 -0.1562
 5742W        W 5742   1.899   9.302   9.779  0.0969  0.1434  0.1774
 5743W        W 5743   0.164   2.969   3.453  0.0123 -0.1833 -0.1877
 5744W        W 5744   3.477   8.499   1.476 -0.1480 -0.1386  0.0620
 5745W        W 5745   7.043   2.780   3.303  0.0275 -0.1335 -0.0135
 5746W        W 5746   2.677   9.035   5.783 -0.0387  0.0500 -0.3759
 5747W        W 5747   7.012   0.996   3.310  0.1270 -0.0641  0.0355
 5748W        W 5748   2.986   6.072   4.634 -0.0613 -0.3269 -0.0351
 5749W        W 5749   2.712   6.493   4.865 -0.0686 -0.2356  0.2314
 5750W        W 5750   4.252   8.881   8.989 -0.3689  0.1359 -0.2079
 5751W        W 5751   4.580   9.816   9.874  0.0873  0.3740  0.1225
 5752W        W 5752   5.577   6.787   6.326 -0.1047 -0.4357  0.0024
 5753W        W 5753   3.605   4.906   3.925  0.2127  0.2024 -0.1094
 5754W        W 5754   7.790   8.472   3.011  0.2224  0.1550  0.0555
 5755W        W 5755   2.615   8.658   0.355 -0.1851 -0.1116 -0.0727
 5756W        W 5756   2.611   8.746  10.159 -0.3229  0.3757  0.0884
 5757W        W 5757   2.629   3.885   3.551  0.0354  0.0858  0.1048
 5758W        W 5758   7.023   0.958   7.897 -0.1997 -0.4701 -0.2007
 5759W        W 5759   6.425   8.187   6.105 -0.2447  0.2508  0.0497
 5760W        W 5760   5.239   1.577   3.936  0.2567  0.2107  0.2161
 5761W        W 5761   7.930   0.813   5.638 -0.3049  0.1628 -0.4131
 5762W        W 5762   1.113   8.748   6.277 -0.1037  0.0408  0.0309
 5763W        W 5763   7.286   5.128   5.404 -0.3597  0.0263  0.0457
 5764W        W 5764   3.201   7.621   1.449  0.1902  0.0414 -0.2889
 5765W        W 5765   2.483   3.809   6.581  0.0175  0.1768  0.2040
 5766W        W 5766   8.413   0.843  10.220 -0.2453 -0.1735 -0.5164
 5767W        W 5767   4.801   2.246  10.047  0.1878 -0.2087 -0.0182
 5768W        W 5768   5.851   3.503   6.843  0.4532  0.2909  0.1273
 5769W        W 5769   0.213   3.616   9.603 -0.0587 -0.0878 -0.3226
 5770W        W 5770   9.159   2.493   3.107 -0.1191 -0.2035 -0.0417
 5771W        W 5771   0.314   4.968   2.628  0.3433 -0.0034 -0.1843
 5772W        W 5772   4.443   6.640   8.180 -0.0272  0.2833  0.1060
 5773W        W 5773   7.775   3.897   6.343 -0.0278  0.1208  0.1796
 5774W        W 5774   4.461   4.037   8.981 -0.2529  0.1588 -0.2351
 5775W        W 5775   0.807   5.745   3.524  0.2360 -0.0283  0.1287
 5776W        W 5776   7.555   3.141   1.536  0.0328  0.1090 -0.0438
 5777W        W 5777   6.014   8.061   9.098  0.0964  0.2209 -0.0471
 5778W        W 5778   6.233   5.710   4.455  0.0052  0.0241 -0.0060
 5779W        W 5779   9.725   0.188  10.147  0.4565 -0.1110 -0.0767
 5780W        W 5780   9.393   2.809   8.565  0.1199 -0.2864 -0.0331
 5781W        W 5781   7.746   2.260   1.018  0.2525 -0.1433  0.2043
 5782W        W 5782   2.381   1.786   5.445  0.1904 -0.0107 -0.2562
 5783W        W 5783  10.079   0.169   9.315 -0.0799 -0.0174  0.0605
 5784W        W 5784   8.145   8.957   8.515  0.0184 -0.1538  0.0475
 5785W        W 5785   4.430   1.433  10.337  0.2632  0.1127 -0.3206
 5786W        W 5786   7.760   1.613   0.218 -0.0368  0.1771  0.5225
 5787W        W 5787   3.874   3.886   3.328  0.2086  0.2198  0.3278
 5788W        W 5788   1.994   4.407   8.589  0.0236  0.0656  0.0646
 5789W        W 5789  10.096   7.542   6.529 -0.1108 -0.2566  0.1674
 5790W        W 5790   8.465   4.920   3.528 -0.0642  0.0768 -0.1002
 5791W        W 5791   0.326   4.616   7.939 -0.0962  0.0179  0.0455
 5792W        W 5792   5.130   0.155   7.309  0.0494  0.3634  0.2375
 5793W        W 5793   5.914   4.131   3.582  0.2669  0.0437 -0.0459
 5794W        W 5794   0.220   4.658   5.615 -0.0413 -0.0156 -0.2760
 5795W        W 5795   9.637  10.188   9.186  0.1624  0.1891 -0.2200
 5796W        W 5796   3.612   9.566  10.026  0.0244 -0.1366  0.0176
 5797W        W 5797   5.530   0.632   4.273 -0.0556  0.2266  0.2905
 5798W        W 5798   5.063  10.170   6.057  0.1544  0.0836 -0.1508
 5799W        W 5799   5.386   8.188   7.138 -0.3048 -0.1641 -0.1496
 5800W        W 5800   3.086   6.545   3.103 -0.0853 -0.0661 -0.1881
 5801W        W 5801   1.087   3.042   8.921 -0.2674  0.2217  0.0093
 5802W        W 5802   8.854   1.176   5.472  0.0755  0.3064  0.1653
 5803W        W 5803   8.670   8.399   9.960 -0.0676 -0.2033 -0.0430
 5804W        W 5804   3.844   3.678   3.849  0.2487 -0.3318  0.1009
 5805W        W 5805   1.469   7.193   4.497  0.0993 -0.1704 -0.1068
 5806W        W 5806   8.521   0.364   2.114 -0.3938  0.1337  0.1935
 5807W        W 5807   1.161   0.882   2.363 -0.1371 -0.0943 -0.0939
 5808W        W 5808   9.551   0.076   3.912 -0.0183  0.1209 -0.0063
 5809W        W 5809   5.928   0.898   4.267 -0.0406  0.0768  0.3481
 5810W        W 5810   4.883   3.625   9.178  0.1840 -0.2785  0.0317
 5811W        W 5811   4.849   4.175   3.743  0.3398  0.2839  0.3109
 5812W        W 5812   7.558   8.212   0.163 -0.0424 -0.2339  0.2424
 5813W        W 5813   6.204   4.418   6.184  0.0897  0.0344 -0.0638
 5814W        W 5814   1.680   3.231   5.018 -0.0720  0.1447 -0.2728
 5815W        W 5815   1.704   8.389   2.181 -0.0081 -0.1072 -0.0085
 5816W        W 5816   1.270  10.086   6.111  0.2176  0.1911  0.4017
 5817W        W 5817   2.113   7.391   5.337  0.0246 -0.1190  0.1182
 5818W        W 5818   7.043   1.465   9.698  0.1755  0.0288 -0.3661
 5819W        W 5819   8.791   3.486   3.475  0.0482 -0.0424 -0.2673
 5820W        W 5820   7.656   7.865   5.807 -0.0673  0.2178 -0.1158
 5821W        W 5821   4.401   3.907   3.631  0.2217 -0.1734 -0.1479
 5822W        W 5822   3.350   7.591   6.124 -0.1493  0.3039  0.2431
 5823W        W 5823   5.169   2.056   5.440  0.3881 -0.0649  0.0802
 5824W        W 5824   8.391   8.171   3.272  0.1133 -0.1179  0.1268
 5825W        W 5825   8.180   8.642   4.295 -0.2576  0.3854  0.2508
 5826W        W 5826   7.238   3.451   2.516  0.0521  0.0079  0.0236
 5827W        W 5827   5.461   4.259   7.492  0.4867  0.5508 -0.1366
 5828W        W 5828   4.709   5.525   9.067  0.1609  0.0570 -0.0594
 5829W        W 5829   8.792   9.889   8.686 -0.0708  0.2694  0.2253
 5830W        W 5830   0.359   0.191   4.617 -0.0909  0.0416  0.0998
 5831W        W 5831   5.472   8.063   4.971  0.0237  0.2861 -0.2916
 5832W        W 5832   9.269   5.155   0.636  0.1384  0.0922  0.1500
 5833W        W 5833   8.762   1.292  10.048 -0.1081 -0.0511 -0.0777
 5834W        W 5834   1.150   0.181   1.706  0.0488  0.2489  0.0838
 5835W        W 5835   9.848  10.139   2.067 -0.0212 -0.1364  0.3608
 5836W        W 5836   7.041  10.107   9.144  0.0034 -0.1726 -0.1833
 5837W        W 5837   1.195   3.349   6.278 -0.0814  0.3985 -0.0851
 5838W        W 5838   2.114   0.482   1.784 -0.2183  0.0443 -0.1674
 5839W        W 5839   4.056   5.005   6.720  0.0761  0.1082  0.2476
 5840W        W 5840  10.227  10.015   0.591  0.0090  0.1392 -0.0845
 5841W        W 5841   8.756   0.129   6.182 -0.2486 -0.2367  0.0725
 5842W        W 5842   2.192   0.625   0.963 -0.2707  0.0373 -0.2124
 5843W        W 5843   0.838   0.753   1.501  0.0153  0.1995  0.0448
 5844W        W 5844   8.508   1.303   0.149 -0.3309 -0.0112  0.0711
 5845W        W 5845   2.630   5.093   3.715  0.1615  0.2467 -0.2709
 5846W        W 5846   6.583   4.635   0.763  0.1127 -0.0511  0.0718
 5847W        W 5847   1.120   7.621   8.463  0.0451  0.0466 -0.4963
 5848W        W 5848   1.014   0.603   8.238 -0.2883  0.0024 -0.0195
 5849W        W 5849   4.202   8.989   6.773 -0.2447 -0.1923 -0.2527
 5850W        W 5850   6.648   6.509   6.876 -0.3103 -0.0199  0.0578
 5851W        W 5851   3.159   0.212   0.775  0.2219  0.1695  0.0628
 5852W        W 5852   3.278   0.189   2.208  0.1793  0.0791 -0.2959
 5853W        W 5853   2.044   7.284   4.028  0.1328  0.2268  0.0010
 5854W        W 5854   0.069  10.125   9.139  0.0117 -0.3993  0.0476
 5855W        W 5855   8.828  10.290   4.349 -0.3707 -0.2563  0.1142
 5856W        W 5856   6.939   2.257   4.014 -0.1992 -0.1975 -0.1228
 5857W        W 5857   5.418   6.635   9.673  0.0644  0.3045  0.1155
 5858W        W 5858   8.057   3.185   1.604 -0.1928 -0.0114 -0.0327
 5859W        W 5859   8.483   9.248   8.305  0.1186  0.0477 -0.0330
 5860W        W 5860   1.049   8.827   9.713 -0.0715 -0.3231 -0.1238
 5861W        W 5861   2.482   5.033   2.303 -0.1783  0.2932  0.4827
 5862W        W 5862   8.957   0.247   1.296  0.0776 -0.1377 -0.1017
 5863W        W 5863   0.468  10.054   0.541  0.2057 -0.1604 -0.0095
 5864W        W 5864   4.231   9.926   8.091 -0.0121 -0.0652  0.1658
 5865W        W 5865   1.566   8.879   4.684  0.1812 -0.0393 -0.1261
 5866W        W 5866   5.616   6.825   6.838  0.0206  0.1073 -0.2229
 5867W        W 5867   2.283   7.346   7.354 -0.2253  0.3419  0.1477
 5868W        W 5868   3.339   8.150  10.289  0.0986 -0.0078 -0.0515
 5869W        W 5869   8.290   8.877   2.720  0.0970 -0.2256  0.1491
 5870W        W 5870   8.901   1.250   9.351  0.1030  0.2817  0.0177
 5871W        W 5871   6.522   4.270   8.261 -0.4752  0.0434  0.0658
 5872W        W 5872   7.221   7.873   0.367  0.0149  0.3299  0.0671
 5873W        W 5873   2.550   5.692   6.866  0.0291  0.1418 -0.1103
 5874W        W 5874   8.095   7.863   8.119  0.0931  0.0732  0.0057
 5875W        W 5875   1.899   3.483   8.261  0.1749 -0.0566  0.0938
 5876W        W 5876   2.665   9.942   1.255  0.0888  0.0858  0.0339
 5877W        W 5877   7.160   9.530   2.638  0.2093 -0.1041 -0.1279
 5878W        W 5878   2.855   1.062   9.989 -0.4554  0.2102  0.0029
 5879W        W 5879   4.957   5.345   6.630 -0.0071 -0.2634 -0.0470
 5880W        W 5880   7.400   2.497   4.090 -0.2204  0.2566  0.1259
 5881W        W 5881   2.338   6.692   5.109 -0.0704  0.0795  0.0178
 5882W        W 5882   2.122   3.217   1.512  0.0322 -0.2906  0.0422
 5883W        W 5883  10.043   6.869   7.521  0.1896 -0.2538 -0.2011
 5884W        W 5884   6.637   5.581   1.532 -0.1706  0.0004 -0.1283
 5885W        W 5885   6.762   2.946   9.462 -0.0357 -0.0651  0.0939
 5886W        W 5886   3.386   6.797   8.687 -0.0539 -0.0733  0.1060
 5887W        W 5887   1.503   6.229   3.290 -0.0917 -0.1126  0.0500
 5888W        W 5888   9.236   9.658   5.080  0.1132  0.1039  0.1398
 5889W        W 5889   4.380   4.454   3.739  0.1430 -0.0075  0.0253
 5890W        W 5890   4.807   8.277   9.461  0.1633  0.0739 -0.1906
 5891W        W 5891   8.592   6.043   8.506 -0.0079 -0.0922 -0.0559
 5892W        W 5892   1.387   4.105   6.225 -0.0876  0.1200 -0.1156
 5893W        W 5893   0.575   5.379   7.565 -0.0458  0.1377 -0.0033
 5894W        W 5894   3.142   3.704   4.519 -0.0283  0.2892  0.0302
 5895W        W 5895   8.813   4.662   7.968 -0.0118  0.2152 -0.0838
 5896W        W 5896   0.970   7.993   4.135  0.0188  0.1468 -0.2221
 5897W        W 5897   9.305   1.497   9.262 -0.0043  0.3858  0.1512
 5898W        W 5898   6.808   1.367   7.791 -0.2316  0.3042 -0.1837
 5899W        W 5899   6.791   9.227   9.052  0.4767 -0.1588  0.1512
 5900W        W 5900   8.290   6.376   9.296  0.1558  0.2127  0.0165
 5901W        W 5901   2.466   6.543   3.881  0.2115 -0.0761 -0.1813
 5902W        W 5902   4.772   4.729   1.453  0.0918  0.2015  0.0303
 5903W        W 5903   9.389   9.996   5.375  0.3356 -0.0409 -0.0824
 5904W        W 5904   4.146   8.685   2.684  0.1877 -0.2456  0.3119
 5905W        W 5905   6.706   7.017   1.102  0.2692 -0.0546  0.0317
 5906W        W 5906   0.963   9.260   9.962  0.0045 -0.0299  0.0196
 5907W        W 5907   1.663   1.130   1.470  0.0043  0.1126 -0.0841
 5908W        W 5908   8.957   9.767   1.186  0.0538  0.1887  0.4088
 5909W        W 5909   3.459   5.442   5.517  0.2910  0.2452 -0.1388
 5910W        W 5910   3.125   1.465   6.937 -0.2490 -0.0308 -0.1469
 5911W        W 5911   9.777   9.440   1.047 -0.0312  0.0381  0.2605
 5912W        W 5912   5.745   4.115   5.375  0.2080 -0.1734 -0.0708
 5913W        W 5913   6.493   7.825   6.994  0.4400  0.0080  0.1544
 5914W        W 5914   8.622   7.154   1.507  0.0947 -0.1893 -0.1703
 5915W        W 5915   2.066   1.817   4.812 -0.0065  0.1247 -0.0848
 5916W        W 5916   1.215   1.415   1.628  0.0021  0.3013  0.3254
 5917W        W 5917   4.812   7.202   5.065  0.2630  0.1282  0.1341
 5918W        W 5918   5.121   2.879   0.766 -0.0963  0.1331  0.1777
 5919W        W 5919   3.101   7.408   7.858 -0.0294 -0.0715  0.0628
 5920W        W 5920   1.978   0.248   5.510  0.1437 -0.0325  0.4236
 5921W        W 5921   9.206   2.222   4.528 -0.0737  0.0017  0.0492
 5922W        W 5922   1.204   6.059   1.493  0.4789 -0.1499 -0.3936
 5923W        W 5923   6.043   8.211   0.698  0.2937 -0.0543 -0.1013
 5924W        W 5924   0.490   5.762   3.921 -0.4075  0.2292 -0.0701
 5925W        W 5925   5.676   2.720   6.763  0.0810 -0.0224 -0.3316
 5926W        W 5926  10.016   3.678   1.171  0.0566 -0.2471  0.1228
 5927W        W 5927   8.198   4.264   7.282  0.0975  0.1768  0.1372
 5928W        W 5928   8.532   1.242   5.117  0.0121 -0.0415  0.1519
 5929W        W 5929  10.220   3.237  10.233 -0.2703 -0.0140 -0.2019
 5930W        W 5930   4.218   5.842   1.887 -0.2641 -0.1698  0.0428
 5931W        W 5931   4.574   3.771   1.072 -0.0505 -0.1563  0.0977
 5932W        W 5932   6.845   7.960   3.163  0.1572 -0.2034 -0.0517
 5933W        W 5933   7.845   2.352   2.245 -0.0635  0.1516  0.0028
 5934W        W 5934   1.164   9.516   4.485  0.2116 -0.0127  0.0373
 5935W        W 5935   3.644   3.501   5.952 -0.1756  0.1256 -0.1259
 5936W        W 5936   1.772   5.936   1.358  0.1564 -0.3913 -0.0263
 5937W        W 5937   6.841   2.295   3.330  0.0441 -0.2535  0.1458
 5938W        W 5938   3.938   7.855  10.120 -0.3614  0.3010 -0.0394
 5939W        W 5939   0.895   0.898   6.624  0.1114 -0.1277  0.3909
 5940W        W 5940   6.158   2.686   4.119  0.1323  0.2394  0.0721
 5941W        W 5941   2.444   0.577   0.408 -0.3131 -0.0178 -0.0761
 5942W        W 5942   1.668  10.183   2.465  0.0882  0.0767  0.0503
 5943W        W 5943   9.171   8.436   9.911 -0.1064 -0.0495  0.0034
 5944W        W 5944   2.196   8.398   3.856 -0.0498  0.0913  0.0653
 5945W        W 5945   3.146  10.137   2.473 -0.0581  0.0539 -0.1793
 5946W        W 5946   0.048   6.262   4.618 -0.1406  0.2231 -0.0599
 5947W        W 5947   3.492  10.119   4.791 -0.0978  0.1408  0.0493
 5948W        W 5948   3.050   5.401   9.826  0.0582 -0.0426 -0.3868
 5949W        W 5949   7.496   7.077   2.275 -0.1920 -0.2892  0.1080
 5950W        W 5950   8.324   2.191   8.889  0.0347 -0.2093 -0.1101
 5951W        W 5951   8.767   8.057   3.539  0.0396  0.1309 -0.0003
 5952W        W 5952   8.854   2.303   5.817 -0.1441  0.3913  0.0865
 5953W        W 5953   3.569   2.780   0.316 -0.1863 -0.0322  0.0144
 5954W        W 5954  10.001   3.614   4.140 -0.1132 -0.0288 -0.2297
 5955W        W 5955   9.826   9.418   8.655 -0.1503  0.2194  0.0553
 5956W        W 5956   0.274   5.671   6.870  0.1954 -0.1118  0.1765
 5957W        W 5957   2.499   1.932   6.912 -0.1169 -0.1403  0.4177
 5958W        W 5958   3.401   8.038   3.677 -0.3774  0.1287 -0.0340
 5959W        W 5959   6.545   3.443   4.482 -0.1195 -0.0198 -0.0048
 5960W        W 5960   9.422   5.538   9.252 -0.0183 -0.1388 -0.2865
 5961W        W 5961   1.120   0.020   5.697 -0.1107  0.2789 -0.1513
 5962W        W 5962   6.884   2.864   5.802  0.0770  0.0625  0.1939
 5963W        W 5963   2.450   9.449   8.403  0.1122  0.1265 -0.1402
 5964W        W 5964   7.866   9.257   5.468  0.1102 -0.1568  0.1594
 5965W        W 5965   0.596   8.893   9.482  0.1560 -0.1915 -0.1878
 5966W        W 5966   1.492   3.600   6.538  0.0181  0.0429  0.3746
 5967W        W 5967   8.656   9.040   3.426  0.2628 -0.4994 -0.1356
 5968W        W 5968   0.615  10.146   4.940 -0.1076 -0.3003 -0.2010
 5969W        W 5969   3.364   0.188   5.159 -0.1001  0.0771  0.1173
 5970W        W 5970   5.058   8.372   1.465 -0.1977  0.2168 -0.1862
 5971W        W 5971   5.793   1.316   6.689 -0.1446 -0.2697 -0.0490
 5972W        W 5972   4.956   9.642   9.499 -0.0861 -0.0071 -0.1674
 5973W        W 5973   5.742   2.749   6.314 -0.0318  0.3493  0.3229
 5974W        W 5974   2.795   6.918   0.624 -0.0339 -0.3049  0.0703
 5975W        W 5975   0.632   1.218   9.993 -0.1061 -0.1180 -0.1091
 5976W        W 5976   8.873   4.921   3.177 -0.0450 -0.1737 -0.1556
 5977W        W 5977   0.211   5.904  10.112 -0.2129  0.0992  0.1944
 5978W        W 5978   1.343  10.228   1.316  0.0346 -0.1525  0.0103
 5979W        W 5979   6.823   2.877   6.350 -0.2004 -0.2215 -0.1886
 5980W        W 5980   5.323   0.475   8.393  0.1415 -0.0444  0.1694
 5981W        W 5981   5.553   0.176   5.512  0.1340  0.0324  0.1524
 5982W        W 5982   3.653   7.661   1.181  0.1700 -0.0996 -0.0263
 5983W        W 5983   8.700   3.994   0.154 -0.0010 -0.0265  0.1290
 5984W        W 5984   7.440   7.576   9.856  0.1861  0.2649 -0.0046
 5985W        W 5985   4.311   2.005   4.659 -0.0563  0.2016 -0.1623
 5986W        W 5986   1.023   1.388   2.214 -0.2065 -0.0750  0.1972
 5987W        W 5987   9.384  10.188   3.483  0.1804  0.0095 -0.2373
 5988W        W 5988   4.612   9.713   0.940  0.1892  0.0897  0.2512
 5989W        W 5989   8.972   4.877   6.424 -0.0400 -0.3272 -0.1784
 5990W        W 5990   4.891   5.665   0.900 -0.0069 -0.1744 -0.0028
 5991W        W 5991   2.133   1.755   2.184 -0.0095  0.1636  0.0027
 5992W        W 5992   5.335   4.563  10.173  0.1344  0.0305 -0.1001
 5993W        W 5993   2.374   7.824   5.233 -0.1082  0.0701  0.0514
 5994W        W 5994   5.958   6.796   5.622 -0.4595  0.1028  0.1925
 5995W        W 5995   4.615   7.320   6.265  0.0773  0.2312 -0.0320
 5996W        W 5996   7.763   7.571   8.906 -0.4109  0.0043  0.2549
 5997W        W 5997   4.780   2.204   4.441 -0.1986  0.3202 -0.0994
 5998W        W 5998   8.013   5.537   9.461  0.2200 -0.2326  0.1874
 5999W        W 5999   5.834   5.077   0.540  0.2903  0.2038  0.1114
 6000W        W 6000   1.627   4.153   8.751  0.1224 -0.1359 -0.0484
 6001W        W 6001   2.852   9.260  10.011 -0.0167 -0.0914  0.1316
 6002W        W 6002   0.103   2.750   8.971  0.0156 -0.2249  0.2903
 6003W        W 6003   1.271   4.251   9.090  0.1901 -0.2702  0.1852
 6004W        W 6004   3.405   8.521   8.008  0.0735 -0.2383 -0.0579
 6005W        W 6005   3.791   6.386   5.453 -0.4420 -0.2043  0.0173
 6006W        W 6006   6.270   1.303   0.839  0.1214 -0.1998  0.5079
 6007W        W 6007   9.238   3.259   3.328  0.1985  0.0299 -0.1004
 6008W        W 6008   7.079   9.333   3.248  0.2628 -0.0011 -0.3465
 6009W        W 6009   7.370   7.614   7.441  0.2527  0.0209 -0.1953
 6010W        W 6010   3.933   7.722   0.294 -0.0010 -0.2384  0.2305
 6011W        W 6011   7.169   0.143   4.680  0.1285  0.2549 -0.2252
 6012W        W 6012   6.126   7.114   0.439  0.2671 -0.0801  0.4022
 6013W        W 6013   0.418   7.447   6.544 -0.0481  0.0727  0.2198
 6014W        W 6014   1.903   5.327   6.469  0.1664  0.2525 -0.0988
 6015W        W 6015  10.334   0.302   1.350 -0.0481  0.0392  0.1597
 6016W        W 6016   9.108   7.511   7.801  0.0430  0.0739  0.2109
 6017W        W 6017  10.099   9.305   5.186 -0.0062  0.2032 -0.0345
 6018W        W 6018   7.139   0.734   4.653  0.1110  0.0544  0.4471
 6019W        W 6019   1.406   2.688   0.387  0.0256  0.0293  0.1170
 6020W        W 6020   9.971   2.967   5.468 -0.2562  0.0604 -0.0105
 6021W        W 6021   3.124   0.783   5.871  0.0172 -0.1345  0.0211
 6022W        W 6022   3.333   3.784   1.107  0.0026  0.3670  0.2661
 6023W        W 6023   1.532   5.494   1.171 -0.0273 -0.0267 -0.0688
 6024W        W 6024   4.226   9.869   0.605  0.2024 -0.0475  0.0289
 6025W        W 6025   1.169   8.971   2.341  0.2092  0.2283  0.2893
 6026W        W 6026   4.430   2.117   5.095  0.1094 -0.0118 -0.3153
 6027W        W 6027   2.287   8.981   6.165  0.0588 -0.0328  0.1740
 6028W        W 6028   3.119   2.983   9.716  0.1958  0.0519 -0.1434
 6029W        W 6029   8.491   1.392   9.594  0.4215  0.4085 -0.2731
 6030W        W 6030   3.266   7.605   3.271  0.1096  0.0915 -0.2051
 6031W        W 6031   3.286   2.350   7.285 -0.0909  0.3480  0.0269
 6032W        W 6032   5.404   2.160   0.292 -0.0321  0.0892  0.3171
 6033W        W 6033   8.379   4.277   3.421 -0.1135  0.1160  0.4479
 6034W        W 6034   8.450   8.033   1.810  0.0104  0.0799  0.2299
 6035W        W 6035   2.173   4.750   8.012 -0.0481 -0.0798  0.0320
 6036W        W 6036   2.106   6.340   3.106  0.2038 -0.0273  0.2500
 6037W        W 6037   9.047   7.889   8.142 -0.2750 -0.0875  0.1869
 6038W        W 6038   1.045   0.398  10.129  0.2154  0.1149 -0.0578
 6039W        W 6039   2.871   2.558   2.645 -0.0705  0.2272  0.1167
 6040W        W 6040   0.602   6.742   9.075  0.2462 -0.1303  0.0326
 6041W        W 6041   6.812   3.856   5.492  0.1484 -0.1121 -0.1990
 6042W        W 6042  10.043   0.330   0.203 -0.0937  0.2506  0.0197
 6043W        W 6043   8.053   2.653   0.931  0.2551 -0.0499  0.2171
 6044W        W 6044   4.051   0.945   6.359 -0.0907 -0.0655 -0.0996
 6045W        W 6045   1.593   7.561   6.805 -0.1779 -0.1131  0.1354
 6046W        W 6046   3.809   9.661   0.240 -0.0659  0.0825 -0.1429
 6047W        W 6047   5.100   9.332   5.715 -0.0021  0.0662  0.3693
 6048W        W 6048   7.404   6.604   8.936 -0.3154 -0.0042 -0.0426
 6049W        W 6049   4.673   8.729   9.196 -0.0690  0.1537  0.2564
 6050W        W 6050   6.925   3.604   9.882  0.3019 -0.1949  0.2633
 6051W        W 6051   5.255   3.010   0.091 -0.1261 -0.2253  0.2104
 6052W        W 6052   1.953   3.176   5.453 -0.1019 -0.3879  0.2512
 6053W        W 6053   9.479   3.411   2.258 -0.2584 -0.0719 -0.1690
 6054W        W 6054   8.379   3.789   7.510  0.0736 -0.0955  0.1439
 6055W        W 6055   1.190  10.150   9.318 -0.0113  0.1697 -0.0602
 6056W        W 6056   0.795  10.292   3.178  0.0878 -0.1043 -0.1950
 6057W        W 6057   7.795   7.067   8.298  0.0837  0.0144  0.0223
 6058W        W 6058   3.831   2.029   2.394 -0.1563 -0.2158  0.1165
 6059W        W 6059   7.317   8.752   9.453 -0.0718  0.0963  0.0809
 6060W        W 6060   1.684   0.886   6.132 -0.1728 -0.0242 -0.1740
 6061W        W 6061   0.044   7.663   8.069 -0.0306  0.0790  0.1447
 6062W        W 6062   1.049   9.324   5.434  0.1830  0.2288 -0.1740
 6063W        W 6063   7.254   2.212   7.840 -0.1199  0.3783  0.0816
 6064W        W 6064   9.010   1.527   7.395  0.2673 -0.4654  0.3709
 6065W        W 6065   3.663   2.215  10.140 -0.1634  0.2652  0.0365
 6066W        W 6066   9.985   0.306   1.699  0.0495  0.1958 -0.0549
 6067W        W 6067   3.590   8.852   2.725 -0.1484 -0.0493  0.2896
 6068W        W 6068   2.342   6.994   8.133 -0.3534 -0.1449 -0.0329
 6069W        W 6069   8.677   5.059   6.744  0.0353  0.2173  0.1703
 6070W        W 6070   8.318   4.606   6.102 -0.3662 -0.1962 -0.1785
 6071W        W 6071   9.286   3.961   5.155 -0.1309 -0.2654 -0.1901
 6072W        W 6072   7.299   2.455   9.306  0.1204 -0.1723 -0.2387
 6073W        W 6073   1.707   6.527   8.868 -0.0748  0.0280 -0.1961
 6074W        W 6074   5.155   4.570   3.744  0.2632 -0.0771  0.2157
 6075W        W 6075   9.107   0.302   4.071 -0.2617 -0.0104 -0.0711
 6076W        W 6076   2.646   3.368   6.624 -0.1755 -0.2573 -0.0064
 6077W        W 6077   8.987   5.989   1.932  0.0385  0.1622 -0.3236
 6078W        W 6078   4.120   1.962   5.891 -0.2172  0.2111 -0.2721
 6079W        W 6079   6.349   2.429   2.459 -0.0943 -0.1282  0.0619
 6080W        W 6080   4.806   6.065   9.171  0.1344 -0.1808  0.1311
 6081W        W 6081   7.929   3.554   0.617  0.1134  0.1661 -0.2145
 6082W        W 6082   0.065   0.973   6.556 -0.0626 -0.0108 -0.3553
 6083W        W 6083   3.534   2.439   5.273  0.3979  0.0093  0.0815
 6084W        W 6084   6.269   0.731   2.085  0.0500 -0.1229  0.0655
 6085W        W 6085   6.666   0.162   2.902 -0.1548 -0.0973  0.2968
 6086W        W 6086   6.069   4.912   1.039  0.0418  0.2291  0.0434
 6087W        W 6087   8.326   1.779   8.206  0.0841 -0.1404 -0.0923
 6088W        W 6088   8.528   3.387   4.562 -0.2933  0.3228  0.2239
 6089W        W 6089   7.188   6.214   1.012 -0.3129 -0.0921 -0.3060
 6090W        W 6090   4.430   1.225   3.394  0.1314 -0.1213  0.1187
 6091W        W 6091   0.638  10.095   5.840  0.0681 -0.2960 -0.1162
 6092W        W 6092   8.375   8.843   8.093 -0.3462 -0.0003 -0.0730
 6093W        W 6093   2.013   5.395   5.615  0.2882  0.0939  0.4241
 6094W        W 6094   8.997   5.140   6.000  0.1506 -0.1365  0.3801
 6095W        W 6095   3.922   9.990   5.095  0.2592 -0.1645  0.1281
 6096W        W 6096   7.230   0.293   7.203 -0.2211  0.0535 -0.0803
 6097W        W 6097   4.817   5.259   5.990 -0.1422 -0.1175  0.2832
 6098W        W 6098   7.712   0.485   0.700  0.0446  0.0854  0.1266
 6099W        W 6099  10.141   5.525   4.477 -0.1086  0.1764 -0.0981
 6100W        W 6100   5.224   8.868   5.322 -0.0698  0.0775  0.1130
 6101W        W 6101   7.369   9.257   5.362  0.0528  0.0087  0.2050
 6102W        W 6102   9.247   5.757   9.688  0.1586  0.0974 -0.1862
 6103W        W 6103   8.197   1.989   5.162 -0.0270  0.1140 -0.0554
 6104W        W 6104   4.937   8.014   7.034  0.1916 -0.1244 -0.0697
 6105W        W 6105   6.161   2.136   5.625  0.1725  0.3802  0.0479
 6106W        W 6106   5.028   9.369   9.947 -0.4924 -0.0333  0.2503
 6107W        W 6107   5.747   0.898   3.520 -0.0113 -0.1074  0.0682
 6108W        W 6108   6.315   3.295   2.194  0.1659  0.0131 -0.1728
 6109W        W 6109   4.807  10.184   0.987 -0.0285  0.0159 -0.2509
 6110W        W 6110   6.536   7.115   4.107 -0.2813  0.1148 -0.0568
 6111W        W 6111   5.824   9.239   2.285 -0.1989 -0.0727 -0.0300
 6112W        W 6112   6.286   1.083   8.194  0.2602  0.0149  0.1997
 6113W        W 6113   0.884   0.895   8.717 -0.0157 -0.0388  0.0483
 6114W        W 6114   2.317   0.513  10.183  0.0023 -0.2915 -0.0792
 6115W        W 6115   7.649   3.214   2.453 -0.5075  0.0429  0.1548
 6116W        W 6116   9.752   8.177   7.645  0.0991 -0.1719  0.1118
 6117W        W 6117  10.172   8.939   8.154 -0.0462 -0.2370  0.3240
 6118W        W 6118   1.883   7.994   8.090 -0.0867 -0.0494  0.1656
 6119W        W 6119   1.352   1.776   2.022  0.1550  0.0893 -0.0293
 6120W        W 6120   5.772   5.474   8.287  0.0410 -0.0713 -0.1239
 6121W        W 6121   5.350   6.035   1.292  0.0405  0.2019 -0.0662
 6122W        W 6122  10.023   7.841   5.383  0.1572 -0.0529  0.1052
 6123W        W 6123   2.107   8.439   5.268  0.1090  0.2513 -0.1895
 6124W        W 6124   9.384   9.864   7.898 -0.1777 -0.0733  0.3806
 6125W        W 6125   1.634   7.157   3.442  0.1227 -0.1372 -0.1416
 6126W        W 6126   6.026   9.381   4.167 -0.0564  0.0867 -0.2057
 6127W        W 6127   7.175   3.592   2.972 -0.1099  0.0718  0.1230
 6128W        W 6128   5.537   1.879   7.321 -0.0905 -0.1533  0.0950
 6129W        W 6129   7.531   2.766   1.160  0.0566 -0.0949  0.1243
 6130W        W 6130   7.965   8.213   4.449 -0.1645  0.0641  0.1937
 6131W        W 6131   2.108   1.352   5.908 -0.1531  0.1092  0.1532
 6132W        W 6132   3.065   1.056   0.969 -0.2125 -0.4228  0.1434
 6133W        W 6133   8.500   9.824   1.653 -0.1344  0.3174 -0.0022
 6134W        W 6134   1.862   1.296   2.247 -0.1014  0.3004  0.0142
 6135W        W 6135   4.525  10.207   4.186  0.3727  0.1278  0.0783
 6136W        W 6136   4.323   2.276   9.278 -0.2675 -0.0646  0.0884
 6137W        W 6137   4.086   1.068   2.549  0.3461 -0.2707  0.2446
 6138W        W 6138   4.450   6.270   1.099 -0.0664 -0.0140  0.1792
 6139W        W 6139   0.236   3.234   7.356 -0.0434  0.1917 -0.4276
 6140W        W 6140   2.818   0.536   9.908 -0.0387 -0.2183 -0.0075
 6141W        W 6141   1.248   0.982   1.185  0.0023 -0.1232 -0.0966
 6142W        W 6142   1.791   2.849   1.333  0.0379  0.0119 -0.1453
 6143W        W 6143   4.579   3.367   0.037 -0.0520  0.2622 -0.1882
 6144W        W 6144   9.751   4.567   8.235  0.2802 -0.2003 -0.0708
 6145W        W 6145   5.425   9.034   2.034  0.1240  0.2593 -0.0231
 6146W        W 6146  10.196   7.987   7.723 -0.0857 -0.0080  0.1274
 6147W        W 6147   5.641   1.108   5.777 -0.0385 -0.0148 -0.0259
 6148W        W 6148   9.444   5.779   7.433  0.0545 -0.0745  0.3431
 6149W        W 6149   5.111   0.954   2.248  0.1935 -0.1852  0.0101
 6150W        W 6150   6.229   5.457   1.253 -0.0801  0.2158  0.2864
 6151W        W 6151   9.836   6.954   5.331  0.0610 -0.0783 -0.0321
 6152W        W 6152   8.046   4.967   9.571  0.1581  0.1173  0.3682
 6153W        W 6153   2.488  10.008   2.960  0.1903  0.1289 -0.2700
 6154W        W 6154   1.562   1.905   1.506 -0.1390  0.0158 -0.1379
 6155W        W 6155   9.947   3.807   2.318  0.2063 -0.1862 -0.1978
 6156W        W 6156   8.341   6.379   6.590  0.1814 -0.3051  0.1197
 6157W        W 6157  10.335   1.370   0.891  0.0451 -0.2665 -0.1904
 6158W        W 6158   1.439   8.337   3.884 -0.3864  0.0135  0.3184
 6159W        W 6159   8.612   9.419   3.793 -0.0925 -0.2426  0.0858
 6160W        W 6160   7.959   8.043   8.630  0.1634  0.2338 -0.1787
 6161W        W 6161   1.835   0.873   4.691  0.1568 -0.1392 -0.2766
 6162W        W 6162   7.567   5.653   9.658 -0.1733 -0.1305 -0.2546
 6163W        W 6163   5.346   1.797   1.051 -0.1142 -0.0658  0.0389
 6164W        W 6164   1.521   9.006   3.338  0.1398  0.0013 -0.0329
 6165W        W 6165   0.049   2.704   9.486 -0.1148 -0.1806  0.2021
 6166W        W 6166   0.700   9.019   9.022 -0.1096  0.1660 -0.2364
 6167W        W 6167   3.645   1.228   9.460 -0.1320  0.1374 -0.2854
 6168W        W 6168   6.223   8.681   7.359 -0.0292 -0.0187 -0.1798
 6169W        W 6169   5.387   3.360   5.860  0.2872 -0.1872 -0.3371
 6170W        W 6170   4.382   2.484   9.790 -0.0461 -0.1382 -0.0966
 6171W        W 6171   3.093   4.086   5.644  0.1907  0.0756  0.0599
 6172W        W 6172   9.081   0.326   3.556 -0.1906 -0.0871  0.0742
 6173W        W 6173   7.461   7.299   1.858  0.1873 -0.1249  0.2398
 6174W        W 6174   5.445   6.424   5.246  0.0224  0.0536  0.1804
 6175W        W 6175   7.573   3.208   9.339 -0.3262  0.2492  0.2404
 6176W        W 6176   2.272  10.081   0.492  0.1279 -0.0699  0.2337
 6177W        W 6177   2.551   8.136   4.066  0.1921  0.1872  0.1994
 6178W        W 6178   8.391   4.539   3.881  0.2932 -0.0029 -0.2247
 6179W        W 6179   7.665   6.784   9.946 -0.0551 -0.1931  0.3482
 6180W        W 6180   8.380   0.659   5.298 -0.3634  0.0610 -0.1183
 6181W        W 6181   0.092   9.752   9.538  0.1459 -0.2963  0.0009
 6182W        W 6182   2.129   9.729   3.286 -0.0981 -0.3026 -0.2954
 6183W        W 6183   0.406   5.374   4.164  0.3168 -0.0759 -0.2238
 6184W        W 6184   9.594   9.330   9.180 -0.1568  0.1552  0.1851
 6185W        W 6185   5.107   8.656   2.764  0.1475  0.1545  0.3857
 6186W        W 6186   2.247   5.293   1.254 -0.4373 -0.2267  0.2332
 6187W        W 6187   9.540   8.735   3.506 -0.0854 -0.1265 -0.1082
 6188W        W 6188   1.192   4.830   5.786 -0.0120  0.2691  0.4148
 6189W        W 6189   0.323   4.548   0.176  0.2222 -0.0089 -0.1358
 6190W        W 6190   4.942   1.465   2.226 -0.1171  0.0255  0.1336
 6191W        W 6191   4.731   1.288   1.325 -0.0539  0.2841 -0.0314
 6192W        W 6192   9.972   0.784   5.504  0.3858  0.1267  0.0944
 6193W        W 6193   6.855   9.370   5.742 -0.1848 -0.3111 -0.0362
 6194W        W 6194   0.152   2.606   0.815 -0.2077  0.0444  0.0362
 6195W        W 6195   6.677   0.335   0.831 -0.2083 -0.0305  0.2691
 6196W        W 6196   6.786   9.428   7.621 -0.1130 -0.2901 -0.1126
 6197W        W 6197   2.721   9.357   5.116 -0.1789  0.0142 -0.1544
 6198W        W 6198   0.965   3.254   2.261  0.2468 -0.0704  0.0340
 6199W        W 6199   5.709   2.426   4.299 -0.0413 -0.1968 -0.2449
 6200W        W 6200   2.970   3.309   1.059  0.0553  0.2736  0.0063
 6201W        W 6201   2.264   1.321   1.883  0.1195  0.0684 -0.2919
 6202W        W 6202   1.336   7.998   2.311  0.2747  0.0506  0.0118
 6203W        W 6203   6.600   0.792   3.612  0.0672 -0.1105  0.0384
 6204W        W 6204   3.112   0.065   8.004 -0.2850 -0.0481  0.4127
 6205W        W 6205   0.599   3.797   5.617  0.1521 -0.0686 -0.2598
 6206W        W 6206   6.323   1.982   2.189  0.2134 -0.1377  0.1796
 6207W        W 6207   2.080   0.695   3.767  0.1799 -0.0727 -0.0273
 6208W        W 6208   6.963   9.296   1.283  0.2945 -0.0508 -0.1157
 6209W        W 6209   5.677   3.662   0.952  0.0397  0.0624  0.1689
 6210W        W 6210   2.310   0.419   4.706  0.0480 -0.0669 -0.3058
 6211W        W 6211   8.921   8.996   9.570  0.1994  0.1253  0.2164
 6212W        W 6212   1.582   8.685   2.553 -0.0081  0.0883  0.2036
 6213W        W 6213   2.257   5.369   9.797 -0.0198  0.2091  0.0423
 6214W        W 6214   7.301   2.465   2.526 -0.0619 -0.0608  0.1001
 6215W        W 6215   8.197   4.904   4.354 -0.3280 -0.0098  0.0474
 6216W        W 6216   2.134  10.172   9.438 -0.3569 -0.0219 -0.0190
 6217W        W 6217   3.520   7.469   0.455  0.0295  0.0331 -0.0543
 6218W        W 6218   7.979   9.097   8.025  0.0685  0.1110  0.3520
 6219W        W 6219   9.779   3.320   3.749 -0.1549  0.1539  0.1731
 6220W        W 6220   9.007   5.988   8.250 -0.2291  0.1973  0.0684
 6221W        W 6221   4.456   6.516   4.495  0.5157 -0.3097  0.2292
 6222W        W 6222   4.688   5.460   7.408  0.0180  0.2100 -0.0118
 6223W        W 6223   9.857   7.858   2.128 -0.0989 -0.1637 -0.2593
 6224W        W 6224   1.984   5.175   0.221 -0.0809 -0.0409 -0.0502
 6225W        W 6225   2.539   4.135   1.684 -0.0990 -0.1070 -0.1274
 6226W        W 6226   3.646   9.569   9.553 -0.2484  0.0543 -0.1468
 6227W        W 6227   8.907   1.094   1.528 -0.1889  0.1689  0.2337
 6228W        W 6228   7.699   7.951   9.875 -0.0734  0.1278 -0.1678
 6229W        W 6229   9.375   9.759   9.315 -0.1083 -0.1489  0.0870
 6230W        W 6230   6.374   8.644   7.887  0.1534  0.0750 -0.2432
 6231W        W 6231   6.774   0.923   5.634 -0.2706  0.1592 -0.1880
 6232W        W 6232   2.044   5.449   8.508 -0.1923 -0.0445 -0.1268
 6233W        W 6233   6.664   6.053   4.780 -0.1132  0.1297 -0.2965
 6234W        W 6234   4.103   1.911   0.796  0.1474  0.2830  0.2262
 6235W        W 6235   9.064  10.188   3.847 -0.0207  0.1135  0.0141
 6236W        W 6236   1.868   3.146   9.411 -0.1485 -0.1296 -0.1017
 6237W        W 6237   3.868   0.970   1.080  0.1328  0.0459  0.2592
 6238W        W 6238   1.636   0.093   5.142  0.0979 -0.3131  0.1634
 6239W        W 6239   8.415  10.317   8.693 -0.2394 -0.0206  0.4407
 6240W        W 6240  10.051   3.718   3.266 -0.0692 -0.0584 -0.0337
 6241W        W 6241   7.922   4.269   3.669 -0.2043  0.4666  0.0697
 6242W        W 6242   4.676   1.161   0.405  0.0818  0.1359 -0.1350
 6243W        W 6243   0.648   9.107   6.238 -0.1324 -0.0241 -0.1014
 6244W        W 6244  10.248   0.838   8.694 -0.0874 -0.0323 -0.0687
 6245W        W 6245   8.653   5.143   7.589  0.0181  0.0167  0.3218
 6246W        W 6246   4.422  10.201   2.801  0.0820  0.2492 -0.0062
 6247W        W 6247   8.628   8.612   3.601  0.1686 -0.1748 -0.1025
 6248W        W 6248   1.631   5.557   8.818 -0.0743 -0.0422  0.5001
 6249W        W 6249   4.016   1.859   8.855  0.0061 -0.1636  0.0581
 6250W        W 6250   4.074   5.602   9.802  0.0179 -0.0630  0.0543
 6251W        W 6251   8.354   0.108  10.206  0.1598  0.1745 -0.2330
 6252W        W 6252   4.419   8.190   6.149  0.2176  0.0597 -0.1216
 6253W        W 6253   8.318   8.737   3.231 -0.2105  0.2589  0.2608
 6254W        W 6254   2.520   3.499   5.118 -0.1922 -0.1702 -0.2098
 6255W        W 6255   5.646  10.227   6.446 -0.1823  0.1548  0.0722
 6256W        W 6256   5.261   5.087   0.050 -0.0869 -0.2032  0.0178
 6257W        W 6257   7.942   2.909   7.223 -0.3261  0.1549 -0.1074
 6258W        W 6258   3.112   1.034   6.611  0.2071  0.1047 -0.0558
 6259W        W 6259   9.275   4.548   9.832  0.0245 -0.1228  0.0951
 6260W        W 6260   0.640   3.514   6.070  0.0206  0.2231  0.1947
 6261W        W 6261   4.039  10.201   3.953 -0.0500 -0.0334  0.2561
 6262W        W 6262   9.473   5.607   6.518 -0.1971 -0.1012  0.2636
 6263W        W 6263   7.709   8.224   9.476 -0.0920 -0.0656  0.0601
 6264W        W 6264   0.093   9.303   6.442 -0.1258 -0.1790  0.1888
 6265W        W 6265   5.910   2.803   5.736  0.0400  0.1903  0.0723
 6266W        W 6266   0.437   9.272   3.698 -0.1870  0.1522 -0.2206
 6267W        W 6267   1.722  10.276   9.735  0.2267  0.0042 -0.0393
 6268W        W 6268   0.080   4.065   0.195  0.0317  0.1012 -0.2059
 6269W        W 6269   9.311   2.436   2.120  0.2225 -0.0840 -0.0360
 6270W        W 6270   3.094   7.021   3.458 -0.0292  0.3854 -0.2033
 6271W        W 6271   9.900   2.241   1.473  0.0755  0.0921 -0.0388
 6272W        W 6272   5.036   0.465   3.087  0.0706  0.0536  0.0265
 6273W        W 6273   9.116   5.775   2.345  0.0467  0.1377  0.0250
 6274W        W 6274   1.412   4.111   0.557 -0.0925 -0.2796 -0.0741
 6275W        W 6275   2.379   0.833   7.671  0.0053  0.3016 -0.1211
 6276W        W 6276   3.902   4.051   5.065 -0.0073 -0.2716  0.0246
 6277W        W 6277   9.083   8.597   8.874 -0.0227  0.0860  0.4085
 6278W        W 6278   8.101   5.494   5.062 -0.1924 -0.0711 -0.2041
 6279W        W 6279   9.260   7.951   4.761 -0.2947  0.1182  0.1712
 6280W        W 6280   5.511   6.562   5.804  0.1931  0.2144  0.1083
 6281W        W 6281   6.725   2.340  10.253 -0.1108  0.0005  0.1690
 6282W        W 6282   8.459   1.033   1.728  0.0954 -0.1043  0.0989
 6283W        W 6283   9.774   2.502   5.645 -0.0239  0.1180  0.0627
 6284W        W 6284   4.977   6.645   7.819 -0.0626  0.0419 -0.1320
 6285W        W 6285   2.180   0.799   6.615  0.1418 -0.0531 -0.1319
 6286W        W 6286   1.376   5.392   7.230 -0.0036 -0.1594 -0.0304
 6287W        W 6287   2.563   9.861   3.564  0.1427 -0.1050 -0.1816
 6288W        W 6288  10.142   8.419   1.259 -0.0594 -0.2115  0.2580
 6289W        W 6289   6.473   8.436   4.228  0.0347 -0.0495  0.0679
 6290W        W 6290   0.871   4.807   1.421  0.4020  0.0522  0.1555
 6291W        W 6291   6.246   4.448   1.079 -0.2518  0.0124  0.2859
 6292W        W 6292   1.912   0.376   0.618 -0.0379 -0.0061  0.0556
 6293W        W 6293   4.680   4.304   6.440 -0.4351 -0.4572 -0.0785
 6294W        W 6294   4.886   9.809   1.360 -0.0150  0.0762  0.1826
 6295W        W 6295   5.934   6.398   6.614  0.2393 -0.1142  0.1247
 6296W        W 6296   0.371   9.056   7.215  0.0446 -0.0014  0.0484
 6297W        W 6297   4.276   3.119   3.754  0.1397  0.1404  0.0837
 6298W        W 6298   7.199   2.841   9.659  0.1450 -0.0252  0.0432
 6299W        W 6299   1.164   2.981   6.615  0.0578  0.0533 -0.1383
 6300W        W 6300   6.994   9.561   8.175  0.1830 -0.0066  0.0014
 6301W        W 6301   9.597   2.518   4.296 -0.1204 -0.2235 -0.1329
 6302W        W 6302   7.322   0.609   1.426 -0.4497 -0.0030 -0.1257
 6303W        W 6303   0.712   8.832   0.360  0.1604  0.1193 -0.2219
 6304W        W 6304   8.172   9.331   1.599  0.0715  0.1819 -0.0841
 6305W        W 6305   8.629   7.536   1.925 -0.1422 -0.1046  0.2521
 6306W        W 6306   7.649   4.363   5.491  0.0242  0.1364  0.0995
 6307W        W 6307   1.630  10.050   4.827 -0.2775  0.2226  0.1096
 6308W        W 6308   2.543   2.279   6.584  0.1809  0.0041  0.1932
 6309W        W 6309   2.616   8.308   1.789 -0.2924 -0.0750 -0.0161
 6310W        W 6310   4.369   5.515   1.098 -0.1943  0.2036  0.2437
 6311W        W 6311  10.290   8.254   0.790  0.2346 -0.1227 -0.0946
 6312W        W 6312   3.571   8.334   8.844 -0.2224  0.1959  0.0683
 6313W        W 6313   2.067   8.153  10.300  0.2238 -0.0123 -0.1414
 6314W        W 6314   7.989   8.941   5.885  0.1659 -0.1406  0.2397
 6315W        W 6315   9.464   9.816   7.309  0.1481 -0.0519 -0.1159
 6316W        W 6316   8.969   3.937   7.644  0.0724 -0.1040  0.2255
 6317W        W 6317   1.620   1.334   0.836  0.0171  0.0393  0.2185
 6318W        W 6318   6.280   5.509   8.236 -0.0478 -0.0884  0.1113
 6319W        W 6319   1.006   3.907  10.112 -0.0975 -0.3526  0.3952
 6320W        W 6320   7.188   8.783   1.005 -0.0161  0.0636 -0.1240
 6321W        W 6321   1.750  10.246   9.175 -0.1985 -0.5142  0.2412
 6322W        W 6322   0.446   3.787   7.499  0.1190 -0.3160  0.0864
 6323W        W 6323   1.416   9.457   2.105  0.1378 -0.0169 -0.2275
 6324W        W 6324   6.388   6.334   7.759 -0.1997 -0.1446 -0.0435
 6325W        W 6325  10.189   2.311   8.657 -0.0856 -0.1513  0.1300
 6326W        W 6326   2.256   5.663   6.345 -0.2154  0.0046  0.0742
 6327W        W 6327   5.908   7.713   6.851  0.1149  0.1311 -0.2511
 6328W        W 6328   4.634   7.645   5.290 -0.2716 -0.4269 -0.3448
 6329W        W 6329   3.502  10.179   5.473  0.0426  0.1183 -0.0649
 6330W        W 6330  10.170   8.685   0.658  0.0936 -0.1094  0.0173
 6331W        W 6331   2.944   8.741   8.182  0.1121 -0.0351  0.0117
 6332W        W 6332   2.843   4.740   4.534 -0.0239 -0.0081  0.0934
 6333W        W 6333   3.520   4.090  10.125 -0.0518 -0.2259 -0.1018
 6334W        W 6334   5.935  10.028   7.364 -0.1026  0.1676  0.3144
 6335W        W 6335   9.252   4.106   6.190 -0.0666  0.0967 -0.1607
 6336W        W 6336   7.822   9.824  10.139  0.0131  0.0992  0.0087
 6337W        W 6337   6.404   6.739   6.529 -0.0742  0.2369  0.0129
 6338W        W 6338   7.790   3.545   9.902 -0.0421  0.0429 -0.1524
 6339W        W 6339   1.639   2.743   5.621  0.3094  0.1812 -0.2165
 6340W        W 6340   5.928   9.490  10.134  0.0647 -0.1908 -0.0452
 6341W        W 6341   4.982   2.166   2.558  0.0631  0.1576  0.3673
 6342W        W 6342   5.520   1.545   3.152  0.0554 -0.1293 -0.0910
 6343W        W 6343   1.187   0.292   6.552  0.1096  0.0590  0.1864
 6344W        W 6344   7.650   8.614   1.103  0.2173  0.0409  0.0385
 6345W        W 6345   4.266   6.101   6.229 -0.1955  0.1386  0.3386
 6346W        W 6346   3.378   5.645   8.881 -0.0446 -0.1544  0.1742
 6347W        W 6347   9.500   1.944   5.632  0.0432 -0.2843 -0.0925
 6348W        W 6348   2.783   0.003  10.029 -0.0257  0.0483  0.1471
 6349W        W 6349   2.096   1.741   9.851  0.1915  0.1236  0.1665
 6350W        W 6350   6.275   3.598   6.666 -0.1221 -0.1844  0.2419
 6351W        W 6351   9.465   7.943   1.264 -0.0071 -0.0242 -0.4679
 6352W        W 6352   6.802   2.306   4.563  0.1539  0.2707  0.0781
 6353W        W 6353   6.824   7.507   7.877 -0.0849  0.1305  0.0690
 6354W        W 6354   5.793   1.437   1.154 -0.3740  0.2585 -0.1987
 6355W        W 6355   6.971   1.455   8.246  0.3853 -0.1970 -0.2333
 6356W        W 6356   7.752   6.892   3.473 -0.1482  0.1307  0.1568
 6357W        W 6357   4.027   6.433   6.495  0.0319 -0.3627  0.2236
 6358W        W 6358   2.873   0.045   5.401  0.3209 -0.0993 -0.1885
 6359W        W 6359   9.791   4.908   9.089  0.0724 -0.2026 -0.0591
 6360W        W 6360   4.549   2.582   3.968 -0.1654  0.5158 -0.0159
 6361W        W 6361   7.308   4.067   6.458  0.1129 -0.0425  0.3492
 6362W        W 6362   0.191   9.662   7.915  0.3320  0.2023 -0.1518
 6363W        W 6363   8.369   9.535   5.703  0.1799  0.1532  0.1923
 6364W        W 6364   4.732   4.558   7.766 -0.1205  0.1285 -0.0038
 6365W        W 6365   4.733   2.992   0.279 -0.1804  0.0224 -0.3417
 6366W        W 6366   9.921   8.990   3.871  0.1164  0.1407 -0.3335
 6367W        W 6367   1.539   2.193   7.428 -0.0255 -0.3212  0.0070
 6368W        W 6368   2.060   2.489   6.617  0.1560 -0.0259  0.1543
 6369W        W 6369  10.083   8.609   4.111 -0.0356 -0.2987 -0.1309
 6370W        W 6370   9.077   9.926   3.194 -0.0487  0.0987 -0.0859
 6371W        W 6371   4.769   6.745   4.242  0.2070 -0.0365 -0.0676
 6372W        W 6372   9.325   3.766   4.594 -0.0407 -0.0996 -0.0721
 6373W        W 6373   0.760   1.043   7.838  0.1759  0.1306 -0.0001
 6374W        W 6374   3.809   9.150   7.753  0.0285 -0.2750 -0.0629
 6375W        W 6375   0.540   7.057   6.935 -0.1875  0.0009 -0.3573
 6376W        W 6376   4.705  10.297   9.529  0.2647  0.1341 -0.2769
 6377W        W 6377   2.269   3.316   6.192  0.1853  0.2641  0.0240
 6378W        W 6378   0.191   1.348   6.133  0.3611 -0.0039  0.2022
 6379W        W 6379   6.155  10.157   3.810 -0.1604 -0.3398 -0.1320
 6380W        W 6380   4.212   7.509   3.210 -0.1117 -0.1502 -0.0873
 6381W        W 6381   5.466   1.418   2.138 -0.0788 -0.3074  0.0473
 6382W        W 6382  10.052   7.880   2.899 -0.1012  0.1133  0.1485
 6383W        W 6383   7.878   9.565   7.778 -0.3474  0.0196  0.0152
 6384W        W 6384   7.333   3.684   9.046 -0.0007  0.0006  0.1250
 6385W        W 6385   0.671   5.357   8.508  0.3800  0.0744 -0.1739
 6386W        W 6386   2.446   5.390   5.891 -0.2679 -0.1442  0.0789
 6387W        W 6387   0.241   0.502   3.714 -0.1751  0.2100  0.1914
 6388W        W 6388   0.673   3.848   5.070  0.0454  0.0125  0.1066
 6389W        W 6389   2.142   5.682   5.016  0.3383 -0.0699  0.0253
 6390W        W 6390   2.337   5.996   4.685  0.0931 -0.2094 -0.1949
 6391W        W 6391   4.032   0.223   2.636 -0.0075  0.0725 -0.2961
 6392W        W 6392   0.794   6.928   2.942  0.0653  0.0967  0.3874
 6393W        W 6393   1.210   2.434   7.807  0.1959 -0.0194 -0.4048
 6394W        W 6394   4.351   9.722   7.043 -0.0215 -0.1325 -0.1946
 6395W        W 6395   6.290  10.114   5.096 -0.1129  0.0654 -0.0159
 6396W        W 6396   3.274   6.571   0.307 -0.2699 -0.2619 -0.1223
 6397W        W 6397   0.367   1.600   7.184  0.0994  0.1081 -0.2700
 6398W        W 6398   4.203   3.852   6.719  0.1965  0.0853 -0.2049
 6399W        W 6399   1.413   9.519   6.206  0.1568 -0.0776  0.0551
 6400W        W 6400   8.048   4.333   3.046 -0.5046  0.4351 -0.0634
 6401W        W 6401   2.409   4.578   9.677 -0.0896 -0.0609  0.1802
 6402W        W 6402   5.207   2.050   4.134 -0.0774 -0.0183  0.0680
 6403W        W 6403   0.427   5.755   8.695  0.1555  0.2308 -0.1897
 6404W        W 6404   6.860   3.056   4.709  0.2948  0.0014 -0.0619
 6405W        W 6405   6.622   3.451   7.007 -0.2215  0.2422 -0.0086
 6406W        W 6406   4.734   3.155   8.677  0.0201  0.1389 -0.0125
 6407W        W 6407   4.124   7.171   6.031  0.2355 -0.2710  0.0447
 6408W        W 6408   3.438   3.300   1.297 -0.0176  0.0229 -0.5413
 6409W        W 6409   1.213   4.293   5.676  0.3364  0.0774 -0.0117
 6410W        W 6410   3.189   8.119   6.408  0.1106  0.1650  0.2646
 6411W        W 6411   2.666   6.600   7.944 -0.1321 -0.1617 -0.0259
 6412W        W 6412   8.567   6.928   9.991 -0.1424 -0.0262  0.2050
 6413W        W 6413   3.343   1.667   6.549  0.1996 -0.0298  0.0819
 6414W        W 6414   8.974   4.615   2.758 -0.1518  0.2358 -0.1331
 6415W        W 6415   2.627   2.707   3.894 -0.1412 -0.1256 -0.0581
 6416W        W 6416   6.631   9.158   3.058  0.1450 -0.2117 -0.3034
 6417W        W 6417   2.713   0.554   7.356  0.3651 -0.5208  0.0448
 6418W        W 6418   8.297   6.788   6.241  0.0715 -0.0313  0.0436
 6419W        W 6419   3.324   0.281   3.671 -0.3076  0.2020  0.1330
 6420W        W 6420   1.961   9.197   3.384  0.3719 -0.2623 -0.2280
 6421W        W 6421   6.875   6.366   6.442 -0.1299  0.1049 -0.1092
 6422W        W 6422   3.435   8.537   0.480  0.0700  0.0123 -0.0266
 6423W        W 6423   7.677   7.128   2.706 -0.1023  0.1549 -0.1234
 6424W        W 6424   2.053   4.641   4.976 -0.0250 -0.1202  0.1569
 6425W        W 6425   6.321   2.180   9.782  0.1233  0.0265 -0.1008
 6426W        W 6426   9.770   2.445   9.486  0.0543  0.1766  0.1944
 6427W        W 6427   2.758   4.609   2.356  0.0340  0.1145  0.2530
 6428W        W 6428   3.506   5.659  10.180  0.4699  0.0135  0.0211
 6429W        W 6429   5.383   5.942   9.726  0.2694  0.0529  0.0577
 6430W        W 6430   9.612   2.935   0.475  0.0799 -0.0924 -0.1563
 6431W        W 6431   3.346   6.204  10.238 -0.0426 -0.1129 -0.0290
 6432W        W 6432   3.493   6.709   6.801 -0.0786  0.0932 -0.2071
 6433W        W 6433   7.874   6.873   1.954  0.1552 -0.0041 -0.1135
 6434W        W 6434   0.386   0.538   8.713 -0.1782  0.3342  0.2794
 6435W        W 6435   2.584   6.156   1.504  0.2166 -0.0429 -0.1787
 6436W        W 6436   8.795   9.384   1.940  0.1087 -0.0926  0.4388
 6437W        W 6437   9.717   9.715   5.089 -0.2321  0.1115 -0.2273
 6438W        W 6438   0.603   8.386   9.212 -0.0301 -0.0195 -0.1467
 6439W        W 6439   0.609   4.506   4.988  0.0391 -0.2222  0.1708
 6440W        W 6440   6.589   2.552   5.512  0.0704 -0.2709  0.0990
 6441W        W 6441   6.542   3.542  10.271 -0.0099 -0.0564  0.1546
 6442W        W 6442   3.838   7.457   4.142 -0.0982 -0.1264 -0.4568
 6443W        W 6443   8.021   9.297   1.097  0.1509 -0.0576  0.2255
 6444W        W 6444   1.056   3.914   5.408 -0.1111 -0.2210  0.3698
 6445W        W 6445   6.494   6.354   9.851  0.0186  0.0018 -0.1025
 6446W        W 6446   3.812   5.246  10.059 -0.0807  0.1542 -0.0820
 6447W        W 6447   0.709   6.295   1.489  0.1126 -0.2299 -0.0897
 6448W        W 6448   0.453   3.359   3.311  0.0553  0.3538  0.0357
 6449W        W 6449   1.536   4.727   9.499 -0.1824  0.4563 -0.2195
 6450W        W 6450   5.178   0.384   4.631  0.3945  0.0497  0.0665
 6451W        W 6451   9.348   2.295   3.887  0.1974 -0.2657  0.0277
 6452W        W 6452   9.309   9.187   1.715 -0.2061 -0.3484  0.1219
 6453W        W 6453   4.535   8.627   3.513  0.1939 -0.1965  0.0207
 6454W        W 6454   2.577   7.977   9.960  0.1644 -0.1829  0.1956
 6455W        W 6455   4.512   6.505   5.450 -0.0162  0.2274  0.0021
 6456W        W 6456   0.149   6.684   2.466 -0.2562 -0.1853 -0.3225
 6457W        W 6457   9.411   5.075   6.338  0.0438  0.0459 -0.3042
 6458W        W 6458   9.767   4.201   6.004  0.2218 -0.0825 -0.3225
 6459W        W 6459   3.390   6.201   1.223 -0.2141 -0.0232 -0.3025
 6460W        W 6460   3.391   2.173   2.028  0.0999  0.0298 -0.0153
 6461W        W 6461   2.167   3.950   2.119 -0.2208 -0.1278 -0.0020
 6462W        W 6462   0.194   4.387   6.260 -0.1073 -0.1189  0.1295
 6463W        W 6463   0.335   1.209   3.576 -0.2662  0.0782 -0.0213
 6464W        W 6464   8.504   4.591  10.329 -0.1451 -0.0676 -0.1384
 6465W        W 6465   2.706   5.061   9.804 -0.0771  0.2186  0.0643
 6466W        W 6466   1.290   9.831   3.589  0.0019 -0.1525 -0.3501
 6467W        W 6467   2.738   4.661  10.171  0.3040  0.1190  0.0943
 6468W        W 6468   8.088   1.103   0.864 -0.1955  0.1627 -0.0804
 6469W        W 6469   8.255   1.136   7.395 -0.1279 -0.2506  0.1019
 6470W        W 6470   8.365   2.767   1.744 -0.1670  0.0786  0.1064
 6471W        W 6471   7.632   1.456   2.727 -0.3013 -0.1497  0.2495
 6472W        W 6472   8.817   7.877   5.031 -0.0702  0.0687  0.1080
 6473W        W 6473   0.782   8.283   6.834  0.0165  0.0031  0.2454
 6474W        W 6474   5.573   1.389   8.060  0.1952 -0.1793 -0.0144
 6475W        W 6475   7.309   6.623   6.310  0.0962  0.0174  0.0210
 6476W        W 6476   3.487   6.612   4.399 -0.1970  0.1307 -0.0747
 6477W        W 6477  10.005   8.141   8.165 -0.1260  0.0496 -0.0170
 6478W        W 6478   6.887   7.471   5.332 -0.1511 -0.1034  0.0915
 6479W        W 6479   2.723   4.965   1.261  0.0650 -0.0847 -0.0846
 6480W        W 6480   9.336   9.012   4.312 -0.3345 -0.2001 -0.2377
 6481W        W 6481   0.150   6.643   2.998  0.2595 -0.2205  0.0809
 6482W        W 6482   3.767   2.755  10.128  0.0688 -0.0079 -0.1255
 6483W        W 6483   1.656   3.322   1.544  0.0694  0.2473 -0.0791
 6484W        W 6484   5.298   9.459   8.078  0.3094 -0.0864  0.0486
 6485W        W 6485   6.286   4.562   4.298  0.1816  0.2171 -0.2728
 6486W        W 6486   2.496  10.089   0.024 -0.1587  0.1456  0.1131
 6487W        W 6487   9.373   2.503   8.160 -0.0521  0.2752  0.2917
 6488W        W 6488   1.609   6.962   9.743 -0.0751 -0.2260  0.1536
 6489W        W 6489   7.942   2.695   1.440  0.0419 -0.2081  0.1423
 6490W        W 6490   8.269   5.883   9.246 -0.2803 -0.1490 -0.2685
 6491W        W 6491   0.976   8.229   3.089 -0.1659 -0.4504 -0.2571
 6492W        W 6492   8.702  10.270   3.417 -0.2008  0.3556  0.0175
 6493W        W 6493   1.905   7.188  10.096  0.0452 -0.3647 -0.0975
 6494W        W 6494   8.906   2.997   2.465 -0.2065 -0.2051  0.0108
 6495W        W 6495   7.858   1.354   4.414 -0.0053 -0.2164 -0.2193
 6496W        W 6496   4.911   6.525   4.696  0.1579 -0.1393  0.0685
 6497W        W 6497   1.467   7.002   7.514  0.0313  0.1318  0.1467
 6498W        W 6498   1.379   0.555   5.013  0.2361  0.0463 -0.0561
 6499W        W 6499   0.330   4.899   6.435 -0.0230 -0.2846  0.3488
 6500W        W 6500   7.159   7.696   2.874 -0.0934  0.1209 -0.1868
 6501W        W 6501   2.805   7.759   9.568  0.0173 -0.0169  0.1689
 6502W        W 6502   3.906   4.961   0.162 -0.2631  0.0629 -0.1440
 6503W        W 6503   8.892   4.254   3.866 -0.1326 -0.1338 -0.3758
 6504W        W 6504   0.667   7.515   7.838  0.0897  0.1471 -0.1559
 6505W        W 6505   8.564   3.876   3.636  0.2869  0.2006 -0.0929
 6506W        W 6506   2.456   5.455   3.450 -0.0371  0.0263  0.0054
 6507W        W 6507   6.959   0.260   5.169 -0.0022  0.3458 -0.1604
 6508W        W 6508   0.265   1.088   2.747  0.0681  0.2012  0.0331
 6509W        W 6509   9.680   4.763   6.824 -0.1740 -0.0583 -0.0214
 6510W        W 6510   9.345   3.953   4.076 -0.1889  0.0300  0.1168
 6511W        W 6511  10.109   9.210   2.538 -0.1368  0.2701  0.0672
 6512W        W 6512   5.747   7.647   5.163 -0.2422 -0.1648 -0.1786
 6513W        W 6513   5.076   0.643   3.977  0.0163 -0.0016  0.2639
 6514W        W 6514   9.198   7.649   7.352  0.0235  0.3598 -0.0045
 6515W        W 6515  10.062   0.656   0.571 -0.0120 -0.0756  0.1770
 6516W        W 6516   2.182   5.822   2.364  0.0371 -0.2472 -0.3045
 6517W        W 6517   0.447   4.779   3.550 -0.0508  0.0672 -0.1720
 6518W        W 6518   8.466   6.872   5.397  0.0285 -0.1020 -0.3000
 6519W        W 6519   0.805   2.568   5.954 -0.1326 -0.0699  0.0114
 6520W        W 6520   1.230   1.680   2.708 -0.2847 -0.2128 -0.0990
 6521W        W 6521   6.466   9.227   7.062  0.0862 -0.2090 -0.0588
 6522W        W 6522   3.202   7.778   4.434  0.2634 -0.1304  0.1146
 6523W        W 6523   9.158   3.397   8.428  0.3283  0.3073  0.0306
 6524W        W 6524   8.380   2.895   7.585 -0.1035 -0.2493  0.1129
 6525W        W 6525   9.208   3.112   6.450 -0.1722  0.0005 -0.1754
 6526W        W 6526   5.940   2.291   9.366 -0.1119  0.1754  0.2159
 6527W        W 6527   8.052   4.937   3.827  0.1974 -0.1103 -0.1951
 6528W        W 6528   3.113   3.698   3.492  0.0226  0.2152  0.1821
 6529W        W 6529   2.893   4.738   8.772 -0.0913  0.3597  0.1488
 6530W        W 6530   9.251   1.333  10.255  0.2180  0.0950 -0.2850
 6531W        W 6531   3.736   4.754   7.515  0.3020 -0.2528  0.0789
 6532W        W 6532   0.342   3.085   6.254  0.1885 -0.0280 -0.0097
 6533W        W 6533   3.303   9.097   7.781  0.0819  0.1283  0.2471
 6534W        W 6534   9.371   0.988   0.230 -0.0817 -0.0073 -0.1958
 6535W        W 6535   2.757   4.639   4.017 -0.0068 -0.1290  0.0409
 6536W        W 6536   8.743   2.916   0.484 -0.0648 -0.2128  0.1084
 6537W        W 6537   1.176   4.261   1.805  0.2544 -0.1442 -0.1329
 6538W        W 6538   4.323   0.143   5.951 -0.0251 -0.0838 -0.1337
 6539W        W 6539   4.876   8.673   7.774 -0.4838  0.1686  0.0309
 6540W        W 6540  10.280   5.537   9.406  0.1349  0.0718 -0.0770
 6541W        W 6541   5.941   5.576   1.706 -0.0115 -0.2831  0.2746
 6542W        W 6542   9.386   0.479   7.583  0.0946 -0.1159  0.0869
 6543W        W 6543   3.625   7.055   9.091 -0.0026 -0.1396  0.0109
 6544W        W 6544   8.733  10.010   7.019  0.0672 -0.3173  0.0917
 6545W        W 6545   4.665   0.773   5.338 -0.1861  0.0668 -0.0257
 6546W        W 6546   8.194   0.589   2.949 -0.1761 -0.1986 -0.0041
 6547W        W 6547   4.255   8.368   6.977 -0.0153 -0.3635  0.2038
 6548W        W 6548   0.189   8.034   0.423  0.1059  0.0777 -0.0452
 6549W        W 6549   1.153   8.541   8.233 -0.3830  0.3379 -0.0447
 6550W        W 6550   5.059   6.214   3.033 -0.2373 -0.0310  0.2157
 6551W        W 6551   3.692   2.338   3.317 -0.3465 -0.1987 -0.2060
 6552W        W 6552   0.812   5.986   2.754  0.1205 -0.0978 -0.1213
 6553W        W 6553  10.197   0.257   8.257  0.2008 -0.0271  0.3587
 6554W        W 6554   8.828   2.086   8.822 -0.0057  0.1748  0.0373
 6555W        W 6555  10.202   9.296   2.046 -0.0821 -0.1789  0.2587
 6556W        W 6556   6.436   8.660   6.844 -0.3781 -0.2613 -0.1383
 6557W        W 6557   0.858   6.235   8.401 -0.2021  0.1504 -0.1222
 6558W        W 6558   9.947   3.232   2.239 -0.1013 -0.1286  0.2308
 6559W        W 6559   0.510   9.596   1.003  0.1418  0.1014 -0.0145
 6560W        W 6560   8.017   4.892   2.159 -0.2205  0.0588  0.1063
 6561W        W 6561   0.421   4.270   5.811  0.0452  0.1224  0.0876
 6562W        W 6562   8.744   0.956   7.044 -0.0947  0.1176 -0.3145
 6563W        W 6563   5.561   0.087   9.365  0.1740 -0.2318 -0.0144
 6564W        W 6564   2.740   2.305  10.294  0.0064  0.0010  0.0859
 6565W        W 6565   8.921   0.280   7.586 -0.1677  0.1395  0.0600
 6566W        W 6566   7.308   6.592  10.284 -0.1420  0.1090 -0.0973
 6567W        W 6567   4.044   9.133   4.314  0.1094  0.2858  0.0949
 6568W        W 6568   9.696   0.576   2.481 -0.1840  0.1009  0.0541
 6569W        W 6569   5.515   8.862   2.532 -0.0310  0.0492  0.0587
 6570W        W 6570   5.860   4.298   3.054  0.2085  0.2962  0.1096
 6571W        W 6571   0.801   7.275   3.381 -0.0083  0.0211 -0.1148
 6572W        W 6572   4.859   5.124   3.256 -0.5206 -0.1951  0.2718
 6573W        W 6573   0.059   5.086   3.841  0.1696  0.1255  0.3793
 6574W        W 6574   1.587   6.908   4.093 -0.0275  0.1802  0.3443
 6575W        W 6575   7.718   0.057   2.416 -0.1831 -0.1672 -0.2739
 6576W        W 6576   3.745   7.936   7.568  0.1045  0.1598 -0.1334
 6577W        W 6577   4.539   5.785   0.037 -0.0835  0.2375 -0.0290
 6578W        W 6578   2.588   7.384   9.376  0.0834 -0.5588 -0.1684
 6579W        W 6579   6.712   5.290   0.138  0.0833  0.2401 -0.3500
 6580W        W 6580   4.197   7.136   9.860  0.1885 -0.2558 -0.1919
 6581W        W 6581   0.134   9.557   6.013  0.1447 -0.0157  0.0316
 6582W        W 6582   8.745   2.715   5.017 -0.1259  0.2538  0.0433
 6583W        W 6583   5.975   7.406   8.157 -0.1647  0.1438 -0.0821
 6584W        W 6584   9.141   1.083   3.551 -0.0442  0.0752 -0.0460
 6585W        W 6585   1.477   3.006   2.337 -0.0585 -0.0708  0.2447
 6586W        W 6586   6.957   3.271   3.256  0.2458 -0.0729  0.1359
 6587W        W 6587   1.111   0.085   3.832 -0.0404  0.2240 -0.2159
 6588W        W 6588   7.249   7.303   9.368 -0.0994  0.0750 -0.4135
 6589W        W 6589   2.083   6.502   8.016 -0.0071  0.4181 -0.1390
 6590W        W 6590   3.916   6.086   6.937 -0.2401  0.0184 -0.0600
 6591W        W 6591   4.525   1.430   7.178 -0.0354 -0.0643 -0.3469
 6592W        W 6592   7.789   5.621   7.690  0.2038  0.1569 -0.3014
 6593W        W 6593   2.526   2.744   5.705 -0.2014  0.2522 -0.0453
 6594W        W 6594   8.805   4.838   0.611 -0.0291 -0.1647  0.3627
 6595W        W 6595   0.522   0.613   5.384 -0.0173  0.0647  0.0458
 6596W        W 6596   2.922   8.016   0.146 -0.0404 -0.1358 -0.3183
 6597W        W 6597   6.506   8.207   2.285  0.0406 -0.3826  0.1922
 6598W        W 6598   4.453   7.937   9.277  0.1754  0.3216  0.0218
 6599W        W 6599   8.557   3.751   7.955 -0.0525  0.0824 -0.1322
 6600W        W 6600   8.166   8.701   0.939 -0.2125  0.1825  0.2315
 6601W        W 6601   6.982   5.105   1.959 -0.1262 -0.0140 -0.0541
 6602W        W 6602   1.496   1.296   7.450  0.1447 -0.2142  0.0398
 6603W        W 6603   5.885   1.948   3.221  0.0952 -0.2648 -0.1974
 6604W        W 6604   6.955   7.057   8.097 -0.0234 -0.2239 -0.0268
 6605W        W 6605   3.462   2.407   3.749 -0.0344 -0.1006 -0.1182
 6606W        W 6606   8.601   2.947   2.949 -0.3070 -0.0455 -0.3368
 6607W        W 6607   1.020   8.853   5.640  0.0163 -0.0761 -0.2210
 6608W        W 6608   1.380   3.175   9.942 -0.0276  0.0077 -0.1389
 6609W        W 6609   6.302   7.287   3.599  0.0743  0.0192 -0.1907
 6610W        W 6610   5.374   9.865   4.969 -0.2338 -0.2681  0.0468
 6611W        W 6611   1.666   2.172   5.596 -0.3177 -0.1167  0.1402
 6612W        W 6612   9.096   5.332   9.621 -0.2516  0.0827 -0.0663
 6613W        W 6613   3.169   9.535   7.365 -0.0143  0.0022  0.3767
 6614W        W 6614   7.246   6.895   5.198  0.1562 -0.1722  0.0654
 6615W        W 6615   2.658   0.770   6.664  0.1644  0.1198  0.0402
 6616W        W 6616   7.103   8.271   4.634  0.0561  0.2961 -0.2157
 6617W        W 6617   3.118   8.302   5.386  0.0342 -0.1293  0.2391
 6618W        W 6618   5.727   1.389   6.211  0.0664  0.0545 -0.0660
 6619W        W 6619   2.447   8.715   4.940 -0.4195 -0.2027  0.1449
 6620W        W 6620   5.843   3.034   7.094 -0.0725 -0.0289  0.2588
 6621W        W 6621   1.726   6.941   2.981 -0.0445 -0.2013  0.0689
 6622W        W 6622   2.874   7.848   3.643 -0.1627 -0.1066  0.1998
 6623W        W 6623   6.436   4.423   6.657 -0.1882 -0.2598  0.1881
 6624W        W 6624   7.281   6.898   8.418 -0.0480  0.2790  0.1436
 6625W        W 6625   3.927   8.745   2.195  0.1491  0.0293 -0.0107
 6626W        W 6626   6.741   2.517   6.677 -0.2841  0.1323  0.2840
 6627W        W 6627   8.898   0.477   4.467  0.1842  0.2777  0.1191
 6628W        W 6628   5.378   1.811   5.828  0.0415 -0.0406 -0.0530
 6629W        W 6629   0.678   0.590   4.313 -0.0238 -0.1378  0.1766
 6630W        W 6630   9.497   5.129   3.837 -0.0706 -0.1144  0.2480
 6631W        W 6631   3.749   0.496   9.681 -0.2660  0.0043 -0.0219
 6632W        W 6632   4.791   1.953   5.817 -0.1405  0.0730  0.0009
 6633W        W 6633   8.055   1.285   8.855  0.1438 -0.0719  0.3135
 6634W        W 6634   4.981   2.178   2.022  0.1335  0.1438 -0.2078
 6635W        W 6635   9.013   8.689   7.116  0.2009  0.1306  0.2045
 6636W        W 6636   8.239   8.339   3.725  0.0834 -0.0745 -0.3243
 6637W        W 6637   8.161   3.660   1.885 -0.3583  0.2854 -0.2738
 6638W        W 6638   0.652   2.034   0.004  0.0297 -0.3278  0.0010
 6639W        W 6639   2.974   3.776   3.022 -0.1913 -0.2021  0.0754
 6640W        W 6640   2.687   2.839   9.111 -0.2339  0.0433 -0.0105
 6641W        W 6641   6.915   7.924   2.118  0.2350 -0.1871  0.1801
 6642W        W 6642   4.828   6.206   6.414 -0.1371  0.0734  0.0377
 6643W        W 6643   1.776   5.370   9.908  0.2418  0.0425  0.0486
 6644W        W 6644   4.585   7.815   8.247  0.1193 -0.1066  0.0213
 6645W        W 6645   0.225   9.393   2.731  0.0797  0.2674  0.0869
 6646W        W 6646   9.999   5.738   5.331  0.1161  0.0361 -0.1167
 6647W        W 6647   2.716   8.838   7.739  0.0735  0.0776  0.0625
 6648W        W 6648   9.053   5.797   6.237 -0.0353 -0.0356 -0.4492
 6649W        W 6649   8.444   9.136   5.996  0.1382 -0.3001 -0.0645
 6650W        W 6650   9.650   7.074   0.759  0.0998  0.1676 -0.2151
 6651W        W 6651   5.623   1.602   4.337 -0.0998  0.0624 -0.0597
 6652W        W 6652   0.870   6.402   2.324  0.0413  0.1164  0.1188
 6653W        W 6653   1.627   9.247   7.815  0.3045  0.1365 -0.0779
 6654W        W 6654   5.001   7.043   6.177 -0.5677 -0.1987  0.0283
 6655W        W 6655   2.433   5.548   4.444 -0.0601 -0.0883 -0.2299
 6656W        W 6656   4.041   6.820   4.513 -0.0543  0.3089 -0.0702
 6657W        W 6657   4.450   0.910   7.124  0.2361 -0.2705 -0.1706
 6658W        W 6658   6.592   2.998   2.995  0.1519  0.0724 -0.1966
 6659W        W 6659   1.884   6.442   2.038  0.1239 -0.2591 -0.1048
 6660W        W 6660   6.698   4.812   9.268  0.1606  0.0268  0.0718
 6661W        W 6661   4.185   5.511   4.644  0.1629  0.2432 -0.4295
 6662W        W 6662   7.718   2.922   2.955 -0.4811  0.0463 -0.1570
 6663W        W 6663   2.082   5.295   2.321  0.1814 -0.0605 -0.1014
 6664W        W 6664   9.300   2.910   2.119  0.0724  0.1323 -0.2075
 6665W        W 6665  10.019   2.865   2.768  0.3280  0.1693  0.0170
 6666W        W 6666   0.925   1.567   5.256  0.2857  0.2533  0.0069
 6667W        W 6667   8.559   7.365   1.058 -0.1650 -0.1041 -0.0260
 6668W        W 6668   4.264   7.886   4.580 -0.2347  0.0322  0.0812
 6669W        W 6669   1.749   7.549   4.325 -0.3273 -0.1597  0.0866
 6670W        W 6670   4.952   7.774   2.688 -0.2082  0.2288 -0.1548
 6671W        W 6671   8.792   7.795   4.474 -0.2756 -0.5423 -0.0128
 6672W        W 6672   8.102   0.328   7.474  0.1691  0.0380 -0.1085
 6673W        W 6673   4.552   7.476   4.769 -0.1878  0.0536 -0.0812
 6674W        W 6674   2.945   4.173   3.313  0.2217  0.1641 -0.0582
 6675W        W 6675   6.620   8.523   9.781  0.1140  0.4520  0.1565
 6676W        W 6676   8.667   6.080   5.242 -0.2226  0.0979  0.2344
 6677W        W 6677   3.660   9.162   9.275 -0.3032  0.1884 -0.1576
 6678W        W 6678   5.936   0.433   1.811 -0.2938  0.2725 -0.1979
 6679W        W 6679   3.008   1.937   7.155 -0.0628  0.0959  0.3459
 6680W        W 6680   4.388   5.327  10.132  0.3327  0.1749  0.0886
 6681W        W 6681   8.765   1.645   7.806  0.2542 -0.0783  0.1042
 6682W        W 6682   8.278   5.756   8.283 -0.0954  0.1915  0.2609
 6683W        W 6683   9.020   9.364   5.679 -0.0781 -0.0049  0.0814
 6684W        W 6684   7.285   9.115   7.009 -0.0470  0.3281  0.2300
 6685W        W 6685   3.999   8.757   8.072  0.2238 -0.0411  0.0263
 6686W        W 6686   5.615   5.991   8.449  0.1200 -0.0742 -0.0227
 6687W        W 6687   2.328   1.685   8.910 -0.0847 -0.0464 -0.2942
 6688W        W 6688   9.357   1.342   6.258 -0.0632  0.2266  0.0029
 6689W        W 6689   6.372   0.083   1.892 -0.0926 -0.1112 -0.1097
 6690W        W 6690   6.759   6.661   4.245 -0.1196  0.4064  0.2414
 6691W        W 6691   1.711   6.639   7.014  0.1755  0.0818  0.0371
 6692W        W 6692  10.286   5.229   3.267  0.0423 -0.0555  0.2752
 6693W        W 6693   9.255   4.869   3.518  0.0342  0.1173 -0.2343
 6694W        W 6694   1.289   0.417   1.301 -0.2634 -0.1260  0.0530
 6695W        W 6695   7.717   9.886   7.427  0.3676 -0.0334 -0.0030
 6696W        W 6696   7.731   8.357   0.644  0.1486 -0.4846 -0.1206
 6697W        W 6697   2.210   0.874   1.461  0.1526 -0.0984 -0.1792
 6698W        W 6698   7.970   2.603   9.958 -0.0154  0.1805 -0.0067
 6699W        W 6699   7.291   2.731   1.692 -0.3792 -0.0727 -0.1369
 6700W        W 6700   8.033   4.683   3.355 -0.3062 -0.1287  0.1741
 6701W        W 6701   9.566   7.641   6.895 -0.2507 -0.0804  0.0187
 6702W        W 6702   1.251   2.323   5.868  0.1017 -0.0352 -0.1475
 6703W        W 6703   3.960   3.807   1.971 -0.1304 -0.2239  0.1608
 6704W        W 6704   3.680   9.531   6.576  0.1171 -0.2549 -0.1198
 6705W        W 6705   3.596   0.749   5.548  0.0848  0.0972  0.0129
 6706W        W 6706   0.396   4.467   9.443 -0.2217 -0.1771 -0.0657
 6707W        W 6707   6.333   1.221   6.563 -0.0473  0.3008 -0.4204
 6708W        W 6708   9.054   6.470   0.357 -0.1052 -0.0096  0.0035
 6709W        W 6709   3.974   5.308   2.011  0.0025 -0.0924 -0.0506
 6710W        W 6710   4.790   0.900   7.961 -0.0414  0.4326 -0.3967
 6711W        W 6711   6.287   6.070   9.469  0.0889  0.2150 -0.1635
 6712W        W 6712   5.171   0.439   2.615  0.2830 -0.2623  0.2278
 6713W        W 6713   3.275   9.951   2.891  0.1655 -0.2317 -0.4008
 6714W        W 6714   6.872   2.178   7.404 -0.4774  0.0900  0.3056
 6715W        W 6715  10.299   7.966  10.239  0.1738  0.1109  0.0738
 6716W        W 6716   3.907   1.140   8.694  0.1245  0.2837 -0.3528
 6717W        W 6717   7.750   9.497   7.113  0.1954  0.0772  0.2224
 6718W        W 6718   5.705   5.572   8.752  0.2062 -0.2074 -0.1662
 6719W        W 6719   1.836   2.174   2.479  0.2929  0.1331 -0.2426
 6720W        W 6720   6.934   6.417   3.481  0.3055 -0.0021  0.1280
 6721W        W 6721   6.382   5.912   5.188 -0.0366 -0.3562 -0.1524
 6722W        W 6722   4.825   7.734   4.423  0.2317 -0.1962  0.0026
 6723W        W 6723   1.277   7.718   4.442  0.0267 -0.0462 -0.0002
 6724W        W 6724   3.289   2.045   5.536 -0.1583 -0.1726  0.0874
 6725W        W 6725   2.467   2.096   0.303  0.2445  0.2518 -0.1195
 6726W        W 6726   8.922   3.202   7.194 -0.2543  0.0057 -0.1105
 6727W        W 6727   9.058   3.777  10.229  0.0494  0.1883  0.0042
 6728W        W 6728   9.558   7.966   3.117  0.3811 -0.0596  0.2619
 6729W        W 6729   3.804   5.687   1.611  0.0281  0.0483 -0.0864
 6730W        W 6730   3.290   8.966   3.407 -0.3307 -0.4194  0.2290
 6731W        W 6731   9.618   4.743   4.224  0.0016  0.0446  0.0586
 6732W        W 6732   5.031   0.021   4.978  0.0128  0.1337  0.0724
 6733W        W 6733   2.690   6.030   7.803  0.0772  0.0643 -0.2035
 6734W        W 6734   1.393   7.588   9.391  0.0612 -0.1579 -0.1282
 6735W        W 6735   6.459   7.624   3.977 -0.2959  0.0283 -0.0750
 6736W        W 6736  10.017   1.898   8.427 -0.0269  0.0877 -0.1715
 6737W        W 6737   4.148   0.406   3.692  0.2732  0.1449  0.0222
 6738W        W 6738   0.332   9.283   0.210 -0.0123 -0.1892 -0.1668
 6739W        W 6739   3.119   5.304   4.977 -0.0520  0.1506  0.0074
 6740W        W 6740   0.920   9.131   7.375  0.2568 -0.1683  0.0404
 6741W        W 6741   4.078   3.876   5.917  0.0769  0.0719  0.0211
 6742W        W 6742   2.953   2.416   3.647 -0.1886  0.0583  0.1661
 6743W        W 6743   1.887   1.652   6.259 -0.1632  0.1207 -0.1548
 6744W        W 6744   3.110   5.053   7.753 -0.0550  0.0092 -0.2358
 6745W        W 6745   3.260   5.544   7.221  0.1142 -0.2413 -0.0508
 6746W        W 6746   5.154   6.819   6.642 -0.0559  0.1680  0.0035
 6747W        W 6747   5.093   4.961   4.174  0.1642 -0.2229 -0.0026
 6748W        W 6748   6.192   0.093   7.998  0.0485 -0.1462  0.1801
 6749W        W 6749   1.701   7.512   7.990  0.2315 -0.0523  0.2756
 6750W        W 6750   4.913   6.401   8.283 -0.2288 -0.0140 -0.0568
 6751W        W 6751   4.274   4.742   6.318 -0.0407  0.1530  0.1200
 6752W        W 6752   5.757   4.786   1.856 -0.0987  0.2870 -0.1382
 6753W        W 6753   8.971   9.096   6.878  0.1754  0.0536  0.2925
 6754W        W 6754   6.528   5.728   0.048 -0.0458  0.0218 -0.1409
 6755W        W 6755   5.189   7.764   6.530 -0.1815  0.3751  0.0226
 6756W        W 6756   3.564   2.106   8.157  0.1842  0.1769 -0.1847
 6757W        W 6757   3.716   2.284   0.288 -0.0893  0.0613 -0.0293
 6758W        W 6758   6.526   7.299   4.973  0.0619  0.0759 -0.2786
 6759W        W 6759   7.774   3.947   2.036 -0.1478  0.0821 -0.0180
 6760W        W 6760   5.536   5.204   7.341 -0.2628  0.1513 -0.0663
 6761W        W 6761   7.009   2.297   1.771 -0.0400  0.1286 -0.1930
 6762W        W 6762   0.960   0.314   0.306 -0.1524  0.0109  0.1468
 6763W        W 6763   1.221   4.775   1.838  0.0343  0.0389 -0.0385
 6764W        W 6764   9.163   1.767   5.988 -0.0113  0.0712 -0.1945
 6765W        W 6765   3.396   8.609   6.539 -0.1910 -0.0280 -0.3142
 6766W        W 6766   1.392   8.031   0.819  0.0841 -0.1335  0.0397
 6767W        W 6767   6.211   6.734   4.117  0.0911  0.0407  0.1492
 6768W        W 6768   2.516   4.089   7.181  0.2439  0.0022  0.1424
 6769W        W 6769   0.350   5.094   5.394  0.2130 -0.1410 -0.0043
 6770W        W 6770   2.247   6.139   0.535 -0.1717 -0.2319 -0.0929
 6771W        W 6771   3.376   2.928   0.952 -0.0937  0.3718 -0.0436
 6772W        W 6772   1.403   5.873   5.145  0.0639 -0.1801  0.0952
 6773W        W 6773  10.268   2.562   2.433  0.1430  0.0286 -0.0030
 6774W        W 6774   9.494   0.606   5.350  0.1106  0.3201  0.1872
 6775W        W 6775   1.372   8.112   5.046 -0.1601  0.4267 -0.1630
 6776W        W 6776   2.535   5.276   5.336  0.1292 -0.2144  0.0359
 6777W        W 6777   3.740   0.039   3.511 -0.0980 -0.1421 -0.1325
 6778W        W 6778   7.013   7.853   7.060  0.2163  0.0596 -0.1493
 6779W        W 6779   4.520   1.651   6.102 -0.0887  0.0750  0.1673
 6780W        W 6780   1.159   1.463   0.398 -0.0633  0.0186  0.1586
 6781W        W 6781   4.498   5.920   7.233  0.0110 -0.1740  0.1007
 6782W        W 6782   5.508   3.195   4.796  0.0710 -0.2427  0.2037
 6783W        W 6783   1.448   8.823   5.935  0.1307 -0.1945  0.1278
 6784W        W 6784   7.212   8.956   7.466 -0.3838  0.1919 -0.2009
 6785W        W 6785   1.100   4.109   4.246  0.0396 -0.1438 -0.0777
 6786W        W 6786   2.324   5.441   7.270 -0.0797 -0.0753  0.0496
 6787W        W 6787   7.834   1.079   3.838 -0.1079 -0.0447  0.0370
 6788W        W 6788   5.074   7.086   9.286 -0.0410  0.0170 -0.1764
 6789W        W 6789   8.485   5.284   0.573  0.2319 -0.3776  0.0430
 6790W        W 6790   3.824   4.882   6.239 -0.1119  0.4134 -0.1699
 6791W        W 6791   8.531   1.132   1.173  0.3872  0.1500  0.0152
 6792W        W 6792   4.446   5.089   4.495  0.2160 -0.2404 -0.0953
 6793W        W 6793   6.330   7.457   0.048 -0.2486 -0.3839 -0.0839
 6794W        W 6794   3.499   3.432   9.133  0.1051  0.2466  0.0690
 6795W        W 6795   1.575   4.567   5.992 -0.3297  0.1985 -0.0656
 6796W        W 6796   5.908   4.086   1.157  0.4714  0.0523  0.3120
 6797W        W 6797   8.226   9.745   6.752 -0.0458 -0.2180 -0.1713
 6798W        W 6798   9.599   9.276   2.545  0.2958 -0.0181  0.0380
 6799W        W 6799   3.681   3.226   9.969  0.4155 -0.2405 -0.0041
 6800W        W 6800   1.369   0.424   5.468  0.0013  0.0284 -0.1695
 6801W        W 6801   1.953   8.488   4.553  0.0531  0.1597 -0.0132
 6802W        W 6802   7.728   7.463   6.665 -0.1869 -0.1294  0.3624
 6803W        W 6803   4.179   1.150   0.392 -0.3627  0.1350  0.1996
 6804W        W 6804   3.250   0.707   4.681 -0.2907  0.2484  0.1188
 6805W        W 6805   7.469   8.528   2.607  0.1072 -0.0483  0.2805
 6806W        W 6806   8.794   1.435   2.743  0.1782  0.0246  0.4531
 6807W        W 6807   7.789   9.487   4.338  0.1088 -0.0389 -0.3700
 6808W        W 6808   3.292   2.509   0.012 -0.2066  0.2403 -0.2468
 6809W        W 6809   9.691   7.834   8.573  0.2311  0.1034  0.1777
 6810W        W 6810   8.956   8.619   7.618 -0.0503  0.0625  0.3415
 6811W        W 6811   1.936   1.201   6.386 -0.2970  0.0963 -0.0517
 6812W        W 6812   1.665   8.989   6.973 -0.1577 -0.0507  0.0435
 6813W        W 6813   7.388   1.163   3.036 -0.1941 -0.1021 -0.0786
 6814W        W 6814   7.013   4.800   1.509 -0.1002 -0.0580  0.1384
 6815W        W 6815   8.461   7.857   8.993  0.3389 -0.1779  0.1070
 6816W        W 6816   1.655   2.247   6.641  0.1342 -0.0961  0.1157
 6817W        W 6817   6.078   6.658  10.002  0.0663 -0.0886 -0.1454
 6818W        W 6818   1.962   8.701   7.358 -0.1399  0.2201  0.1528
 6819W        W 6819   8.470   6.817   8.019  0.2135 -0.0328 -0.0843
 6820W        W 6820   6.917   8.441   3.098 -0.1016  0.1243 -0.3060
 6821W        W 6821   5.830   5.448   4.420  0.1401  0.0281 -0.4085
 6822W        W 6822   1.924   0.228   3.849 -0.0550  0.2083  0.1751
 6823W        W 6823   8.919   3.714   7.111 -0.1063 -0.2006  0.0321
 6824W        W 6824   5.058   1.954   8.216 -0.1422 -0.4896 -0.1647
 6825W        W 6825   3.779   5.772   4.435 -0.1778 -0.1133  0.1505
 6826W        W 6826   9.143   3.144   3.890 -0.0198  0.2524  0.0250
 6827W        W 6827   2.014   7.730   2.718 -0.2835 -0.0788  0.1049
 6828W        W 6828   3.266   7.209   5.370 -0.2842 -0.2390 -0.2463
 6829W        W 6829   9.651   1.569  10.109 -0.2847 -0.0199  0.0337
 6830W        W 6830   0.937   3.460   5.353  0.1933  0.1644  0.1088
 6831W        W 6831   0.473   1.087   8.947 -0.0724 -0.0878 -0.0360
 6832W        W 6832   3.244   4.075   4.846 -0.0157  0.0918 -0.2502
 6833W        W 6833   0.556   8.996   4.157  0.0639 -0.3698 -0.0475
 6834W        W 6834   5.250   0.473   6.932 -0.0011  0.3785 -0.1586
 6835W        W 6835   4.790   3.336   0.930 -0.0296 -0.1168  0.3323
 6836W        W 6836   6.524   1.322   5.347  0.1541 -0.0231  0.0388
 6837W        W 6837   1.776   2.321   7.819 -0.2721 -0.1198 -0.0365
 6838W        W 6838   1.097   2.821   5.671 -0.2231 -0.1291  0.0606
 6839W        W 6839   0.751   4.624   5.580  0.0183  0.1362  0.1073
 6840W        W 6840   4.846   4.780   2.904 -0.0824 -0.0390 -0.0352
 6841W        W 6841   7.125   2.527   6.211 -0.0438  0.1037  0.2299
 6842W        W 6842   1.519   4.578   5.448 -0.0492  0.2459  0.3431
 6843W        W 6843   8.616   2.485   6.233 -0.0724  0.0742  0.0727
 6844W        W 6844   4.920   5.760   3.364  0.1645  0.2228  0.3753
 6845W        W 6845   8.674   9.559   9.574  0.2731 -0.2445 -0.1523
 6846W        W 6846   9.194   2.757   0.342  0.0815  0.0283 -0.2624
 6847W        W 6847   3.064   6.454   8.729  0.0493 -0.0094  0.2272
 6848W        W 6848   1.728   2.772   8.146 -0.4065  0.4016 -0.1452
 6849W        W 6849   7.785   6.976   4.005  0.1506  0.0538 -0.2975
 6850W        W 6850   8.930   8.195   3.993  0.0020 -0.2352 -0.1236
 6851W        W 6851   8.824   6.479   5.529 -0.2339  0.0702  0.1816
 6852W        W 6852   8.660   2.164   8.330  0.2756  0.0610  0.1256
 6853W        W 6853   6.173   2.481   7.936 -0.1687  0.4121  0.0399
 6854W        W 6854   5.553   7.497   1.444 -0.2192  0.0219  0.2450
 6855W        W 6855   8.565   1.750   0.626  0.3382 -0.3252 -0.2326
 6856W        W 6856   7.997   6.016   9.748  0.0771  0.0669  0.1469
 6857W        W 6857   9.232   9.151   6.144 -0.0473 -0.2005  0.1953
 6858W        W 6858   5.877   5.309   9.182  0.0785 -0.0407 -0.2249
 6859W        W 6859   7.878   9.885   8.143 -0.1689 -0.2818  0.1499
 6860W        W 6860   9.905   8.644  10.103 -0.0602 -0.0663  0.0657
 6861W        W 6861   5.379   7.664   6.989 -0.1155 -0.1046 -0.2131
 6862W        W 6862   4.510   1.072   1.905  0.4615 -0.0332  0.1518
 6863W        W 6863   7.453   5.028   1.606 -0.0693  0.1829 -0.4442
 6864W        W 6864   8.733   1.343   6.639 -0.3316  0.0398 -0.1922
 6865W        W 6865   5.970   0.553   6.360 -0.3142  0.2200  0.2667
 6866W        W 6866   6.654   5.565   5.481  0.1804  0.0212  0.1593
 6867W        W 6867   4.733   8.845   5.154  0.1397 -0.0754  0.1208
 6868W        W 6868   2.828   3.773   9.392 -0.0309  0.0154 -0.0475
 6869W        W 6869   2.772   5.841  10.078 -0.0783 -0.0557 -0.0048
 6870W        W 6870   6.535   4.049   4.337 -0.1273  0.3269  0.2094
 6871W        W 6871   4.891   9.067   0.867 -0.4084  0.1171  0.0805
 6872W        W 6872   5.196   1.896   3.048 -0.0745  0.2138  0.0784
 6873W        W 6873   7.687   4.861   8.292  0.2188 -0.0102 -0.3981
 6874W        W 6874   6.584   5.011   1.219 -0.0427  0.2810  0.0331
 6875W        W 6875   6.410   4.749   8.819  0.2503  0.1167  0.2207
 6876W        W 6876   0.190   3.823   5.934 -0.1659 -0.4147  0.1267
 6877W        W 6877   2.222   6.810   4.239 -0.1554 -0.1715 -0.0529
 6878W        W 6878   7.477   1.515   8.569 -0.1164  0.0633  0.0308
 6879W        W 6879  10.016   9.578   9.928 -0.0274  0.0348  0.1567
 6880W        W 6880   4.047   4.107  10.256  0.1396 -0.0419  0.0010
 6881W        W 6881  10.121   8.924   5.529 -0.0768  0.1748  0.1874
 6882W        W 6882   9.353   3.985   6.763  0.0737 -0.1308  0.0546
 6883W        W 6883   6.186   4.325   8.592 -0.0444  0.0149 -0.1199
 6884W        W 6884   6.818   1.801   3.579  0.2054  0.1699 -0.1867
 6885W        W 6885  10.144   8.825   2.171 -0.1652 -0.3044 -0.0359
 6886W        W 6886   1.826   3.196   3.131  0.4018  0.0449 -0.3131
 6887W        W 6887   9.141   3.617   5.507  0.2910 -0.2098 -0.0756
 6888W        W 6888   8.773   3.859   6.312  0.0635  0.1233 -0.2355
 6889W        W 6889   5.363   9.768   1.604 -0.0089  0.0698  0.0842
 6890W        W 6890   1.732   4.556   9.026 -0.2651 -0.2166  0.1916
 6891W        W 6891   6.340   2.617   0.881 -0.1192  0.2037  0.0516
 6892W        W 6892   8.268   5.342   0.107 -0.0990 -0.3388  0.0723
 6893W        W 6893   3.487   5.339   0.265  0.1460  0.2368 -0.1681
 6894W        W 6894   5.690   5.487  10.022 -0.4749 -0.1814  0.1359
 6895W        W 6895   6.106   2.864   8.550 -0.1791  0.1645 -0.1899
 6896W        W 6896   7.031   2.617   7.564  0.4213  0.1604  0.1516
 6897W        W 6897   7.028   7.191   1.646 -0.0095  0.0442  0.2041
 6898W        W 6898   1.031   2.038   4.880 -0.1547 -0.0089  0.0778
 6899W        W 6899   5.714   0.444   8.802 -0.0949  0.0066  0.0600
 6900W        W 6900   2.670   6.113   7.128 -0.0202  0.1037 -0.0287
 6901W        W 6901  10.023   6.554   9.521  0.0567 -0.4487 -0.2549
 6902W        W 6902   3.373   9.432   3.807  0.0368 -0.4070  0.0552
 6903W        W 6903   7.898   4.086   4.583  0.1403 -0.2280  0.0118
 6904W        W 6904   5.405   2.222   5.042  0.2729 -0.0722 -0.1204
 6905W        W 6905   3.612   4.862   9.174  0.2356 -0.1915 -0.0943
 6906W        W 6906   1.261   8.170   9.273  0.1446 -0.1814 -0.2366
 6907W        W 6907   9.579  10.290   7.676 -0.1232  0.1419  0.3030
 6908W        W 6908   1.285   6.240   4.123 -0.2914  0.0112  0.0291
 6909W        W 6909   8.367   9.049   5.494 -0.0969 -0.1510 -0.1094
 6910W        W 6910   6.210   8.528   2.604 -0.0038 -0.2170 -0.5427
 6911W        W 6911   3.914   1.332  10.225 -0.0087 -0.3227  0.0267
 6912W        W 6912   1.841   3.197   8.664  0.0066 -0.0239  0.0329
 6913W        W 6913   5.330   2.091   6.460  0.1934  0.0568 -0.0679
 6914W        W 6914   7.963   1.943   4.713  0.0581 -0.0384  0.1754
 6915W        W 6915  10.210   1.082   9.593  0.2470  0.0541  0.1568
 6916W        W 6916   4.485   8.594   9.818  0.0230  0.1484  0.0635
 6917W        W 6917   3.926   1.547   2.484  0.1138 -0.0572 -0.1510
 6918W        W 6918   9.816   7.466   3.015  0.0298 -0.1257  0.0408
 6919W        W 6919   6.883   0.519   2.457  0.2527  0.1696 -0.0167
 6920W        W 6920   8.436   7.921   8.497 -0.3076 -0.0499 -0.1568
 6921W        W 6921   8.424  10.257   7.496  0.0329 -0.1239  0.1891
 6922W        W 6922  10.002   1.363   4.574 -0.3945 -0.0720  0.1975
 6923W        W 6923   8.841   8.100   0.712  0.0346  0.1126  0.1282
 6924W        W 6924   8.817   0.361   8.707  0.1020  0.0690 -0.3751
 6925W        W 6925   9.961   1.512   4.096  0.0794  0.1996 -0.1460
 6926W        W 6926   7.158   7.077   7.619 -0.1298  0.1207 -0.0395
 6927W        W 6927   2.332  10.038   9.853  0.1650 -0.0844  0.0505
 6928W        W 6928   0.013   8.585   8.454  0.0759  0.0493 -0.0069
 6929W        W 6929   4.738   9.122   3.664  0.0787 -0.1201 -0.0596
 6930W        W 6930   0.558   7.926   3.503  0.1617 -0.2477  0.1110
 6931W        W 6931   6.806   3.142   9.984 -0.0850 -0.1288  0.5314
 6932W        W 6932  10.301   6.638   5.248  0.3128 -0.1041 -0.3715
 6933W        W 6933   5.572   3.942   3.214 -0.0505 -0.1438  0.0557
 6934W        W 6934   2.634   0.933   3.507 -0.0676  0.0273  0.0902
 6935W        W 6935   3.778   2.323   4.225  0.3430  0.1245 -0.1404
 6936W        W 6936  10.006   9.690   7.132 -0.0840  0.2122  0.0240
 6937W        W 6937   9.451   3.074   7.232  0.2186 -0.2420  0.0092
 6938W        W 6938   0.024   9.840   1.025 -0.3835  0.0348  0.0081
 6939W        W 6939   4.795   8.494   5.660 -0.0468  0.2927  0.0008
 6940W        W 6940   6.632   9.144   8.229 -0.0199 -0.1589 -0.0044
 6941W        W 6941   9.033   1.972   8.070  0.3975  0.2050 -0.3135
 6942W        W 6942  10.073   9.387   7.877  0.1386 -0.0003 -0.2477
 6943W        W 6943   8.189   4.982  10.083 -0.1119  0.5268 -0.1692
 6944W        W 6944   7.035   7.021  10.232  0.0669  0.0690  0.0492
 6945W        W 6945   7.007   6.458   7.242  0.3827 -0.1529 -0.1587
 6946W        W 6946   5.133   2.874   2.531  0.2082 -0.0213  0.1096
 6947W        W 6947   1.376   1.461   9.179  0.1445 -0.0878 -0.2535
 6948W        W 6948   2.228   7.985   1.786 -0.2900 -0.1524 -0.1409
 6949W        W 6949   5.739   5.906   3.427 -0.1946 -0.1287 -0.1109
 6950W        W 6950   4.257   3.092   0.924 -0.1992 -0.2198 -0.0846
 6951W        W 6951   8.019   9.977   8.635  0.0438  0.1266  0.0070
 6952W        W 6952   0.491   7.394   2.386 -0.0492  0.0105  0.0006
 6953W        W 6953   5.166   2.170   8.710  0.1143 -0.1000  0.0599
 6954W        W 6954   0.923   7.843   9.781  0.1136  0.3334 -0.1830
 6955W        W 6955   8.825   4.380   9.668  0.3327 -0.2250  0.1474
 6956W        W 6956   9.266   5.115   8.048 -0.1131  0.1876  0.0008
 6957W        W 6957   5.079   0.805   1.406 -0.0182  0.1278  0.0337
 6958W        W 6958   6.935   3.342   1.682 -0.2568  0.2358 -0.0377
 6959W        W 6959   3.891   7.015   8.621  0.1947 -0.0047  0.2479
 6960W        W 6960   0.564   4.665   9.013 -0.1931 -0.0007 -0.3121
 6961W        W 6961   2.595   6.760   8.969  0.0392  0.1274 -0.0782
 6962W        W 6962   7.866   6.480   2.896  0.1097 -0.0564  0.1571
 6963W        W 6963   7.578   7.813   3.117 -0.2370  0.1257  0.0867
 6964W        W 6964   8.595   5.502   9.598 -0.0690 -0.0511 -0.3089
 6965W        W 6965   9.857   5.789   9.543  0.0387  0.0776 -0.4247
 6966W        W 6966   3.920   2.645   2.977 -0.0433 -0.0288  0.3089
 6967W        W 6967   3.148   0.470   0.307 -0.1152  0.1256 -0.0638
 6968W        W 6968   2.516   4.754   2.734 -0.2643 -0.0041 -0.0602
 6969W        W 6969   3.742   1.082   3.956 -0.0297 -0.0191 -0.0386
 6970W        W 6970   0.450   6.675   8.226  0.0689  0.1748 -0.0904
 6971W        W 6971   5.976   7.141   3.951  0.2264 -0.2781  0.0934
 6972W        W 6972   8.327   5.347   4.625 -0.0133 -0.1588 -0.0162
 6973W        W 6973   4.908   6.186   1.651  0.1102  0.0185 -0.1324
 6974W        W 6974   4.978   4.309   2.775 -0.0444  0.2625 -0.1976
 6975W        W 6975   3.961   9.938   2.010 -0.1413 -0.1537  0.2235
 6976W        W 6976   4.612   2.083   7.875  0.0978 -0.0533  0.3299
 6977W        W 6977   4.727   7.297   0.957  0.2040 -0.0880  0.1655
 6978W        W 6978   9.770   3.078   9.987 -0.4849 -0.2790 -0.0297
 6979W        W 6979   4.624   6.917   7.330 -0.0509 -0.0193  0.0262
 6980W        W 6980   3.725   5.581   8.256 -0.1525  0.1197  0.0894
 6981W        W 6981   9.603   9.042   1.301 -0.1261 -0.1001  0.2459
 6982W        W 6982   2.233   9.287   2.199 -0.1714 -0.3550  0.1403
 6983W        W 6983   9.459   0.034   2.402 -0.4070  0.2435  0.2161
 6984W        W 6984   3.174   9.617   4.805 -0.0559 -0.1642  0.2211
 6985W        W 6985   1.565   5.269   9.447 -0.0368 -0.1810  0.1632
 6986W        W 6986  10.019  10.154   0.122 -0.0896 -0.0563  0.1860
 6987W        W 6987   9.416   5.608   8.294  0.4330 -0.1226 -0.1800
 6988W        W 6988   9.246   9.882   6.853  0.0076  0.4167 -0.3283
 6989W        W 6989   7.370   4.676   5.160 -0.1505  0.2298  0.0051
 6990W        W 6990   2.241   1.009   0.585 -0.0392 -0.0767 -0.1560
 6991W        W 6991   1.351   3.459   2.506  0.0192  0.0032  0.3427
 6992W        W 6992   2.967   6.399   0.678  0.1825 -0.1479  0.1672
 6993W        W 6993   0.727   2.368   3.921  0.1650 -0.1214  0.0169
 6994W        W 6994   0.507   6.513   2.000  0.1900 -0.0560 -0.2201
 6995W        W 6995   5.930   6.355   2.696 -0.1224 -0.0664 -0.0689
 6996W        W 6996   1.559   5.122   6.842  0.5043  0.2205 -0.2025
 6997W        W 6997   3.454   7.995   9.845 -0.3485 -0.1271 -0.1021
 6998W        W 6998   1.690   0.933   6.761 -0.0765 -0.1858  0.3374
 6999W        W 6999   8.136   3.509   5.868 -0.0721  0.1654  0.0565
 7000W        W 7000   1.573   9.458   8.835 -0.0217  0.0113  0.0473
 7001W        W 7001   5.200   8.210   1.974  0.0178 -0.1624  0.2240
 7002W        W 7002   4.264   6.967   3.635  0.0089 -0.0161 -0.3132
 7003W        W 7003   8.208   6.286   0.314  0.0143  0.0023  0.0801
 7004W        W 7004   4.298   1.766   3.648  0.1405  0.1446  0.1197
 7005W        W 7005   8.146   4.126   5.473 -0.0322  0.0247 -0.0496
 7006W        W 7006   6.648   1.745   0.211  0.0877 -0.1492  0.1192
 7007W        W 7007   0.111   7.004   7.243 -0.0289 -0.2076 -0.2808
 7008W        W 7008   4.915   5.212   8.741  0.0944  0.2233 -0.0715
 7009W        W 7009   4.271   6.286   0.046 -0.0027 -0.2111  0.2256
 7010W        W 7010   5.383   7.104   2.428 -0.1431  0.1440  0.3173
 7011W        W 7011   7.604   0.855   6.034  0.2278 -0.1149  0.1684
 7012W        W 7012   0.229   6.411   6.105  0.1363 -0.0923  0.0863
 7013W        W 7013   1.952   5.517   2.789  0.2202 -0.1434  0.0647
 7014W        W 7014   5.305   6.895   0.944 -0.0477 -0.1397  0.0005
 7015W        W 7015   6.536   2.458   4.996 -0.0994  0.0251 -0.3346
 7016W        W 7016   9.158   4.885   4.336  0.1811 -0.0805 -0.2351
 7017W        W 7017   9.829   9.852   5.674  0.1491 -0.1177  0.0571
 7018W        W 7018   2.709   0.236   7.756  0.0296  0.3515 -0.1317
 7019W        W 7019   0.634   9.795   7.778 -0.1970 -0.0524 -0.1363
 7020W        W 7020   3.170  10.049   4.410  0.3615 -0.1186  0.2084
 7021W        W 7021   2.232   2.151  10.172 -0.0577 -0.2268  0.0809
 7022W        W 7022   5.679   2.860   4.024  0.3332  0.3499  0.1507
 7023W        W 7023   3.610   5.580   6.081 -0.0438 -0.0173 -0.0971
 7024W        W 7024   8.777   3.868   9.743 -0.2972 -0.0942 -0.1544
 7025W        W 7025   4.551   7.015   7.824 -0.1945 -0.0310 -0.2036
 7026W        W 7026   8.479   9.673   1.058  0.0425 -0.1441 -0.0428
 7027W        W 7027   6.470   9.403   5.442  0.5650  0.5076  0.1602
 7028W        W 7028   8.396   9.010   2.172 -0.0982  0.0730  0.1240
 7029W        W 7029   7.592   2.470   6.356  0.0664  0.1605  0.0462
 7030W        W 7030   2.678   2.856   9.594 -0.1227  0.2244  0.2001
 7031W        W 7031   3.225   9.162   0.861  0.0486  0.0644  0.1892
 7032W        W 7032   5.756   6.318   9.868  0.0142  0.0627  0.1796
 7033W        W 7033   3.365   3.389   3.818  0.2837 -0.2437  0.1407
 7034W        W 7034   2.886   6.153   0.199  0.0827 -0.1119 -0.1078
 7035W        W 7035   0.251   3.363   5.805  0.1280  0.1700 -0.2060
 7036W        W 7036   6.173   9.213   8.258 -0.0960 -0.1242  0.3983
 7037W        W 7037   5.668   4.025   0.623  0.0072 -0.3866  0.0262
 7038W        W 7038  10.018   7.409   5.113 -0.0759 -0.1892 -0.1491
 7039W        W 7039   8.445   7.149   9.492  0.2193  0.0916 -0.0247
 7040W        W 7040   2.468   6.531   0.731  0.0372  0.0770  0.2458
 7041W        W 7041   2.377   3.523   8.107  0.0517 -0.1725 -0.4183
 7042W        W 7042   4.366   5.819   8.897  0.0785  0.0541 -0.2914
 7043W        W 7043   2.211   6.931   8.637 -0.1247  0.1646  0.0202
 7044W        W 7044   2.080   4.568   5.950  0.0153  0.0153 -0.1329
 7045W        W 7045   3.574   5.432   9.669  0.3510 -0.1850 -0.0225
 7046W        W 7046   8.523   7.505   4.819  0.0473  0.0081  0.0041
 7047W        W 7047   7.113   3.908   9.565 -0.1007 -0.2152  0.3819
 7048W        W 7048   8.315  10.063   3.080  0.2704 -0.2040 -0.2255
 7049W        W 7049   9.499   5.972   7.930  0.0147  0.1000 -0.1176
 7050W        W 7050   8.832   5.800  10.063 -0.2324  0.1792 -0.2934
 7051W        W 7051   6.394   3.510   5.362 -0.2245  0.0219  0.0534
 7052W        W 7052   0.648   0.692  10.136  0.1769 -0.0671  0.1114
 7053W        W 7053   9.007   5.622   6.906  0.0410  0.0134  0.2986
 7054W        W 7054   1.310   5.824   9.916 -0.2626  0.6225  0.0958
 7055W        W 7055   6.390   8.675   1.722  0.2660  0.1362  0.2570
 7056W        W 7056  10.062   5.580   0.440  0.2460  0.1425  0.1253
 7057W        W 7057   2.280   2.657   6.158  0.0286  0.0358 -0.0079
 7058W        W 7058   2.456   5.877   8.782  0.1053 -0.0386  0.2408
 7059W        W 7059   6.243   2.645   1.742  0.1161 -0.2059 -0.0432
 7060W        W 7060   8.861  10.294   9.948  0.2210 -0.1833  0.2756
 7061W        W 7061   3.212   5.882   9.810  0.1229  0.1427 -0.0211
 7062W        W 7062   6.012   4.006   6.772  0.1074 -0.0381  0.2086
 7063W        W 7063   3.993   5.387   7.763 -0.1230 -0.2349  0.3362
 7064W        W 7064   5.408   4.457   9.275  0.3481 -0.2768 -0.0291
 7065W        W 7065   4.737   9.028   5.625  0.0290  0.0536 -0.0829
 7066W        W 7066   1.729   5.493   3.723 -0.2148  0.0245  0.2305
 7067W        W 7067   0.948   2.052   2.784  0.0989  0.1034 -0.0725
 7068W        W 7068   8.360   4.738   7.529 -0.2392  0.2705  0.1593
 7069W        W 7069   1.078   7.010   7.035 -0.0717  0.3998 -0.0256
 7070W        W 7070   9.150   6.341   5.148  0.0501  0.0184  0.1187
 7071W        W 7071   0.862   7.407   2.677  0.2450 -0.0687 -0.1120
 7072W        W 7072   0.515   7.754   1.197 -0.2732 -0.0282  0.0995
 7073W        W 7073   8.773  10.110   1.954  0.0036  0.1963  0.1759
 7074W        W 7074   1.629   6.897   2.099 -0.0843 -0.2877  0.1661
 7075W        W 7075  10.119   1.154   7.876 -0.1545  0.1077  0.0674
 7076W        W 7076   2.890   2.465   4.900  0.1849  0.0668 -0.3503
 7077W        W 7077   6.396   0.342   2.403 -0.2782  0.0973  0.0442
 7078W        W 7078   9.396   5.339   5.017 -0.1340  0.2482 -0.1500
 7079W        W 7079   0.212   4.074   9.770 -0.0741  0.0930 -0.0577
 7080W        W 7080   3.606   8.259   5.495 -0.0090 -0.0957 -0.2435
 7081W        W 7081   4.000   9.217   9.852 -0.1591 -0.1490  0.2571
 7082W        W 7082   1.526   0.711   9.663  0.1147 -0.0558  0.1211
 7083W        W 7083   8.821   1.673   9.171 -0.1461 -0.2354 -0.0158
 7084W        W 7084   4.764   9.576   1.778  0.2386  0.2478  0.2148
 7085W        W 7085   3.809   9.593   2.409  0.0091 -0.3074  0.0987
 7086W        W 7086   0.341   1.169   1.270 -0.2310  0.0468 -0.0002
 7087W        W 7087   6.904   0.608   9.472  0.2659  0.1161  0.2463
 7088W        W 7088   8.585   3.460   5.503  0.0721  0.2571  0.0458
 7089W        W 7089   6.944   8.487   1.877  0.2239 -0.0257  0.2280
 7090W        W 7090   0.135   0.834   5.681  0.0636 -0.1641  0.4561
 7091W        W 7091   7.820   8.425   4.009 -0.3527  0.2831  0.0881
 7092W        W 7092   1.987   0.607   7.058 -0.0737  0.0011  0.0256
 7093W        W 7093   3.532   1.470   4.190  0.1001  0.3269  0.0753
 7094W        W 7094   2.936   7.977   4.933 -0.1455 -0.0363  0.0893
 7095W        W 7095   7.372   6.925   4.716 -0.0240 -0.1522 -0.0889
 7096W        W 7096   1.974   8.214   7.643 -0.0855 -0.1303  0.0159
 7097W        W 7097   6.271   6.252   0.956  0.1297  0.0855 -0.0394
 7098W        W 7098   5.059   5.069   2.544 -0.2574 -0.0443 -0.1688
 7099W        W 7099   0.916   5.857   7.451  0.1917  0.0058  0.3367
 7100W        W 7100   4.700   9.977   2.394  0.1887  0.3801 -0.0741
 7101W        W 7101   5.125   4.134   4.666  0.3163 -0.0621  0.1261
 7102W        W 7102   7.559   3.674   9.498 -0.1713  0.5680 -0.1055
 7103W        W 7103   1.812   4.900   7.257  0.0488 -0.0123  0.4564
 7104W        W 7104   8.552   0.857   6.205 -0.0833  0.0804  0.0611
 7105W        W 7105   2.730   0.996   5.315  0.1694  0.0406 -0.0055
 7106W        W 7106   6.544   4.142   3.369 -0.0928  0.0229  0.0375
 7107W        W 7107   3.806   6.288   0.330  0.0263  0.1789 -0.3212
 7108W        W 7108   4.457   5.339   6.568 -0.0069  0.1556 -0.0436
 7109W        W 7109   8.113   6.182   7.172  0.1944 -0.1843  0.0907
 7110W        W 7110  10.292   0.203   4.945 -0.2145  0.0961 -0.5056
 7111W        W 7111   9.870   8.738   0.237 -0.2229 -0.0216 -0.4082
 7112W        W 7112   2.576   5.403  10.171 -0.2223  0.1105 -0.1223
 7113W        W 7113   5.919   5.721   9.623 -0.0499  0.0636  0.1059
 7114W        W 7114   2.464  10.043   8.448 -0.2247 -0.0615 -0.0522
 7115W        W 7115   2.981   6.462   1.162  0.0566 -0.2418  0.2624
 7116W        W 7116   6.285   7.948   2.684 -0.0284  0.0511 -0.1232
 7117W        W 7117   6.962   3.694   0.400  0.0286 -0.0392  0.0003
 7118W        W 7118   0.709   8.762   2.347  0.0683 -0.5747 -0.2102
 7119W        W 7119   5.223   6.525   7.086  0.1231  0.0529  0.0975
 7120W        W 7120   8.007   1.482   7.062  0.0646  0.0599 -0.2132
 7121W        W 7121   3.094   4.223   3.764  0.1155 -0.0900  0.0010
 7122W        W 7122   6.245   9.600   7.498  0.0492  0.0479 -0.0511
 7123W        W 7123   7.589   5.179   9.871 -0.2578  0.0060  0.0451
 7124W        W 7124   5.836   2.631   0.750  0.0591 -0.1256 -0.1400
 7125W        W 7125   2.912   0.509   9.448  0.0757 -0.0071 -0.4129
 7126W        W 7126   6.943   4.796   5.410 -0.0332  0.0386  0.1040
 7127W        W 7127   4.035   1.990   9.740 -0.1585  0.1099  0.0901
 7128W        W 7128   7.578   0.955   2.613  0.0344 -0.1216 -0.0029
 7129W        W 7129   7.460   8.287   6.373  0.1282 -0.0507 -0.0441
 7130W        W 7130   2.661   0.678   8.481 -0.1256  0.0356 -0.2505
 7131W        W 7131   5.223   1.366   6.061 -0.2196  0.1160 -0.1195
 7132W        W 7132   0.450   6.256   8.747 -0.0178 -0.1754  0.1673
 7133W        W 7133   3.197   2.990   9.239  0.1002  0.2817 -0.1731
 7134W        W 7134   6.289   4.134   0.706 -0.0402 -0.2006 -0.0491
 7135W        W 7135   0.989   6.847   1.380  0.2439  0.2716  0.2966
 7136W        W 7136   7.513   3.248   2.005  0.5136  0.1733  0.1018
 7137W        W 7137   8.347   9.733   8.248  0.0006  0.0309 -0.2146
 7138W        W 7138   5.563   3.094   8.440 -0.4006 -0.0723  0.0519
 7139W        W 7139   7.407   2.021   5.600  0.2299 -0.0267  0.2106
 7140W        W 7140   8.591   3.499   8.517  0.1481 -0.2114 -0.2820
 7141W        W 7141   9.044   5.420   4.685  0.1124 -0.0186  0.1860
 7142W        W 7142   5.595   4.036  10.317 -0.3942  0.4444 -0.2008
 7143W        W 7143   6.444   6.588   5.655 -0.0612  0.0003 -0.2588
 7144W        W 7144   1.785   9.768   4.469  0.2623 -0.3371  0.0648
 7145W        W 7145   9.392   9.574   4.318  0.0648  0.2458  0.0715
 7146W        W 7146   2.858   1.269   2.499 -0.1047 -0.1678  0.0677
 7147W        W 7147   2.958   3.238   6.941 -0.2635 -0.3088  0.0052
 7148W        W 7148   9.928   8.757   3.098 -0.0827  0.4302 -0.0081
 7149W        W 7149   0.018   1.777   2.810  0.0949  0.0785 -0.5038
 7150W        W 7150   1.386   6.666   6.674 -0.3328 -0.1346 -0.1507
 7151W        W 7151   9.744   7.089   9.353  0.1052 -0.2743 -0.0183
 7152W        W 7152   0.633   4.752   0.484  0.4890  0.0512 -0.1083
 7153W        W 7153   4.573   7.092   5.542 -0.0607  0.1335 -0.1178
 7154W        W 7154   5.983   9.517   5.166 -0.1223  0.0180 -0.1235
 7155W        W 7155   1.952   9.155   3.905  0.1614  0.2123  0.3853
 7156W        W 7156   8.938   0.804   7.903 -0.3328 -0.0900 -0.1607
 7157W        W 7157   0.516   7.952   2.941 -0.0382  0.0841  0.2050
 7158W        W 7158   8.716   1.730  10.277  0.2431 -0.3088 -0.0739
 7159W        W 7159   6.715   1.857   8.174  0.0171 -0.1866  0.2076
 7160W        W 7160   5.418   3.529   5.307 -0.1612  0.0459  0.0614
 7161W        W 7161   1.631   0.825  10.212 -0.0292 -0.2318  0.1125
 7162W        W 7162   3.774   0.237   5.385 -0.4763 -0.1794  0.0592
 7163W        W 7163   4.403   9.833   5.729 -0.1099  0.1611  0.1745
 7164W        W 7164   3.758   3.750   1.447  0.3264  0.2340  0.1164
 7165W        W 7165   7.478   0.238   5.237  0.0909  0.0403  0.1537
 7166W        W 7166   6.805  10.005  10.235 -0.3021 -0.2062 -0.1013
 7167W        W 7167   0.949   6.937   0.874  0.1645  0.0565  0.2231
 7168W        W 7168   9.433   4.382   5.576 -0.2060  0.0021 -0.0757
 7169W        W 7169   5.688   2.021   4.597 -0.3494 -0.2352 -0.1512
 7170W        W 7170   3.366   2.448   6.741  0.4104  0.0798  0.1735
 7171W        W 7171   0.245   8.409   2.219  0.1120  0.0661  0.2989
 7172W        W 7172   8.937  10.260   4.811  0.2186 -0.0836 -0.3056
 7173W        W 7173  10.313   3.671   7.161 -0.0001 -0.2022  0.0352
 7174W        W 7174   5.029   7.739   0.814  0.1868 -0.2671 -0.0256
 7175W        W 7175   1.732   3.151   3.678 -0.2534 -0.2967  0.2678
 7176W        W 7176  10.169   0.982   6.003  0.0709  0.0790  0.2255
 7177W        W 7177   7.482   0.478   7.597 -0.0031 -0.0738 -0.2241
 7178W        W 7178   1.504   7.610   9.868 -0.0757  0.0508  0.0540
 7179W        W 7179   9.863   4.779   0.144 -0.3541 -0.1395  0.0878
 7180W        W 7180   4.887   7.121   0.111  0.2022  0.1481  0.3597
 7181W        W 7181   9.927   4.695   5.235 -0.1986  0.1380 -0.0105
 7182W        W 7182   3.585   9.290   4.743  0.0576 -0.2264  0.0010
 7183W        W 7183   1.020   5.516   2.941 -0.1309 -0.2405  0.1016
 7184W        W 7184   4.912   7.093   1.714 -0.1704  0.2013 -0.0322
 7185W        W 7185   0.054   8.811   0.029 -0.0160  0.1225 -0.0062
 7186W        W 7186   2.823   1.244   1.977 -0.4010  0.0970  0.0081
 7187W        W 7187   4.857   5.728   2.800  0.0358  0.2826  0.0445
 7188W        W 7188   0.157   0.509   6.661 -0.0363 -0.2765  0.0753
 7189W        W 7189   7.174   1.037   9.399  0.0761 -0.2918  0.1186
 7190W        W 7190   5.950   9.596   2.604 -0.0474  0.0445 -0.1573
 7191W        W 7191  10.267   7.646   6.036  0.2520  0.1891 -0.3050
 7192W        W 7192   7.765   5.992   3.044  0.0861 -0.0993  0.0786
 7193W        W 7193   1.707   2.503   6.054 -0.1217 -0.1029 -0.2439
 7194W        W 7194   4.341   4.119   5.449  0.2162 -0.2100 -0.0256
 7195W        W 7195   6.038   3.195   7.614 -0.2258 -0.1187  0.0933
 7196W        W 7196   1.353   2.336   4.501  0.1485  0.1570 -0.0948
 7197W        W 7197   5.392   0.840   2.992  0.0443 -0.1831 -0.0601
 7198W        W 7198   3.637   2.006   5.021 -0.1306  0.2174 -0.1371
 7199W        W 7199   6.426   7.137   3.026  0.2335  0.0063  0.1242
 7200W        W 7200   0.643   2.731   0.866 -0.3139  0.3261  0.5676
 7201W        W 7201   1.981   4.343   5.433 -0.0585  0.0624  0.0825
 7202W        W 7202   9.370   8.130   2.296 -0.0655 -0.0605  0.3964
 7203W        W 7203   1.826   9.960   7.678  0.0315  0.1480 -0.2319
 7204W        W 7204   8.132   6.741   8.482 -0.2320  0.2318  0.0632
 7205W        W 7205   9.911   4.336   4.805 -0.1501  0.1082  0.1953
 7206W        W 7206   7.771   6.894   7.585 -0.1061 -0.2341 -0.1222
 7207W        W 7207   4.760   1.259   6.441  0.0937 -0.1415  0.0938
 7208W        W 7208   6.343   0.474   4.410 -0.1254 -0.3411 -0.1225
 7209W        W 7209   0.114   8.221   3.530 -0.4029  0.0387  0.0234
 7210W        W 7210   1.994   3.024   5.902  0.3325  0.1071 -0.0564
 7211W        W 7211   0.987  10.149   7.394  0.1581 -0.1069 -0.1555
 7212W        W 7212   4.658   2.622   6.237  0.1838 -0.0789 -0.0957
 7213W        W 7213   1.698   4.883   4.743 -0.1324 -0.0528  0.0796
 7214W        W 7214   5.273   8.738   0.574 -0.1609  0.2640  0.0378
 7215W        W 7215   3.765   1.205   5.409 -0.0122 -0.1631 -0.0998
 7216W        W 7216   7.346   3.892   5.522 -0.0338  0.2337  0.0858
 7217W        W 7217   0.548   0.803   8.301  0.2526 -0.6176 -0.1953
 7218W        W 7218   4.783   0.374   3.563  0.0873  0.0602 -0.1440
 7219W        W 7219   3.543   3.625   0.239  0.0103 -0.0194  0.1280
 7220W        W 7220   6.083   4.471   5.203 -0.2425 -0.0394 -0.0370
 7221W        W 7221   5.051   6.301   5.636  0.2493  0.0765  0.0244
 7222W        W 7222   3.334   8.141   7.751  0.2787 -0.2371  0.0642
 7223W        W 7223   2.823   1.125   0.566  0.3205  0.2974  0.0086
 7224W        W 7224   5.833   3.699   6.321  0.0433 -0.0008 -0.2379
 7225W        W 7225   3.459   8.745   4.546 -0.0042  0.0590 -0.4688
 7226W        W 7226   6.249   7.314   2.605  0.0117  0.2452  0.0755
 7227W        W 7227   8.984   8.927   2.078  0.1897 -0.1040  0.3880
 7228W        W 7228   5.485   3.651   0.292 -0.0329 -0.0107  0.1305
 7229W        W 7229   5.599   7.025   9.412  0.4368  0.1435  0.0558
 7230W        W 7230   9.882   6.492   5.457  0.0779  0.1582 -0.1844
 7231W        W 7231   3.768   3.468   0.989  0.0161 -0.0339  0.1896
 7232W        W 7232   8.316   0.721   1.322 -0.2233  0.1920  0.0555
 7233W        W 7233   6.953   1.790   5.945 -0.0273  0.0752 -0.2307
 7234W        W 7234   6.945   6.992   7.175  0.0846 -0.1436 -0.2042
 7235W        W 7235   2.085   4.935   1.984 -0.0086 -0.2545  0.1386
 7236W        W 7236   3.556   7.205   3.687 -0.0064 -0.1713 -0.4210
 7237W        W 7237   3.472   5.854   3.574 -0.1811 -0.0870 -0.1768
 7238W        W 7238   8.308   9.950   2.522  0.1597 -0.1023 -0.1344
 7239W        W 7239   6.463   8.738   8.523 -0.0685  0.1342 -0.2591
 7240W        W 7240   6.765   5.976   2.202 -0.1654  0.3401 -0.1242
 7241W        W 7241   2.925   9.118   3.928  0.2088  0.1456  0.0421
 7242W        W 7242   8.165   6.594   0.725 -0.4431 -0.1206  0.1526
 7243W        W 7243   0.629   5.512   5.096  0.1179 -0.2112  0.1889
 7244W        W 7244   9.152   0.599   6.962 -0.0731 -0.4402 -0.2261
 7245W        W 7245   3.982   0.909   3.608  0.1541  0.2266 -0.0880
 7246W        W 7246   8.283   6.741   3.880 -0.0133  0.1239 -0.1579
 7247W        W 7247   1.283   9.607   4.985 -0.2657 -0.1425  0.2535
 7248W        W 7248   3.908   3.120   8.957 -0.1480  0.2424  0.1089
 7249W        W 7249   6.689   1.580   1.194  0.2142  0.0853  0.0159
 7250W        W 7250   0.363   6.001   7.583 -0.1388 -0.3430 -0.0558
 7251W        W 7251   9.280  10.053   8.855  0.3040  0.1395 -0.0841
 7252W        W 7252   0.357   7.048   1.985  0.0104 -0.0915 -0.1175
 7253W        W 7253   4.798   0.192   2.696  0.0493 -0.1999 -0.0956
 7254W        W 7254   1.149   0.831   2.827  0.0918  0.0713 -0.3083
 7255W        W 7255   8.686   1.757   2.260 -0.2524 -0.0166 -0.2838
 7256W        W 7256   4.865   2.309   0.663  0.0865 -0.0723 -0.1962
 7257W        W 7257  10.003   1.900   4.703 -0.2623 -0.1901 -0.0688
 7258W        W 7258   6.769   7.883   5.931 -0.0029  0.2265 -0.1173
 7259W        W 7259   6.922   1.250   6.448  0.1856  0.0931 -0.4154
 7260W        W 7260   4.110   2.525   5.225 -0.1196  0.1026  0.2088
 7261W        W 7261   0.355   6.844   6.502  0.3872 -0.0929 -0.2429
 7262W        W 7262   4.369   8.956   2.173  0.1421 -0.1790 -0.1778
 7263W        W 7263   1.918   8.124   6.128  0.1891  0.0261 -0.1181
 7264W        W 7264   9.745   1.947   0.583  0.2848  0.0774  0.1885
 7265W        W 7265   6.302   4.050   5.435  0.2412  0.0621 -0.1877
 7266W        W 7266  10.019   1.999   3.797 -0.1530  0.0556 -0.1390
 7267W        W 7267   3.089   9.765   6.175  0.2100  0.0290  0.0638
 7268W        W 7268   1.186   3.231   7.699 -0.2294 -0.2318 -0.4156
 7269W        W 7269   6.650   1.664   0.719 -0.1149 -0.0618  0.1852
 7270W        W 7270   6.102   2.900   2.978  0.1412 -0.1396  0.2931
 7271W        W 7271   0.958   0.340   4.861 -0.1195  0.1309  0.0738
 7272W        W 7272   7.275   1.415   3.436 -0.2763 -0.1371 -0.1078
 7273W        W 7273  10.074   0.370   2.259 -0.2215 -0.0206 -0.2804
 7274W        W 7274   6.738   3.616   4.059  0.0725 -0.3479  0.0483
 7275W        W 7275   9.446   0.993   9.436 -0.0572 -0.0128 -0.0488
 7276W        W 7276   8.691   0.377   4.932  0.4117 -0.0410  0.2859
 7277W        W 7277   1.214   3.555   0.723  0.0033  0.2681 -0.0978
 7278W        W 7278   2.557   6.998   3.681  0.0393 -0.2783 -0.0651
 7279W        W 7279   2.233   8.017   4.391  0.4407 -0.1958  0.1122
 7280W        W 7280   6.055   8.805   9.176  0.0522  0.0631 -0.1535
 7281W        W 7281   9.634   6.500   8.631 -0.1640 -0.2051  0.0931
 7282W        W 7282   7.590   8.835   5.606 -0.1017  0.0603 -0.3707
 7283W        W 7283   5.568   1.949   9.262 -0.3180 -0.0001  0.0329
 7284W        W 7284   0.368   0.104   1.689  0.0934 -0.0333  0.3044
 7285W        W 7285   4.721   3.977   3.229  0.0592 -0.0612  0.0863
 7286W        W 7286   9.052   9.726   1.707 -0.0264 -0.1852 -0.0980
 7287W        W 7287   2.303   9.478   3.692  0.1435  0.2531  0.0302
 7288W        W 7288  10.275   9.865   6.583 -0.3909  0.3196  0.2837
 7289W        W 7289   5.884   8.088   1.154  0.0586  0.0682 -0.0402
 7290W        W 7290   9.309   8.859   1.007 -0.2480 -0.1997  0.1792
 7291W        W 7291   2.364   9.046   5.332 -0.3113  0.0138 -0.1325
 7292W        W 7292   7.945   1.508   5.026 -0.0420 -0.2000 -0.0858
 7293W        W 7293   1.410   4.419   3.570 -0.0010  0.0240  0.2457
 7294W        W 7294   5.823   6.628   9.088 -0.0200  0.2439 -0.4274
 7295W        W 7295   4.693   3.576   8.098 -0.1221  0.0513 -0.1903
 7296W        W 7296   9.712   2.192   6.062  0.1980  0.1878  0.0439
 7297W        W 7297   2.661   8.936   2.886  0.0261  0.0523 -0.0854
 7298W        W 7298   2.888   4.573   2.979  0.1050  0.2992 -0.0351
 7299W        W 7299   4.089   6.381   1.599  0.0494 -0.0397  0.0189
 7300W        W 7300   6.907   7.486   0.683  0.1787 -0.1464  0.2323
 7301W        W 7301   2.513   1.625   4.003  0.1776 -0.1416  0.0480
 7302W        W 7302   2.147   3.527   1.055 -0.3094 -0.1292 -0.2472
 7303W        W 7303   9.859   9.612   3.687 -0.0858 -0.0660  0.0424
 7304W        W 7304   2.157   9.235   7.056 -0.0329  0.0545  0.0031
 7305W        W 7305   2.653   5.161   4.722 -0.3015  0.0947  0.3502
 7306W        W 7306   2.568   6.048   3.851 -0.0213  0.0958  0.2230
 7307W        W 7307   0.632   1.742   6.821 -0.1596  0.0032 -0.1835
 7308W        W 7308   8.413   8.517   5.323  0.3020 -0.2124 -0.2169
 7309W        W 7309   2.991   3.709   6.752 -0.0310  0.1665  0.0387
 7310W        W 7310   2.730   8.528   5.649  0.2170  0.0885 -0.1108
 7311W        W 7311   1.022   5.816   0.042 -0.2156 -0.2751  0.0698
 7312W        W 7312   2.471   5.215   1.739 -0.0061 -0.1792  0.1880
 7313W        W 7313   1.712   2.109   1.978 -0.0570 -0.0855  0.0417
 7314W        W 7314   2.349   7.112  10.307 -0.1156 -0.0550 -0.0072
 7315W        W 7315   3.418   3.789   2.598 -0.3341  0.3151 -0.0355
 7316W        W 7316   8.747   4.863   8.467  0.1405 -0.0218 -0.0050
 7317W        W 7317   5.342   3.505   6.871 -0.2479  0.0552  0.0583
 7318W        W 7318   5.014   4.485   9.709  0.1102  0.0392  0.1977
 7319W        W 7319  10.201   1.030   3.730 -0.0894  0.0758 -0.0925
 7320W        W 7320   8.647   3.933   5.274 -0.2611 -0.4435 -0.0010
 7321W        W 7321   8.249   6.220   3.062 -0.1872  0.1233  0.0225
 7322W        W 7322   8.809   1.321   4.744 -0.0193  0.1666 -0.3295
 7323W        W 7323   1.075   0.020   6.940  0.2418 -0.0784  0.2692
 7324W        W 7324   6.849   1.486   4.968 -0.0680 -0.1111 -0.0317
 7325W        W 7325   1.166   8.183   7.219 -0.1808 -0.1071  0.1925
 7326W        W 7326   0.104   0.683   4.915 -0.1947 -0.0101 -0.1372
 7327W        W 7327   4.997   1.651  10.008 -0.1607 -0.0006  0.1605
 7328W        W 7328   1.850   4.047   5.027  0.2542 -0.0417 -0.1049
 7329W        W 7329  10.195   2.346   9.792 -0.1095 -0.0573  0.0323
 7330W        W 7330   3.988   4.683   3.536 -0.2068 -0.0140  0.2783
 7331W        W 7331   8.240   0.387   8.936 -0.1432 -0.1709 -0.0072
 7332W        W 7332   3.624   3.156   2.636  0.0901 -0.2112  0.1648
 7333W        W 7333   2.958   9.178   1.416  0.0476  0.1669  0.1512
 7334W        W 7334   6.008  10.203   6.804  0.2541 -0.1542 -0.0660
 7335W        W 7335   1.074   4.967   3.059  0.3416  0.2844 -0.1424
 7336W        W 7336   2.203  10.166   8.872  0.0462  0.1486  0.0497
 7337W        W 7337   5.014   9.400   5.169 -0.0476  0.0978  0.1311
 7338W        W 7338   1.001   1.960   4.361  0.1301  0.1423 -0.1369
 7339W        W 7339   7.675   9.860   1.636  0.0224 -0.1907 -0.0707
 7340W        W 7340   6.199   3.648   1.107  0.2332 -0.0960 -0.0556
 7341W        W 7341   3.099   8.525   6.157 -0.1493  0.1085 -0.0467
 7342W        W 7342   0.407   9.396   9.832 -0.0769  0.1307 -0.1574
 7343W        W 7343   3.699   9.837   3.200 -0.0556 -0.1321 -0.0769
 7344W        W 7344   6.393   7.544   9.208  0.0847 -0.0757  0.0072
 7345W        W 7345   0.332   3.230   0.720 -0.3004  0.3020 -0.1619
 7346W        W 7346   7.239   8.056   6.033  0.0753 -0.1754 -0.0238
 7347W        W 7347   3.794   8.634   4.197  0.0488  0.0322 -0.5262
 7348W        W 7348   9.048   2.238   3.507  0.1138 -0.0431  0.4134
 7349W        W 7349   8.118   3.574   8.309  0.1808  0.2204 -0.1315
 7350W        W 7350   6.165   2.927   3.695  0.2240 -0.1025 -0.2163
 7351W        W 7351   0.413   9.996   9.874  0.3629  0.0276 -0.3310
 7352W        W 7352   2.876  10.256   2.040  0.2639  0.1730  0.0479
 7353W        W 7353   8.776   7.885   3.049 -0.2705 -0.0940  0.0169
 7354W        W 7354   4.063   5.829   7.904  0.0952 -0.1458 -0.2192
 7355W        W 7355   6.830   4.049   0.765 -0.0434 -0.1250  0.0517
 7356W        W 7356   3.135   9.889   7.753 -0.0002 -0.2568 -0.1401
 7357W        W 7357   8.616   0.207   3.851  0.0689  0.1645 -0.1338
 7358W        W 7358   3.406   5.947   2.658  0.4346  0.2110 -0.1648
 7359W        W 7359   4.214   7.582   2.720 -0.0633 -0.3547  0.3514
 7360W        W 7360   1.604   5.085  10.273  0.3039 -0.1775 -0.2564
 7361W        W 7361   3.013   8.255   2.239  0.1567  0.2639 -0.0472
 7362W        W 7362   4.650   2.911   2.835 -0.0162 -0.0818  0.0085
 7363W        W 7363   6.261   9.652   5.930  0.0858  0.1150 -0.0659
 7364W        W 7364   1.942   7.991   3.115  0.1081  0.0006  0.0337
 7365W        W 7365   4.324   1.453   8.471  0.1977  0.2276  0.3515
 7366W        W 7366   0.559   6.035   5.731  0.2022  0.0478  0.1147
 7367W        W 7367   0.541   8.286   8.409 -0.3472  0.0342 -0.1951
 7368W        W 7368   7.561   1.538   6.799  0.2675  0.2330 -0.1138
 7369W        W 7369   1.952   4.895   4.336 -0.0288 -0.0516  0.0636
 7370W        W 7370   6.268   2.999   9.685  0.1739  0.3257  0.0723
 7371W        W 7371   9.659   7.218   6.697  0.0099  0.4330 -0.0706
 7372W        W 7372   7.831   9.847   2.323  0.2534 -0.1461  0.1423
 7373W        W 7373   0.598   7.077   6.166 -0.0339 -0.1225 -0.3135
 7374W        W 7374   6.770   5.488   9.894 -0.1171 -0.4386 -0.1215
 7375W        W 7375   9.081   5.320   0.205 -0.1063 -0.2180 -0.3080
 7376W        W 7376   0.984   7.302   4.642  0.0241 -0.1782  0.1389
 7377W        W 7377   2.705   9.565   4.032 -0.1967 -0.3492  0.0023
 7378W        W 7378   9.993   2.653   3.295  0.2425  0.0080 -0.0923
 7379W        W 7379   4.393   3.648   9.296 -0.0536  0.2133 -0.0996
 7380W        W 7380   8.385   2.420   7.934 -0.4193  0.0907 -0.0306
 7381W        W 7381   3.349   4.438   7.655  0.0739  0.0182  0.0573
 7382W        W 7382   2.871   6.495  10.183  0.2406  0.0231  0.3471
 7383W        W 7383   4.381   9.266   8.631 -0.2972 -0.1556 -0.0124
 7384W        W 7384   1.842   4.124   5.884 -0.1177 -0.2637 -0.1438
 7385W        W 7385   6.639   9.641   2.926  0.1082  0.0750 -0.3093
 7386W        W 7386   9.477   1.659   0.259  0.1270  0.0469  0.1727
 7387W        W 7387   1.277   1.759   7.397 -0.2139 -0.1047 -0.0379
 7388W        W 7388   3.957   6.071   8.384  0.0063  0.1229 -0.0298
 7389W        W 7389   9.911   5.719   8.327  0.1213 -0.2449  0.0505
 7390W        W 7390   4.499   1.134   9.386 -0.0738 -0.1205 -0.1028
 7391W        W 7391   1.904   2.730   0.389  0.5175 -0.0449 -0.1711
 7392W        W 7392   6.623   6.530   1.137  0.0276  0.1139  0.2326
 7393W        W 7393   0.419   0.651   7.834  0.2054  0.1988  0.1481
 7394W        W 7394   1.157   9.184   8.779 -0.2619  0.0865 -0.1089
 7395W        W 7395   8.608   3.405   0.031  0.0932 -0.0871  0.0259
 7396W        W 7396   0.936   3.844   6.877  0.1609  0.0922 -0.2505
 7397W        W 7397   6.706   0.660   3.075 -0.0491 -0.0718  0.0135
 7398W        W 7398   9.475   8.918   6.934  0.2470  0.0039  0.2126
 7399W        W 7399   3.623   3.173   6.386 -0.3003 -0.0187  0.3554
 7400W        W 7400   7.572   0.877   7.910 -0.3783 -0.2717 -0.1407
 7401W        W 7401   6.444   6.545   0.486 -0.0551 -0.2783  0.0978
 7402W        W 7402   2.700   9.000   0.917  0.1504  0.1574 -0.0331
 7403W        W 7403   0.193   3.047   6.799  0.3277 -0.1206  0.2425
 7404W        W 7404   0.142   2.086   6.532  0.3153  0.2291  0.0202
 7405W        W 7405   1.962   1.787   6.709  0.1413 -0.4740 -0.1506
 7406W        W 7406   4.584   8.535   2.493 -0.0854 -0.2454  0.0580
 7407W        W 7407   6.146   0.111   6.384  0.1218 -0.1257 -0.1596
 7408W        W 7408   1.971   1.105   4.191 -0.0294 -0.3024 -0.4002
 7409W        W 7409   2.665   2.508   4.400 -0.1870  0.1590 -0.0428
 7410W        W 7410   4.479   9.357   5.098  0.1004  0.0483 -0.2628
 7411W        W 7411   5.421   0.984   1.844  0.1567  0.1756  0.0844
 7412W        W 7412   4.700   8.607   6.139 -0.1136  0.0908  0.1296
 7413W        W 7413   5.278   7.436   4.527  0.1776 -0.1129 -0.1922
 7414W        W 7414   3.195   5.140   8.896 -0.0745  0.2524  0.1716
 7415W        W 7415   8.708   1.679   4.386  0.1396  0.0157  0.1307
 7416W        W 7416   1.105   4.520   6.140  0.0018  0.5178 -0.0685
 7417W        W 7417   5.312   3.433   2.126  0.1286 -0.1679 -0.2117
 7418W        W 7418   5.646   0.784   0.378  0.2063 -0.0823  0.2560
 7419W        W 7419   5.751   2.359   1.717 -0.0631  0.1559  0.0859
 7420W        W 7420   8.297   2.514   5.288 -0.0240 -0.3610  0.2707
 7421W        W 7421   5.204   4.206   6.370  0.1929  0.0091  0.0079
 7422W        W 7422   7.146   0.440   0.816  0.2301 -0.1462  0.1271
 7423W        W 7423  10.245   1.702   6.880  0.0760 -0.2120 -0.0882
 7424W        W 7424   5.573  10.152   5.899  0.2062 -0.1676 -0.2480
 7425W        W 7425   9.468   3.753   2.607  0.0074  0.0914 -0.0692
 7426W        W 7426   6.608   2.463   1.357  0.4090 -0.2772 -0.1945
 7427W        W 7427   2.427   2.989   5.292  0.0472  0.1154  0.1531
 7428W        W 7428   1.759   0.345   4.667  0.0002  0.2395  0.1411
 7429W        W 7429   0.387   9.962   1.819 -0.1596  0.0972 -0.0835
 7430W        W 7430   5.667   7.427   7.347 -0.1406 -0.0297  0.2773
 7431W        W 7431   5.460   7.853   2.193 -0.1739 -0.0695  0.0485
 7432W        W 7432   7.971   4.000   9.699 -0.0892  0.4413 -0.1088
 7433W        W 7433   6.964   4.218   9.851  0.0992 -0.2100  0.0322
 7434W        W 7434   5.802   7.539  10.326 -0.0405 -0.1062  0.1157
 7435W        W 7435   1.397   0.296   6.085 -0.1296 -0.0995  0.3220
 7436W        W 7436   1.626   3.132   0.634 -0.3784  0.1042  0.0365
 7437W        W 7437   1.961   8.631   8.051 -0.0418 -0.1809  0.0055
 7438W        W 7438   4.253   6.061   4.494 -0.2489  0.0393 -0.2785
 7439W        W 7439   9.134   2.094   9.251 -0.0759 -0.4173  0.0789
 7440W        W 7440   5.989   2.409   3.753 -0.2061 -0.2120  0.1123
 7441W        W 7441   2.220   9.099   2.680 -0.1110 -0.0228  0.1711
 7442W        W 7442   8.140   8.192   0.858 -0.1956  0.0983  0.3281
 7443W        W 7443  10.083   4.977   7.080 -0.2262  0.2595 -0.4711
 7444W        W 7444   1.401   6.325   6.290  0.3014 -0.2402  0.2955
 7445W        W 7445   9.731   0.298   3.464 -0.3019  0.3509  0.0117
 7446W        W 7446   7.155   6.331   2.288  0.0558 -0.1735 -0.0483
 7447W        W 7447   4.119   6.042   9.424 -0.1470 -0.0976 -0.0216
 7448W        W 7448   4.871   9.734   7.258  0.3517  0.0744  0.1079
 7449W        W 7449   9.575   7.327   3.941  0.0160 -0.1502 -0.2048
 7450W        W 7450   6.906   3.307   6.601  0.0482  0.0091 -0.3316
 7451W        W 7451   7.719   6.264   4.612  0.2033 -0.0369  0.4542
 7452W        W 7452   5.282   3.272   3.954  0.0014 -0.0110  0.1922
 7453W        W 7453   6.080   3.985   2.062 -0.1834 -0.0845 -0.0698
 7454W        W 7454   3.347   0.210   4.645  0.2007 -0.1535 -0.0983
 7455W        W 7455   1.522   9.961   8.810  0.3322 -0.0816 -0.0128
 7456W        W 7456   3.405   3.858   1.970 -0.1519  0.2340 -0.0778
 7457W        W 7457   9.144   1.792   4.162 -0.1865 -0.0757  0.0519
 7458W        W 7458   6.098   2.302   1.174  0.1576 -0.1889  0.0875
 7459W        W 7459   2.302   9.955   6.587  0.0195 -0.0577 -0.0338
 7460W        W 7460   2.092   7.444   0.248  0.3110 -0.0039 -0.0545
 7461W        W 7461   6.588   8.130   6.617 -0.1998  0.1970 -0.0130
 7462W        W 7462   6.932   1.227   8.796  0.1255  0.4122  0.0105
 7463W        W 7463   6.797   4.529  10.244  0.1032  0.1957 -0.0240
 7464W        W 7464   7.639   9.669   3.491 -0.2323  0.0296 -0.1464
 7465W        W 7465   1.068   8.649   3.419 -0.2794 -0.1139  0.1320
 7466W        W 7466   8.731   5.703   7.880  0.0144  0.2647 -0.1061
 7467W        W 7467   2.705   1.191   4.115 -0.1098  0.1300 -0.0170
 7468W        W 7468   7.099   2.596   1.274 -0.1398  0.0666 -0.2294
 7469W        W 7469   6.940   2.194   8.769  0.4034 -0.0512 -0.0739
 7470W        W 7470   6.587   3.355   0.378 -0.1917 -0.2017  0.2961
 7471W        W 7471   3.625   1.667   9.939  0.1393 -0.0060  0.2109
 7472W        W 7472   0.318   3.764   3.897  0.2856  0.0673  0.1957
 7473W        W 7473   8.985   7.137   1.177 -0.1027  0.1003 -0.2956
 7474W        W 7474   8.080   3.305   6.865  0.1241  0.4143 -0.0320
 7475W        W 7475   8.820  10.166   9.126 -0.0659  0.0699 -0.3501
 7476W        W 7476   8.253   2.498   2.706  0.0860  0.1633  0.1775
 7477W        W 7477   1.191   4.161   2.792 -0.2356 -0.1799  0.2426
 7478W        W 7478   2.133   7.393   5.954  0.2250  0.3243 -0.0972
 7479W        W 7479   6.126   1.026   0.406 -0.2024 -0.1311  0.0533
 7480W        W 7480   4.549   5.768   9.531  0.2321  0.1483 -0.2309
 7481W        W 7481   6.437   7.983   7.814  0.2443 -0.1748  0.1236
 7482W        W 7482   5.459   5.003   4.587 -0.3511  0.0222 -0.0660
 7483W        W 7483   9.489   1.266   0.671  0.0444 -0.2667  0.1000
 7484W        W 7484   6.075   2.371   8.456  0.0884 -0.0571  0.1188
 7485W        W 7485   5.151   1.699   2.610 -0.0897 -0.0907 -0.1603
 7486W        W 7486   8.348   2.322   9.720  0.0197  0.1750 -0.1860
 7487W        W 7487   7.576   7.797   6.313 -0.0404  0.1646  0.0570
 7488W        W 7488   7.935   8.173   7.480 -0.2019 -0.2516  0.0933
 7489W        W 7489   1.867   3.779   6.288 -0.0533  0.1550  0.0540
 7490W        W 7490   9.352   3.387   9.946  0.1643 -0.0245 -0.1768
 7491W        W 7491   1.919   9.903   4.010  0.0635 -0.0692 -0.1263
 7492W        W 7492   6.846   2.066   6.880 -0.1051  0.2656  0.3076
 7493W        W 7493   3.017   5.227   2.176  0.1315  0.0111  0.3423
 7494W        W 7494   1.923   1.224   3.393  0.1453  0.1252 -0.2146
 7495W        W 7495   3.089   8.631   3.067  0.5287 -0.0141 -0.0839
 7496W        W 7496   3.766   8.684   9.182  0.0998 -0.3255 -0.0564
 7497W        W 7497   0.296   8.451   5.897  0.1372  0.1429 -0.1012
 7498W        W 7498   8.224   3.131   6.429  0.2835  0.0348 -0.3173
 7499W        W 7499  10.331   6.007   9.689 -0.0576 -0.2745  0.0356
 7500W        W 7500   0.857   7.904   0.364  0.1065 -0.1305 -0.0342
 7501W        W 7501   1.214   3.151   4.712  0.0132 -0.2697  0.0169
 7502W        W 7502   5.552   7.937   4.033 -0.0118 -0.1207  0.0142
 7503W        W 7503   5.580   5.462   6.899 -0.3475  0.0563 -0.0972
 7504W        W 7504   1.731   8.380   0.662  0.1001 -0.0897 -0.0573
 7505W        W 7505   6.478   9.315   8.680  0.0457  0.0815 -0.1372
 7506W        W 7506   2.220   2.689   4.439 -0.0929 -0.0867  0.0299
 7507W        W 7507   3.270   3.730   8.422 -0.1886 -0.0947  0.1365
 7508W        W 7508   3.885   9.349   1.523 -0.2689  0.4442 -0.0464
 7509W        W 7509   9.302   5.821   4.977  0.0836  0.0936  0.1300
 7510W        W 7510   2.086   0.064   5.009  0.1988  0.0307  0.1123
 7511W        W 7511   6.136   9.322   0.201 -0.0031  0.2476 -0.2619
 7512W        W 7512   8.704   6.809   5.902  0.2187  0.0033  0.2077
 7513W        W 7513   2.466   1.126   6.320  0.1094 -0.3305 -0.1089
 7514W        W 7514   1.185   6.671   0.547 -0.0066  0.1404  0.0613
 7515W        W 7515   4.247   9.263   3.913 -0.2519 -0.2233  0.1287
 7516W        W 7516   6.085   8.633   5.128  0.1456 -0.0665  0.0156
 7517W        W 7517  10.295   6.164   3.105  0.0644 -0.1300 -0.1173
 7518W        W 7518   4.546   8.389   5.258 -0.0805 -0.0298  0.4043
 7519W        W 7519   6.516   5.111   8.467  0.1936  0.0190 -0.0443
 7520W        W 7520   4.024   0.802   1.976  0.0083  0.0822  0.2531
 7521W        W 7521   6.224   0.319   6.841 -0.2192 -0.0491  0.1227
 7522W        W 7522   7.315   8.238   0.890 -0.1585  0.1669 -0.3159
 7523W        W 7523   2.276   0.145   0.833 -0.0226  0.1112 -0.0416
 7524W        W 7524   8.465   2.578   5.774 -0.1252  0.0904  0.2468
 7525W        W 7525   6.640   2.812   2.163  0.2112 -0.0880  0.2034
 7526W        W 7526   4.905   7.771   8.678  0.1121  0.0269  0.0870
 7527W        W 7527   9.097   9.552   7.149 -0.0273 -0.1986 -0.3375
 7528W        W 7528   5.420   1.608   9.568 -0.0656  0.0469  0.2436
 7529W        W 7529   3.862   9.628   5.604  0.1698 -0.1460  0.1020
 7530W        W 7530   0.499  10.285   9.422  0.1849 -0.0157  0.0086
 7531W        W 7531   6.619   3.530   1.307  0.2075  0.0462 -0.1512
 7532W        W 7532   3.965   4.628   0.532  0.1241 -0.0194 -0.1897
 7533W        W 7533   8.793   5.310  10.132 -0.1469 -0.0357 -0.0782
 7534W        W 7534   2.299   0.307   8.333 -0.2297 -0.0949  0.3194
 7535W        W 7535   7.993   5.820   4.492  0.3866 -0.0727 -0.0979
 7536W        W 7536   1.317   5.875   6.093  0.2266 -0.1814  0.1125
 7537W        W 7537   5.096   5.515   7.091 -0.0394  0.1757  0.0485
 7538W        W 7538   3.759   8.837   8.666 -0.0450  0.0635  0.4575
 7539W        W 7539   0.759   6.537   6.910  0.0618 -0.0102 -0.0798
 7540W        W 7540   1.605   2.114   2.909 -0.0382  0.1371  0.2776
 7541W        W 7541   3.529   3.769   7.405  0.0215  0.1319 -0.1293
 7542W        W 7542   6.361   4.088   2.855 -0.2163 -0.0013  0.0817
 7543W        W 7543   6.035  10.329   8.472  0.1170 -0.0262 -0.1341
 7544W        W 7544   4.034   8.188   1.499 -0.1569  0.2915 -0.0196
 7545W        W 7545   5.044   5.730   5.737 -0.0155 -0.0134  0.0166
 7546W        W 7546   7.148   7.682   3.997 -0.0352  0.0808 -0.3127
 7547W        W 7547   4.303   3.719   2.844 -0.1784  0.1801 -0.1499
 7548W        W 7548   3.655   6.147   1.708  0.0940 -0.0220 -0.0720
 7549W        W 7549   5.794   4.741   4.882 -0.2905  0.0596 -0.2641
 7550W        W 7550   6.641   0.358   7.160  0.2723  0.3588 -0.0648
 7551W        W 7551   2.945   1.757   5.156  0.0652 -0.0421 -0.2125
 7552W        W 7552   1.663   7.203   9.218 -0.0062  0.1726 -0.3154
 7553W        W 7553   3.341   0.738   9.907 -0.1061 -0.0777  0.0611
 7554W        W 7554   0.437   2.348   7.392 -0.1487 -0.2919  0.0162
 7555W        W 7555   8.965   2.457   7.927  0.0589 -0.3687  0.2542
 7556W        W 7556   6.569   5.248   6.509 -0.2094 -0.3060 -0.0689
 7557W        W 7557  10.169   6.105   4.095 -0.2693 -0.1339  0.0802
 7558W        W 7558   5.536   3.394   7.296 -0.2075  0.0417 -0.2022
 7559W        W 7559   6.628   2.652   9.856 -0.1142 -0.3578  0.0452
 7560W        W 7560   6.778   5.225   3.154 -0.2242 -0.2798  0.2725
 7561W        W 7561   1.193   2.643   8.269  0.1373  0.2670 -0.1904
 7562W        W 7562   0.270   7.786   7.433  0.2462  0.2595  0.0948
 7563W        W 7563   8.883   5.389   6.433 -0.2490 -0.0706 -0.1482
 7564W        W 7564   4.888   6.901   8.293  0.0603  0.0593  0.0742
 7565W        W 7565  10.097   4.480   9.668  0.0880  0.1539  0.1578
 7566W        W 7566   8.663   3.506   9.371  0.0793 -0.0083  0.0076
 7567W        W 7567   2.997   6.200   5.164 -0.3140 -0.0757 -0.1298
 7568W        W 7568   5.300   7.403   1.896  0.0472  0.0893  0.1434
 7569W        W 7569   0.963   5.566   2.459 -0.0115 -0.3238  0.1850
 7570W        W 7570   5.270   2.077   1.456 -0.2022  0.3211  0.1506
 7571W        W 7571   1.700   0.018   7.285 -0.1484 -0.2951  0.1254
 7572W        W 7572   5.087   2.572   4.040  0.1803  0.0058  0.1659
 7573W        W 7573   1.495   9.194   5.183  0.2716 -0.0245 -0.0597
 7574W        W 7574   0.075   8.603   9.431 -0.0015  0.1831  0.4827
 7575W        W 7575   8.669   2.437   3.800  0.0027 -0.0150  0.0891
 7576W        W 7576   5.160   5.803   6.653 -0.0741  0.1832 -0.1722
 7577W        W 7577   3.774   4.929   3.158 -0.1638 -0.3337 -0.0034
 7578W        W 7578   1.923   6.457   9.838 -0.2610  0.1469 -0.3290
 7579W        W 7579   3.010   3.957   9.870  0.2305  0.0830  0.0408
 7580W        W 7580   2.440   6.413   4.406  0.3095 -0.0314 -0.0930
 7581W        W 7581   6.988   3.150   4.227  0.2866  0.2033 -0.1522
 7582W        W 7582   6.520   3.772   5.899  0.3469 -0.3929 -0.3736
 7583W        W 7583   0.159   7.263   5.118  0.2310 -0.1677  0.1991
 7584W        W 7584   2.772   4.881   1.900 -0.1377 -0.0429  0.0469
 7585W        W 7585  10.321   2.275   3.478 -0.0120  0.2393 -0.0461
 7586W        W 7586   6.343   3.024   7.203 -0.1436 -0.2875  0.1176
 7587W        W 7587   0.403   3.218   2.743  0.1674  0.2546  0.1217
 7588W        W 7588   9.290   1.702   0.729 -0.1773 -0.1150  0.2135
 7589W        W 7589   9.212   0.170   9.132  0.0352 -0.1070  0.2730
 7590W        W 7590   6.812   4.577   7.846 -0.1314 -0.1375 -0.2446
 7591W        W 7591  10.274   8.271   6.740  0.0574  0.2966 -0.3711
 7592W        W 7592   6.957   9.998   2.739  0.2095  0.0402  0.1629
 7593W        W 7593   2.625   4.470   1.106 -0.1068  0.1283  0.0566
 7594W        W 7594   1.481   7.849   4.002  0.1176 -0.1580  0.1982
 7595W        W 7595   8.892   5.085   3.771  0.0755 -0.0895 -0.1950
 7596W        W 7596   5.893   8.837   9.685  0.1452 -0.1228  0.1580
 7597W        W 7597   7.715   1.896   1.964  0.1026 -0.0473  0.0382
 7598W        W 7598   3.314   2.999   5.091  0.0927  0.0491 -0.1126
 7599W        W 7599   5.719   9.045   5.857 -0.2782  0.0001  0.3785
 7600W        W 7600   6.331   3.967   6.338  0.2120 -0.3429 -0.1599
 7601W        W 7601   3.647   8.165   1.135  0.1469 -0.0157  0.0592
 7602W        W 7602   8.742   9.001   2.921 -0.0047  0.1018 -0.3725
 7603W        W 7603   3.457   4.086   3.342 -0.0649  0.1133  0.0976
 7604W        W 7604   5.380   8.015   1.360  0.0322  0.0836  0.1286
 7605W        W 7605   2.888   2.847   5.230 -0.1707  0.1397  0.0476
 7606W        W 7606   2.204   1.171  10.181 -0.2538 -0.1280  0.1584
 7607W        W 7607  10.223   3.316   5.143  0.1132  0.0785  0.0896
 7608W        W 7608   7.450   9.418   3.893 -0.0019 -0.1738 -0.1322
 7609W        W 7609   1.036   8.577   4.072  0.1747 -0.2702  0.1200
 7610W        W 7610   3.430   3.380   2.173 -0.2633  0.0162  0.2119
 7611W        W 7611   6.768   3.311   5.528 -0.2828  0.1418 -0.1626
 7612W        W 7612   9.829   5.272   5.235  0.0484  0.0622 -0.2430
 7613W        W 7613   4.381   7.823   6.954  0.1078 -0.2408 -0.3438
 7614W        W 7614   0.513  10.125   7.323  0.2540 -0.0106  0.0645
 7615W        W 7615   7.821   6.374   5.833  0.2591 -0.1263 -0.0030
 7616W        W 7616   3.199   8.837   5.685  0.2421  0.0328  0.0160
 7617W        W 7617   0.257   3.567   6.479 -0.1644 -0.0322 -0.2802
 7618W        W 7618   2.035   0.560   4.233  0.1253 -0.1656  0.2183
 7619W        W 7619   0.133   7.793   3.227 -0.0865 -0.0453 -0.0806
 7620W        W 7620   6.403  10.015   8.132  0.0820 -0.1571  0.3135
 7621W        W 7621   2.902   5.816   3.594  0.0632  0.2883  0.3917
 7622W        W 7622   8.269   2.613   2.206 -0.1224  0.0834  0.0335
 7623W        W 7623   9.262   9.996   2.080  0.0770 -0.5139  0.2585
 7624W        W 7624   8.117   2.212   8.283  0.2073  0.4483  0.0683
 7625W        W 7625   4.733   6.193   4.322 -0.0386  0.2294 -0.0941
 7626W        W 7626   2.166   2.498   3.980 -0.0057 -0.0038 -0.0241
 7627W        W 7627   0.705   5.164   3.289 -0.0303  0.1956  0.2298
 7628W        W 7628   2.700   9.857   0.417 -0.2572 -0.1013  0.2335
 7629W        W 7629   0.316   8.140   7.099  0.0864  0.3963  0.1280
 7630W        W 7630   8.164   6.917   1.521  0.1624 -0.1605  0.0929
 7631W        W 7631   8.503   0.992   2.967  0.1910 -0.0215 -0.3505
 7632W        W 7632   6.084   9.298   1.161 -0.0269  0.0036  0.2311
 7633W        W 7633   1.886   1.768   3.174 -0.0415  0.0545  0.0235
 7634W        W 7634   5.248  10.146   4.481 -0.4993  0.3545 -0.0271
 7635W        W 7635   1.544   3.744   8.495  0.0079 -0.3375 -0.3222
 7636W        W 7636   6.697   0.880   0.039 -0.1439  0.0156  0.0990
 7637W        W 7637   9.590   2.011   8.182 -0.0031  0.2160  0.0538
 7638W        W 7638   0.259   5.571   4.750  0.1533 -0.1338  0.0568
 7639W        W 7639   2.870   6.371   3.548  0.1684  0.0455 -0.2718
 7640W        W 7640   7.743   7.331   7.323 -0.0324 -0.2784  0.2827
 7641W        W 7641   6.088   3.807   4.286 -0.2073 -0.0266 -0.1768
 7642W        W 7642   5.206   8.738   6.386 -0.2944  0.0809 -0.1221
 7643W        W 7643   6.436   3.232   4.970  0.0010 -0.2028 -0.0370
 7644W        W 7644   2.155   2.355   5.703 -0.0711  0.4575 -0.2493
 7645W        W 7645   0.798   3.389   8.092  0.0563  0.1020 -0.0169
 7646W        W 7646   2.793   3.277   9.389  0.0076 -0.3509 -0.0172
 7647W        W 7647   2.629   3.541   4.319  0.0125  0.2129  0.3740
 7648W        W 7648   0.795   2.946   1.341 -0.0562  0.0323  0.2611
 7649W        W 7649   8.478   7.561   2.716 -0.1115  0.0395  0.1422
 7650W        W 7650   0.484   2.275   3.404  0.0948 -0.2754  0.2029
 7651W        W 7651   1.830   3.829   2.409  0.2428  0.2327  0.0233
 7652W        W 7652   5.744   7.197   5.457 -0.2320  0.0142 -0.0952
 7653W        W 7653   5.790   2.754   3.374 -0.1521  0.0967 -0.1344
 7654W        W 7654   9.175   8.572   4.255  0.0358  0.0923  0.1482
 7655W        W 7655   8.655   3.210   3.910 -0.1907 -0.0614  0.1046
 7656W        W 7656   9.534   6.366   3.438 -0.3170  0.1042 -0.0069
 7657W        W 7657   0.852   5.136   4.321 -0.2449 -0.1027  0.0021
 7658W        W 7658   0.630   9.123   1.581 -0.0477  0.1112  0.0430
 7659W        W 7659   5.487   2.327   3.803  0.1230  0.2864  0.2376
 7660W        W 7660   1.978   1.046   1.026  0.1994 -0.0595 -0.1420
 7661W        W 7661   4.758   6.475   3.712  0.2070  0.0914  0.1822
 7662W        W 7662   7.935   0.418   3.384  0.4620  0.1570 -0.1349
 7663W        W 7663   5.866   8.741   7.724 -0.0009 -0.1633  0.0312
 7664W        W 7664   3.445   3.917   5.327 -0.0262 -0.0008 -0.0359
 7665W        W 7665   8.756   8.461   5.001 -0.1948 -0.2584  0.0123
 7666W        W 7666   5.590   3.725   4.845  0.0256  0.1545  0.2819
 7667W        W 7667   3.689   8.868   0.790  0.1813 -0.0022 -0.1083
 7668W        W 7668   6.108   9.165   1.698  0.0165 -0.2123 -0.1330
 7669W        W 7669   8.920   7.038   9.609 -0.1379  0.0635  0.2935
 7670W        W 7670   2.964   1.961   6.118  0.0705 -0.0917  0.1504
 7671W        W 7671   7.394   6.209   2.702 -0.2196 -0.1245 -0.1289
 7672W        W 7672   7.946   9.447   8.877  0.0538 -0.3326  0.0115
 7673W        W 7673   8.850   0.873   4.989 -0.0435 -0.2096 -0.2993
 7674W        W 7674   0.373   9.087   3.115 -0.0247  0.0399  0.2160
 7675W        W 7675   9.935   0.770   6.753  0.0114 -0.2772 -0.1029
 7676W        W 7676   1.468   0.292   0.443 -0.1109 -0.2435 -0.0933
 7677W        W 7677   5.081   6.762   5.487 -0.0890  0.0479  0.1427
 7678W        W 7678   5.457   0.056   2.156 -0.0882 -0.1646  0.1605
 7679W        W 7679   3.038   7.933   1.766  0.1247 -0.2085 -0.2097
 7680W        W 7680   8.481   5.991   7.457 -0.2729 -0.2048  0.0335
 7681W        W 7681   8.448   4.162   9.998  0.0499  0.4341  0.1683
 7682W        W 7682   1.386   7.335   0.849 -0.3475 -0.0950 -0.1173
 7683W        W 7683   3.529   1.832   0.495 -0.1068 -0.0974 -0.1320
 7684W        W 7684   6.235   8.698  10.030 -0.0456 -0.2350  0.1145
 7685W        W 7685   6.078   8.481   8.761 -0.1403  0.0040 -0.0970
 7686W        W 7686   6.020   8.269   7.810 -0.0428  0.4348  0.1067
 7687W        W 7687   6.020   9.014   8.702 -0.1126  0.6078 -0.0748
 7688W        W 7688   4.202   2.149   0.336  0.0624  0.0266 -0.0779
 7689W        W 7689   2.112   1.249   9.696 -0.2259 -0.1405  0.0192
 7690W        W 7690   9.135   0.876   0.689  0.1264  0.1022  0.2762
 7691W        W 7691   4.524   9.378   9.710 -0.3921 -0.4030 -0.2269
 7692W        W 7692  10.039   0.386   4.505  0.2123 -0.1106 -0.0942
 7693W        W 7693   6.108   2.113   4.145 -0.3179 -0.1129  0.2600
 7694W        W 7694   4.797   5.183   0.966 -0.2065  0.2680  0.4824
 7695W        W 7695   0.097   3.593   2.418  0.0254  0.1781  0.1967
 7696W        W 7696   7.975   2.265   5.594 -0.1706 -0.1630 -0.3087
 7697W        W 7697   8.177   5.890   7.847 -0.0446 -0.2046  0.2869
 7698W        W 7698   5.348   5.629   3.697 -0.2568  0.0761  0.1337
 7699W        W 7699  10.151   4.204   1.040  0.2359 -0.1172 -0.1789
 7700W        W 7700   9.559   1.076   6.755 -0.1118  0.2430  0.0068
 7701W        W 7701   6.374   0.503   6.074 -0.0369  0.0216 -0.3212
 7702W        W 7702   6.553   6.134   9.086  0.2753 -0.0073 -0.2276
 7703W        W 7703   8.602   4.885   5.770 -0.3391 -0.2920 -0.0651
 7704W        W 7704   3.014   6.820   2.525 -0.1601 -0.2809  0.0746
 7705W        W 7705   0.232   2.879  10.203  0.2066 -0.0393  0.1671
 7706W        W 7706   0.892   5.072   6.128  0.2192  0.0325  0.3973
 7707W        W 7707   6.509   8.407   0.568 -0.2879 -0.1678  0.1515
 7708W        W 7708   7.074   8.329   9.701  0.1453 -0.0750  0.2640
 7709W        W 7709   1.633   1.883   7.085  0.1366  0.1525 -0.3402
 7710W        W 7710   5.193   5.467   8.374  0.1128 -0.2106 -0.0517
 7711W        W 7711   4.505   4.415   9.962 -0.1238  0.0089 -0.0994
 7712W        W 7712   2.433   9.370   3.110  0.0863 -0.1088 -0.1570
 7713W        W 7713   7.178   3.019   2.855  0.1051  0.3418  0.1192
 7714W        W 7714   1.632   2.735   4.830  0.0157  0.2495 -0.1287
 7715W        W 7715   6.882   3.874   1.668  0.3367 -0.1850  0.2050
 7716W        W 7716   7.159   4.128   8.868 -0.1306  0.4659  0.1514
 7717W        W 7717   8.392   2.920   0.156 -0.1346  0.1426  0.1948
 7718W        W 7718   5.214   0.157   3.429 -0.0507 -0.1268 -0.0413
 7719W        W 7719   0.044   3.437   2.955 -0.4624 -0.0892 -0.3157
 7720W        W 7720   4.342   7.804   3.615  0.2225 -0.2784 -0.1246
 7721W        W 7721   3.940   5.768   2.745 -0.1505  0.1044  0.0129
 7722W        W 7722   6.919   5.838   5.837  0.1029 -0.2349 -0.2019
 7723W        W 7723   1.438   9.953   7.145  0.0421  0.3553  0.1713
 7724W        W 7724   7.941   6.463   1.585 -0.1263 -0.2455  0.0934
 7725W        W 7725   6.433   7.807   3.360 -0.3408  0.1901 -0.0098
 7726W        W 7726   9.275   4.105   2.246 -0.2314 -0.0740 -0.4977
 7727W        W 7727   6.583   3.462   9.527 -0.1582  0.3246  0.2978
 7728W        W 7728   4.388   4.635   1.102  0.1122 -0.0083 -0.1793
 7729W        W 7729   4.963   9.537   3.651  0.1101 -0.3458  0.2590
 7730W        W 7730   6.341   1.599   8.909 -0.0779 -0.1226 -0.4054
 7731W        W 7731   9.171   1.308   7.777 -0.1607 -0.2981  0.0012
 7732W        W 7732   2.360   4.512   1.971  0.0476  0.0671  0.0899
 7733W        W 7733  10.238   0.438   5.888 -0.0862 -0.0410  0.4720
 7734W        W 7734  10.108   6.732   8.585 -0.2342  0.3918  0.0329
 7735W        W 7735   7.301   6.086   6.551  0.2384 -0.1775  0.1251
 7736W        W 7736   3.480   6.520   9.145  0.1241 -0.0694  0.1977
 7737W        W 7737   5.704   8.041   3.369 -0.0609 -0.0395 -0.0435
 7738W        W 7738   4.148   0.864   5.404 -0.2159 -0.2716  0.3064
 7739W        W 7739   8.798   2.462   0.266  0.1595  0.4364  0.0653
 7740W        W 7740   6.127   6.365   5.292 -0.0883  0.2784 -0.0220
 7741W        W 7741   0.082   9.660   3.122  0.2667 -0.0526  0.1598
 7742W        W 7742   1.252   4.446   4.529 -0.1331 -0.0356 -0.2671
 7743W        W 7743   1.751   1.817   8.180 -0.0056 -0.1435  0.0002
 7744W        W 7744   9.483   0.059   1.868  0.0023 -0.2687  0.1324
 7745W        W 7745   9.739   2.065   0.047  0.0974  0.3244 -0.0215
 7746W        W 7746   1.349   7.085   8.051  0.2149 -0.0228  0.1130
 7747W        W 7747   6.277   7.696   5.215  0.0839 -0.0941 -0.4124
 7748W        W 7748   0.406   4.277   3.339  0.2117  0.1178  0.1329
 7749W        W 7749   6.055  10.007   2.333  0.0351 -0.1725  0.0558
 7750W        W 7750   1.772  10.310   6.251  0.2799 -0.1257 -0.0904
 7751W        W 7751   5.165   7.140   7.033  0.0964  0.2903 -0.2058
 7752W        W 7752   1.847   0.080   8.605  0.0219  0.1401 -0.2241
 7753W        W 7753   5.396   8.573   6.848 -0.1151  0.1112  0.0162
 7754W        W 7754   7.449   6.877   7.125  0.2691  0.3033 -0.3005
 7755W        W 7755   1.535   7.939   7.714 -0.1876 -0.0856  0.1820
 7756W        W 7756   9.981   4.043   9.867  0.0234  0.1318 -0.1049
 7757W        W 7757   9.289   1.526   8.250 -0.2186  0.3427 -0.0909
 7758W        W 7758  10.327   4.050   3.566  0.2868  0.3237  0.0873
 7759W        W 7759   0.420   8.308   6.369 -0.2399 -0.4149 -0.0337
 7760W        W 7760   6.477   9.571   6.722 -0.0188  0.0401  0.1263
 7761W        W 7761   1.434   5.075   6.232 -0.2217  0.3619  0.1647
 7762W        W 7762   0.499  10.146   6.677 -0.0136 -0.1698 -0.2031
 7763W        W 7763   8.821   8.309   4.505 -0.1260  0.1084 -0.0432
 7764W        W 7764   7.256   2.248   6.636  0.1056  0.0877 -0.1596
 7765W        W 7765   4.576   4.799   6.701 -0.1960  0.0617  0.2934
 7766W        W 7766   8.510   5.880   0.552 -0.2432 -0.2293 -0.2821
 7767W        W 7767   3.911   9.532   7.351 -0.0757  0.1816  0.1558
 7768W        W 7768   1.815   7.330   2.407 -0.0724  0.2782 -0.1775
 7769W        W 7769   1.815   8.949   2.901  0.2082  0.2052  0.1633
 7770W        W 7770   3.437   2.123   6.363  0.2207  0.6417 -0.3340
 7771W        W 7771  10.084   6.935   3.919 -0.0806 -0.0108 -0.1561
 7772W        W 7772   5.453   5.813   4.822 -0.0394 -0.0719 -0.0783
 7773W        W 7773   6.376   4.385   0.129  0.0041  0.1974  0.0873
 7774W        W 7774   8.191   3.672   5.321 -0.3792 -0.1736  0.0328
 7775W        W 7775   1.033   1.875   6.432  0.3593  0.0410  0.1249
 7776W        W 7776   0.201   7.579   6.980  0.0496  0.1362 -0.3224
 7777W        W 7777   6.591   9.929   1.921  0.0132  0.0909  0.0153
 7778W        W 7778   3.712   0.905   6.728 -0.0830  0.0666  0.2338
 7779W        W 7779   9.509   1.585   1.241 -0.2094  0.0250 -0.1052
 7780W        W 7780   3.150   2.841   4.643  0.1286 -0.1154 -0.0848
 7781W        W 7781   5.306   3.962   9.044  0.3069 -0.1976 -0.1220
 7782W        W 7782   0.239   5.085   0.241  0.0119  0.4103  0.2301
 7783W        W 7783   7.616   2.255   7.467 -0.0413 -0.2061 -0.3278
 7784W        W 7784   9.116   7.705   2.725  0.0624 -0.0661  0.0208
 7785W        W 7785   6.524   7.575   5.640  0.0353 -0.0451  0.1663
 7786W        W 7786   5.143   3.297   3.275 -0.1652 -0.2384  0.1341
 7787W        W 7787   0.060   4.160   7.162  0.0884 -0.3453  0.1366
 7788W        W 7788   6.706   8.116   9.397 -0.5305  0.0130 -0.0552
 7789W        W 7789   4.990   9.114   8.365 -0.0230  0.0670 -0.1829
 7790W        W 7790   7.469   9.835   9.490 -0.0974  0.0355 -0.2535
 7791W        W 7791   8.755   9.252   2.445  0.0063  0.0140 -0.0036
 7792W        W 7792   3.286   6.078   9.349  0.1590 -0.2225  0.3572
 7793W        W 7793   1.734   8.809   1.476  0.1587 -0.1015 -0.0312
 7794W        W 7794   4.050   5.969   7.404 -0.1638 -0.4203 -0.0253
 7795W        W 7795   5.810   4.817   7.035 -0.2537 -0.0296  0.0039
 7796W        W 7796   2.057   5.805   4.258 -0.1881 -0.0456  0.0254
 7797W        W 7797   3.790   8.880   1.696  0.0776  0.0457  0.0733
 7798W        W 7798   9.346   6.318   7.577  0.3960  0.1091 -0.0190
 7799W        W 7799   9.513   9.648   3.349  0.0189 -0.0310  0.2250
 7800W        W 7800   7.012   6.499   2.976  0.2643  0.0219  0.3707
 7801W        W 7801   2.101   3.934   8.403 -0.1269  0.0231  0.0767
 7802W        W 7802   6.324   2.125   3.230  0.0763 -0.4282 -0.0331
 7803W        W 7803   9.269   0.145   8.588  0.4400 -0.1317 -0.1585
 7804W        W 7804   0.668   2.281   4.572  0.0731 -0.2314 -0.0748
 7805W        W 7805   0.739   8.619   5.996 -0.0800  0.2794  0.0911
 7806W        W 7806   5.147   7.680   5.010 -0.0352  0.3145  0.1851
 7807W        W 7807   3.212   1.145   5.523  0.0425  0.2066  0.0551
 7808W        W 7808   1.384   1.949   7.840  0.1873 -0.3470 -0.0193
 7809W        W 7809   6.624   7.567   2.876  0.2782  0.3276  0.0066
 7810W        W 7810   2.268   9.005   7.690 -0.1135 -0.0275  0.0350
 7811W        W 7811   9.212   5.995   5.520 -0.1906 -0.0202 -0.2689
 7812W        W 7812   9.863   1.930   7.774  0.3229 -0.1288  0.1820
 7813W        W 7813   5.297   3.005   9.360 -0.0319  0.2252 -0.0572
 7814W        W 7814   6.573   2.927   1.271  0.0916 -0.0956  0.2982
 7815W        W 7815   6.369   2.940   4.520 -0.3938  0.3070 -0.0801
 7816W        W 7816   8.868  10.104   7.812 -0.0564 -0.3163 -0.2121
 7817W        W 7817   5.427   9.590   9.625 -0.2934 -0.1755  0.1116
 7818W        W 7818   1.595   4.608   0.509  0.0060 -0.0020 -0.1263
 7819W        W 7819   4.456   0.515   6.262 -0.0563 -0.0799  0.1090
 7820W        W 7820   2.622   5.561   9.546 -0.2539  0.2606  0.1570
 7821W        W 7821   9.176   0.519   1.632  0.2408  0.1151 -0.2063
 7822W        W 7822  10.054   7.657   4.291 -0.1336 -0.2512 -0.1106
 7823W        W 7823   2.355   1.709   6.430  0.1487 -0.3340  0.4540
 7824W        W 7824   5.666   3.769   8.204  0.4373  0.4767 -0.2963
 7825W        W 7825   4.484   8.951   4.672  0.2303 -0.1824  0.2715
 7826W        W 7826   8.286   1.383   3.357  0.0405 -0.0861  0.0530
 7827W        W 7827   7.808   2.743   3.592  0.0046 -0.3163  0.2592
 7828W        W 7828   8.122   4.004   4.057  0.0659 -0.0207  0.0707
 7829W        W 7829   4.220   4.559   0.114  0.0646 -0.1428 -0.0185
 7830W        W 7830   6.145   8.388   3.443 -0.1127  0.0667  0.3122
 7831W        W 7831   6.925   2.525   0.802 -0.1710  0.0826  0.1006
 7832W        W 7832   8.396   2.428   4.703 -0.1478 -0.2114 -0.2022
 7833W        W 7833   0.015   3.269   8.710  0.3601 -0.0522 -0.2167
 7834W        W 7834   5.153   5.733   8.831 -0.2747 -0.1440 -0.2486
 7835W        W 7835   0.748   9.505   2.961 -0.1254  0.1985  0.0628
 7836W        W 7836   0.441   3.435   5.321  0.1262  0.0373  0.2446
 7837W        W 7837   0.262   6.532   3.511 -0.1807 -0.1078 -0.1623
 7838W        W 7838   2.131  10.007   2.326 -0.1420 -0.0284  0.0216
 7839W        W 7839   1.275   5.891   4.574 -0.0893 -0.3951 -0.0485
 7840W        W 7840   4.123  10.124   4.479 -0.0132 -0.0987  0.3522
 7841W        W 7841   7.144   1.775   7.776  0.0277  0.3582 -0.1595
 7842W        W 7842   0.896   1.379   6.542  0.0797  0.3112 -0.1682
 7843W        W 7843   9.075   9.322   3.128  0.2139  0.0147 -0.0987
 7844W        W 7844   9.793   2.875   5.934  0.3028  0.0876  0.0880
 7845W        W 7845   8.126   9.774   3.485  0.0494  0.1826 -0.1223
 7846W        W 7846   1.199   5.341   3.391  0.0033  0.0574  0.0056
 7847W        W 7847   5.153   5.339   1.343 -0.0576  0.0177 -0.0266
 7848W        W 7848   7.846   8.682   4.722 -0.1970  0.0074  0.3573
 7849W        W 7849   6.944   1.108   3.846  0.3019 -0.1196 -0.2409
 7850W        W 7850   7.878   0.808   6.653 -0.0830 -0.3394  0.3173
 7851W        W 7851   1.082   5.372  10.136  0.1934 -0.1071  0.0935
 7852W        W 7852  10.163   3.120   4.595 -0.1166 -0.1095  0.0616
 7853W        W 7853   8.145   6.344  10.101 -0.0082 -0.1518 -0.1299
 7854W        W 7854   7.438   1.960   9.410 -0.1287 -0.0672  0.0310
 7855W        W 7855  10.214   6.536  10.044 -0.1207  0.2325  0.0485
 7856W        W 7856   4.132   5.731   4.111  0.1648 -0.0459 -0.2998
 7857W        W 7857   0.848   9.336   9.441 -0.1239  0.1486  0.0879
 7858W        W 7858   6.613   0.345   6.504  0.0669 -0.0270 -0.1751
 7859W        W 7859   2.874  10.028   5.764  0.0009 -0.4107  0.2269
 7860W        W 7860   4.675   6.655   0.144  0.0496  0.1354 -0.1782
 7861W        W 7861   0.347   9.418   4.233 -0.2124  0.2226 -0.1255
 7862W        W 7862   2.389   1.211   2.428  0.1398 -0.0405 -0.3353
 7863W        W 7863   7.580   0.858   4.266  0.1735 -0.0714 -0.0445
 7864W        W 7864   4.720   0.471   2.291 -0.3302  0.2862  0.0147
 7865W        W 7865   1.166   5.276   8.659  0.2424  0.4439 -0.0401
 7866W        W 7866  10.106  10.257   7.730  0.0941  0.3344 -0.1886
 7867W        W 7867   1.197   0.580   4.422 -0.1700 -0.0092  0.3220
 7868W        W 7868   5.971   4.340   9.608 -0.0593  0.1364 -0.2352
 7869W        W 7869   6.199   8.761   3.823 -0.1335 -0.1706  0.0658
 7870W        W 7870   3.250   4.230   2.293  0.0842 -0.1443  0.2841
 7871W        W 7871   7.454   2.206   3.014 -0.1584  0.0766  0.0851
 7872W        W 7872   5.064   6.984   2.823 -0.0746 -0.1052  0.2934
 7873W        W 7873   7.759  10.195   9.745 -0.2386  0.2793  0.4031
 7874W        W 7874   6.068   7.204   2.126 -0.0935 -0.0089  0.1744
 7875W        W 7875   4.553   8.878   4.071 -0.0255  0.0348 -0.1955
 7876W        W 7876   7.370   8.217   1.923 -0.1006  0.2484  0.0931
 7877W        W 7877   3.530  10.127   6.970  0.0247 -0.0941 -0.0938
 7878W        W 7878   6.504   1.453   4.488 -0.0155 -0.4773  0.4102
 7879W        W 7879   0.524   9.818   9.324 -0.1509  0.1518  0.2373
 7880W        W 7880   9.020   3.816   8.635  0.1668 -0.0178 -0.1255
 7881W        W 7881   6.271   5.340  10.073 -0.1659 -0.0702  0.0231
 7882W        W 7882   0.745   3.355   7.470  0.1380 -0.1598 -0.2075
 7883W        W 7883   8.322   7.156   1.914  0.2107  0.0451 -0.1361
 7884W        W 7884   0.080   1.484   3.921  0.0477 -0.1345  0.1722
 7885W        W 7885   2.570   9.886   9.224 -0.1003  0.1896  0.0766
 7886W        W 7886   8.081   9.476   9.346 -0.0132  0.1670  0.1074
 7887W        W 7887   1.050  10.024   8.060 -0.0521  0.1370 -0.2161
 7888W        W 7888   7.378   1.317   4.305 -0.2689  0.0150  0.0425
 7889W        W 7889   8.684   5.928   1.034  0.1441  0.0897 -0.0560
 7890W        W 7890  10.272   8.653   4.626  0.0217 -0.0937 -0.1319
 7891W        W 7891  10.322   5.923   7.290 -0.0613  0.1652  0.1629
 7892W        W 7892   3.915   6.930   4.009 -0.0761 -0.0949 -0.2513
 7893W        W 7893   9.077   3.522   1.512 -0.0105 -0.2778  0.2156
 7894W        W 7894  10.127   9.226   3.040 -0.2580  0.1324  0.1284
 7895W        W 7895   9.627   0.755   7.169  0.0771 -0.0556 -0.0332
 7896W        W 7896   6.394   3.008   9.022 -0.0022  0.1150 -0.2853
 7897W        W 7897   0.915   3.225   7.014  0.1353  0.2542  0.1206
 7898W        W 7898   0.013   3.528   1.443 -0.1300  0.5287 -0.1035
 7899W        W 7899   3.241   5.230   1.061  0.2006  0.0211 -0.2091
 7900W        W 7900   5.406   0.026   7.746  0.0680 -0.1261  0.1480
 7901W        W 7901   6.633   6.623   9.485  0.1246  0.1044  0.1917
 7902W        W 7902   7.691   0.417   7.099 -0.1632 -0.1516  0.1995
 7903W        W 7903   3.424   9.409   2.733  0.1306  0.0484 -0.0024
 7904W        W 7904   3.235   0.130   9.638  0.0510 -0.0673 -0.0355
 7905W        W 7905   4.829   5.905   3.831 -0.1737  0.0810 -0.4468
 7906W        W 7906   5.238   2.952   9.892  0.0619  0.3014 -0.2898
 7907W        W 7907   1.049   3.379   5.804 -0.1511  0.0757  0.0192
 7908W        W 7908   4.665   3.639   0.455 -0.0335  0.2364 -0.0231
 7909W        W 7909   7.224   7.608   5.720  0.1813  0.0393 -0.0581
 7910W        W 7910   1.251   7.227   2.978 -0.1042 -0.1174 -0.2700
 7911W        W 7911   1.914   8.679   0.999  0.3518 -0.1249 -0.0853
 7912W        W 7912   5.620   6.776   3.861  0.2283  0.3255  0.0877
 7913W        W 7913   0.145   6.065   0.255 -0.2119 -0.0372  0.2467
 7914W        W 7914   6.580   2.113   0.962  0.1335  0.1287  0.0886
 7915W        W 7915   0.565   9.753   3.918  0.2155 -0.0495  0.1013
 7916W        W 7916   0.411   8.809   1.853  0.0158  0.0019  0.0789
 7917W        W 7917   3.971   5.091   4.662  0.0117 -0.0542 -0.0907
 7918W        W 7918   4.058   9.944   8.626 -0.1292  0.0570  0.1884
 7919W        W 7919   7.592   0.313   5.803 -0.1927  0.0154 -0.2422
 7920W        W 7920   1.133   3.683   2.868 -0.0640  0.2681 -0.2271
 7921W        W 7921   7.928   8.798   3.584  0.4011  0.3133 -0.0412
 7922W        W 7922   4.724   5.633   8.549  0.0307 -0.1752 -0.5049
 7923W        W 7923   5.959   5.392   5.735 -0.1373 -0.0011  0.0588
 7924W        W 7924   7.406   4.297   9.595 -0.0815  0.1670 -0.0536
 7925W        W 7925   2.917   8.914   5.282  0.0225 -0.2552  0.3991
 7926W        W 7926   3.629   5.482   2.454 -0.2027 -0.0032  0.1913
 7927W        W 7927   3.405   8.989   6.102  0.3421  0.0550  0.3380
 7928W        W 7928   4.416   0.841   4.909 -0.1099 -0.0618  0.0348
 7929W        W 7929   4.329   9.588   1.526 -0.0059  0.0602 -0.0444
 7930W        W 7930   3.658   3.901   0.724  0.0672  0.4627 -0.0196
 7931W        W 7931   1.504   9.264   1.017  0.0239  0.2716 -0.1145
 7932W        W 7932   4.416   1.407   2.264 -0.0583  0.2178 -0.1443
 7933W        W 7933   7.970   2.665   7.719  0.1241  0.2283  0.5654
 7934W        W 7934   0.347   5.537   3.463  0.0435 -0.1097 -0.0722
 7935W        W 7935   6.088   2.422   6.093  0.2054  0.0245  0.0650
 7936W        W 7936   3.919   1.076   3.031 -0.0221 -0.2407 -0.0617
 7937W        W 7937   1.609   9.923   3.119 -0.1311  0.0306 -0.0277
 7938W        W 7938   8.694   1.974   7.451 -0.1991  0.1188 -0.0401
 7939W        W 7939   3.049   9.982   5.083  0.1582  0.1804  0.1283
 7940W        W 7940   6.218   7.753   2.219  0.0273 -0.0375 -0.0562
 7941W        W 7941   6.156   0.648   3.351  0.0311 -0.2177 -0.0920
 7942W        W 7942   6.165   3.430   5.800  0.0522  0.2349  0.0360
 7943W        W 7943   4.203   8.136   0.528  0.3752 -0.1091 -0.0754
 7944W        W 7944   7.483   2.325   8.577 -0.0308  0.0827 -0.0756
 7945W        W 7945   7.672   0.875   0.362  0.0350  0.0633 -0.3544
 7946W        W 7946   7.018   5.626  10.308  0.1230  0.2614 -0.1136
 7947W        W 7947   2.441   0.433   6.939 -0.1728 -0.1106  0.2207
 7948W        W 7948   7.599   9.167   4.627  0.1707 -0.1000 -0.0797
 7949W        W 7949   0.747   5.542   4.537  0.0734  0.0215  0.0817
 7950W        W 7950   0.265   3.873   4.354  0.2588 -0.1009  0.1543
 7951W        W 7951   2.528   9.772   6.069 -0.0310  0.1010  0.1310
 7952W        W 7952   2.440   0.410   3.596 -0.0888  0.2560 -0.1107
 7953W        W 7953   0.535   5.768   0.508  0.2176 -0.3262  0.0284
 7954W        W 7954   2.112   6.348   6.982  0.5149  0.3664 -0.1093
 7955W        W 7955   6.545   0.607   8.076 -0.0136  0.0040 -0.0874
 7956W        W 7956   1.569   5.365   4.918  0.1437  0.0979 -0.1388
 7957W        W 7957   2.008   4.038   9.774  0.1058 -0.3079 -0.0501
 7958W        W 7958   2.185   5.020  10.118 -0.1615  0.1196 -0.1747
 7959W        W 7959   1.290   6.013   0.974  0.1133  0.0191 -0.0131
 7960W        W 7960   4.942   6.704   0.642  0.4126 -0.2540 -0.0242
 7961W        W 7961   6.312   2.026   3.727  0.0083  0.0469  0.1162
 7962W        W 7962   7.911   0.980   2.968  0.0614  0.2012 -0.1668
 7963W        W 7963   5.243   5.870   6.187 -0.2057  0.0190  0.3449
 7964W        W 7964   1.515   4.687   2.231 -0.1408 -0.1223  0.1631
 7965W        W 7965   0.263   6.914   3.858 -0.1125  0.0716 -0.2647
 7966W        W 7966   3.743   1.507   2.905  0.3241 -0.0573 -0.0685
 7967W        W 7967   2.842   2.554   3.150 -0.0483  0.2135 -0.1504
 7968W        W 7968   2.901   0.256   4.982  0.1102  0.0704 -0.0496
 7969W        W 7969   0.281   2.555   6.821 -0.0885 -0.0739  0.3066
 7970W        W 7970   6.649   7.414   9.707  0.1256  0.3662  0.1143
 7971W        W 7971   5.999   3.777   2.978  0.2425 -0.2538 -0.0786
 7972W        W 7972   3.573   7.146   4.366 -0.0475 -0.1233 -0.1987
 7973W        W 7973   9.648   6.685   4.054  0.1514 -0.0758  0.3476
 7974W        W 7974   9.548   6.598   1.906 -0.3390  0.1501  0.1216
 7975W        W 7975   0.687   1.456   5.946  0.1111 -0.1126 -0.0984
 7976W        W 7976   8.313   6.480   1.153  0.0672 -0.0289  0.1018
 7977W        W 7977   5.217   4.918   9.321 -0.0676  0.1877  0.0743
 7978W        W 7978   1.286   3.373   0.263 -0.4514 -0.0372  0.2542
 7979W        W 7979   4.083   2.720   8.292  0.5008  0.1276 -0.3243
 7980W        W 7980   3.873   3.572   2.422  0.1285  0.1432  0.3254
 7981W        W 7981   9.333   8.676   1.679 -0.1465 -0.0919  0.3612
 7982W        W 7982   9.227   2.477   8.885  0.1398  0.1683  0.0176
 7983W        W 7983   1.545   4.014   6.741  0.0304 -0.1075  0.0788
 7984W        W 7984   5.544   3.147   2.464  0.0425  0.1037 -0.1620
 7985W        W 7985   5.920  10.060   0.698 -0.1418 -0.0013 -0.0281
 7986W        W 7986   5.315   2.863   3.601 -0.0490  0.1793 -0.1138
 7987W        W 7987   8.476   6.567   7.117  0.1410 -0.3916  0.1738
 7988W        W 7988   7.866  10.321   7.733  0.0427 -0.1197 -0.0186
 7989W        W 7989   7.368   4.481   8.636 -0.1389  0.3699  0.2202
 7990W        W 7990   5.373   4.550   4.515 -0.0295 -0.2212 -0.0810
 7991W        W 7991   5.505   0.886   8.693 -0.2249 -0.2650 -0.0454
 7992W        W 7992   1.595   1.200   5.704 -0.1694 -0.1446 -0.5341
 7993W        W 7993   0.947   0.485   5.747  0.3909 -0.2505  0.3219
 7994W        W 7994   0.943   4.592   7.385  0.1411  0.2951 -0.2726
 7995W        W 7995   4.676   5.277   2.824 -0.0504 -0.3527 -0.0232
 7996W        W 7996   9.353   8.792   0.415  0.0326 -0.3251 -0.1292
 7997W        W 7997   8.645   8.096   2.497 -0.1488  0.0733 -0.4184
 7998W        W 7998   4.745   7.413   9.551 -0.4899 -0.0723 -0.0364
 7999W        W 7999   7.238   1.969   3.426 -0.1734  0.0392  0.1422
 8000W        W 8000   4.929   9.040   2.027 -0.0716 -0.3318 -0.1707
 8001W        W 8001   4.570   3.241   7.442 -0.2019  0.0505 -0.2217
 8002W        W 8002   7.975  10.299   1.262  0.0266 -0.1182 -0.1725
 8003W        W 8003   5.389   5.196   8.834 -0.1063  0.0314  0.0002
 8004W        W 8004   2.043   5.964   1.855 -0.1004  0.0241 -0.2396
 8005W        W 8005   4.093   0.739   0.662 -0.1751  0.0613 -0.0935
 8006W        W 8006   0.990   4.325   1.309  0.1448 -0.2599  0.0783
 8007W        W 8007   3.383   2.587   9.828  0.3610  0.1606  0.0301
 8008W        W 8008   2.693   4.541   0.516  0.1850  0.1746 -0.0859
 8009W        W 8009  10.237   0.787   2.528 -0.0479 -0.1893 -0.1511
 8010W        W 8010   5.309   3.567   6.392  0.1411  0.1465  0.2962
 8011W        W 8011   5.569   7.298   3.681  0.0516  0.1372 -0.1944
 8012W        W 8012   8.678   2.456   3.175 -0.1556  0.0930 -0.2644
 8013W        W 8013   3.074   2.565   4.112 -0.1936 -0.0048  0.2223
 8014W        W 8014   8.092   7.692   1.854 -0.0017  0.2915  0.0799
 8015W        W 8015   3.700   2.855   3.656 -0.1199  0.1277  0.0884
 8016W        W 8016   7.633   5.120   7.488 -0.4351 -0.2573 -0.1722
 8017W        W 8017   3.591   9.892   4.208  0.2273 -0.0704 -0.2257
 8018W        W 8018   0.630   5.450   0.070  0.3155  0.2081 -0.1716
 8019W        W 8019   6.587   3.088   3.984  0.0023  0.1852  0.1867
 8020W        W 8020   8.788   5.889   5.779  0.0624  0.0902 -0.0717
 8021W        W 8021   0.918   0.877   7.392 -0.3026  0.1666 -0.0159
 8022W        W 8022   4.081   0.120   9.813 -0.0210  0.0608 -0.2174
 8023W        W 8023   1.340   0.798   6.431  0.4960 -0.2645  0.0415
 8024W        W 8024   1.848   9.933   6.740 -0.0785  0.1708 -0.3326
 8025W        W 8025   4.243   3.969   2.407 -0.0088  0.1472 -0.2474
 8026W        W 8026   6.677   2.069   2.599  0.0221  0.1686  0.1908
 8027W        W 8027   0.299   1.701  10.133 -0.2945 -0.1740  0.0543
 8028W        W 8028   3.043   1.625   4.191  0.0297 -0.2333 -0.1136
 8029W        W 8029   5.848   1.611   8.818  0.1288  0.0120 -0.1355
 8030W        W 8030   3.669   7.597   7.205  0.3302 -0.1158 -0.1202
 8031W        W 8031   5.428  10.239   1.691  0.0408 -0.1751 -0.2990
 8032W        W 8032   6.292   9.195   4.973 -0.1422 -0.1528 -0.1700
 8033W        W 8033   7.247  10.167   1.386  0.1561  0.1258 -0.0193
 8034W        W 8034   9.202   0.494   2.228  0.2271  0.2538  0.0401
 8035W        W 8035  10.181   4.442   0.351 -0.0879 -0.0441 -0.2230
 8036W        W 8036   7.634   9.454   2.509 -0.1033 -0.1883  0.0035
 8037W        W 8037   3.783   3.680   6.367  0.0114 -0.2613 -0.3076
 8038W        W 8038   6.200   0.645   3.906 -0.0315  0.0929  0.0079
 8039W        W 8039   7.668   4.687   5.986  0.2851  0.1166  0.2087
 8040W        W 8040   4.250   2.582   6.655  0.1131  0.0497  0.2239
 8041W        W 8041   4.089   4.417   8.856  0.1040  0.0988 -0.0555
 8042W        W 8042   8.953   9.573   9.166 -0.3144 -0.0658 -0.1037
 8043W        W 8043   7.071   2.424   8.300  0.0303  0.1525 -0.1771
 8044W        W 8044   8.124   2.221   3.178 -0.2362  0.1764 -0.3365
 8045W        W 8045   2.732   6.260   8.292 -0.0167  0.0154  0.1774
 8046W        W 8046   0.550   6.505   0.196  0.0289  0.0463  0.1164
 8047W        W 8047   3.383   2.360   1.179 -0.4583 -0.0785 -0.2234
 8048W        W 8048   5.339   8.996   7.878 -0.1660  0.0557  0.0467
 8049W        W 8049   8.583   1.881   1.752  0.0396 -0.1492  0.0372
 8050W        W 8050   7.895   2.704   4.079  0.2283  0.0802 -0.4128
 8051W        W 8051   6.078   5.763   9.103 -0.0103 -0.2116  0.0638
 8052W        W 8052   0.464   1.477   0.845 -0.1056  0.0190  0.3733
 8053W        W 8053   5.438   1.542   1.531  0.1730 -0.0128  0.2283
 8054W        W 8054   2.889   9.609   8.132 -0.0361  0.0346 -0.0590
 8055W        W 8055   9.335   1.796   5.164 -0.0908  0.0462  0.0050
 8056W        W 8056   1.529   6.848   5.399  0.1113  0.0021 -0.0567
 8057W        W 8057   7.113   9.045   8.259  0.0406  0.2682 -0.0361
 8058W        W 8058   4.093   0.211   4.289 -0.0680 -0.1235  0.3741
 8059W        W 8059   8.357   0.517   9.464 -0.0370  0.1147  0.2943
 8060W        W 8060   1.199   8.914   6.784  0.1889 -0.0138  0.2016
 8061W        W 8061   5.780   5.872   0.859 -0.4926 -0.2483 -0.0728
 8062W        W 8062   7.789   3.581   1.597  0.0289 -0.0821  0.2645
 8063W        W 8063   7.160   2.940   9.149  0.0221 -0.0107  0.1980
 8064W        W 8064   2.573   4.207   9.973  0.0210  0.0149 -0.1543
 8065W        W 8065   8.665   1.355   8.819 -0.0837  0.1663  0.2276
 8066W        W 8066   5.143   1.457   4.563 -0.0675  0.2560 -0.5183
 8067W        W 8067   0.975   4.221   6.501 -0.1417  0.0788  0.2217
 8068W        W 8068   4.949   4.442   6.861  0.1769 -0.2300  0.1513
 8069W        W 8069   4.265   5.867   5.773 -0.0405 -0.0844 -0.0798
 8070W        W 8070   9.864   8.945   4.431  0.0014  0.0364  0.3035
 8071W        W 8071   9.391   7.139   5.228  0.3924  0.0213  0.0097
 8072W        W 8072   4.014   1.802   6.484 -0.2305  0.2105 -0.3827
 8073W        W 8073   4.360   8.993   7.674  0.3391  0.7371  0.0367
 8074W        W 8074   4.306   9.253   7.206  0.1142 -0.1294 -0.1532
 8075W        W 8075  10.330   4.837  10.217  0.0707  0.1250 -0.2934
 8076W        W 8076   9.818   4.645   6.237 -0.0323 -0.2439  0.2188
 8077W        W 8077   0.756   6.636   4.004 -0.0988  0.1376  0.1316
 8078W        W 8078   6.592   2.364   1.981  0.5237 -0.1057  0.1211
 8079W        W 8079   3.892   2.440   9.654 -0.0535  0.0547 -0.0766
 8080W        W 8080   6.131   3.268   4.146  0.2469 -0.0907 -0.1011
 8081W        W 8081   2.521   6.515   0.222  0.0220 -0.3803 -0.0207
 8082W        W 8082   8.919   1.529   1.037 -0.0017  0.2568  0.0191
 8083W        W 8083   5.999   7.843   8.541  0.0454 -0.4120  0.0199
 8084W        W 8084   1.559   5.566   0.000 -0.0172 -0.0444  0.0502
 8085W        W 8085   2.778   7.236   8.960 -0.0828 -0.1138 -0.1110
 8086W        W 8086   1.828   2.990   4.484  0.0116 -0.0008 -0.2197
 8087W        W 8087   5.288   1.325   8.588  0.0525  0.1353  0.3256
 8088W        W 8088   2.065   0.360   1.325 -0.0648  0.2391 -0.0576
 8089W        W 8089   8.886   2.995   7.659  0.1477  0.1950 -0.0948
 8090W        W 8090   4.312   5.195   6.053 -0.1128 -0.2844  0.0353
 8091W        W 8091   2.725   0.797   1.210  0.3150  0.1330  0.3334
 8092W        W 8092   0.751   3.342   6.565  0.0877 -0.0771 -0.1362
 8093W        W 8093   7.702   7.779   2.127 -0.0280 -0.1037 -0.0825
 8094W        W 8094   0.494   3.361   1.568 -0.2246 -0.0729  0.0597
 8095W        W 8095   8.751   7.482   8.298 -0.1225  0.1233  0.1077
 8096W        W 8096   3.606   0.105   9.984  0.1392 -0.1696 -0.2587
 8097W        W 8097   0.463   0.468   5.823 -0.3099  0.1338  0.0223
 8098W        W 8098   7.215   3.596   6.414 -0.1318 -0.0553  0.2032
 8099W        W 8099   6.972   8.968   6.118  0.2191  0.1890 -0.0848
 8100W        W 8100   1.151   6.684   2.630 -0.0468  0.1228 -0.2098
 8101W        W 8101   5.521   5.052   6.623 -0.0281 -0.0880 -0.0777
 8102W        W 8102   6.715   0.714   4.219  0.0246 -0.1272 -0.2422
 8103W        W 8103   2.320   8.487   6.108  0.0421 -0.1714 -0.4535
 8104W        W 8104   4.348   4.811   8.657 -0.0648 -0.1492 -0.4790
 8105W        W 8105   2.111   2.935   4.932 -0.0164 -0.1067  0.2749
 8106W        W 8106  10.123   9.338   9.054  0.0934 -0.0022  0.0064
 8107W        W 8107   7.833   9.942   9.062  0.0561 -0.0501  0.0526
 8108W        W 8108   7.000   0.256   1.281  0.0905  0.1865  0.0430
 8109W        W 8109   3.248   5.876   6.442 -0.0639  0.1451 -0.0814
 8110W        W 8110   7.156   0.029   7.875 -0.0110 -0.1978 -0.0484
 8111W        W 8111   5.644   7.909   2.754  0.0584  0.0320  0.2955
 8112W        W 8112   4.974   5.049   7.401  0.0513 -0.0888  0.0626
 8113W        W 8113   2.180   9.266   5.759  0.0374 -0.0539 -0.0995
 8114W        W 8114   9.192   4.129   7.201 -0.0664 -0.1891  0.1795
 8115W        W 8115   1.840   6.370   7.439 -0.0470  0.1034  0.2682
 8116W        W 8116   3.293   1.609   9.413  0.1044  0.1795  0.0075
 8117W        W 8117   7.344   7.337   6.965  0.0377 -0.3794  0.1559
 8118W        W 8118   9.073   6.460   2.060 -0.2628 -0.2015  0.0669
 8119W        W 8119   2.813   4.200   6.453 -0.1605 -0.0834 -0.0158
 8120W        W 8120   8.119   6.672   9.643  0.3615 -0.0999 -0.1227
 8121W        W 8121   6.547   4.580   3.016  0.1193 -0.1173  0.0421
 8122W        W 8122   4.850   3.512   5.008 -0.0515 -0.1910  0.3364
 8123W        W 8123   4.198   0.371   5.108 -0.2366  0.2629 -0.0107
 8124W        W 8124   8.803   1.452   1.872 -0.3783  0.0514  0.2502
 8125W        W 8125   8.198   4.543   6.862 -0.3087  0.0447 -0.0465
 8126W        W 8126   9.035   5.176   2.697  0.2983  0.1270  0.0023
 8127W        W 8127   1.877   8.665   6.314 -0.0723  0.1836 -0.1015
 8128W        W 8128   4.342   4.200   9.495 -0.2008 -0.1021 -0.4799
 8129W        W 8129   9.996   1.951   3.219 -0.0795 -0.1432  0.0308
 8130W        W 8130  10.177   4.245   8.080 -0.2154 -0.2262  0.1669
 8131W        W 8131   7.486   6.527   7.426  0.0967  0.2026  0.0146
 8132W        W 8132   7.223   8.328   5.624 -0.0485 -0.1747 -0.2148
 8133W        W 8133   9.125   7.316   6.978  0.0173  0.0898 -0.0610
 8134W        W 8134   8.580   0.362   0.353  0.0505 -0.2583 -0.0490
 8135W        W 8135   2.650   2.946   6.272  0.2176 -0.2507 -0.2842
 8136W        W 8136   8.924   0.422   0.762 -0.1319  0.0578 -0.2609
 8137W        W 8137   5.079   9.708   4.607 -0.1735  0.1857 -0.0602
 8138W        W 8138   4.731   3.828   9.642 -0.1733 -0.1736 -0.0617
 8139W        W 8139   4.144   1.659   5.083  0.0113 -0.0194 -0.2193
 8140W        W 8140   4.118   1.849   2.029 -0.0475 -0.0092 -0.0264
 8141W        W 8141   2.066   9.033   6.637  0.1394  0.0096 -0.1011
 8142W        W 8142   7.293   6.121  10.291 -0.1878 -0.0293  0.3214
 8143W        W 8143   6.816   2.797   1.684 -0.3151  0.0581  0.0451
 8144W        W 8144   7.771   5.121   3.345 -0.3732 -0.2521 -0.1866
 8145W        W 8145   2.134   8.827   0.491 -0.0294 -0.1197  0.0797
 8146W        W 8146   9.929   5.214   6.685  0.3455 -0.1643 -0.0890
 8147W        W 8147   4.765   1.651   8.750  0.0399 -0.0692 -0.1385
 8148W        W 8148   9.962   0.125   3.044  0.1117 -0.0683 -0.3008
 8149W        W 8149   4.188   1.445   5.687  0.0597 -0.0624  0.1514
 8150W        W 8150   4.875   9.895   2.829 -0.1574 -0.0398  0.0178
 8151W        W 8151   2.689   8.141   8.595 -0.0041 -0.1152  0.1636
 8152W        W 8152   3.994   8.743  10.137  0.5701  0.1407 -0.0972
 8153W        W 8153   2.427   6.392   9.631  0.2197  0.1175 -0.0248
 8154W        W 8154   0.874   3.041   8.449 -0.2480  0.1311 -0.2571
 8155W        W 8155   0.954   9.104   3.280  0.2278 -0.3746  0.0864
 8156W        W 8156   2.683   6.434   2.893  0.0488 -0.4252  0.0948
 8157W        W 8157   2.782   8.954   9.029  0.1378  0.2086 -0.1341
 8158W        W 8158   5.391   4.440   8.807 -0.0040 -0.3052 -0.0893
 8159W        W 8159   4.309   5.614   2.409 -0.0941 -0.0839  0.1008
 8160W        W 8160   0.605   8.281   2.596  0.0031  0.0197  0.1626
 8161W        W 8161   1.643   6.446   2.873  0.0593  0.3348  0.1290
 8162W        W 8162   0.440   5.839   3.051 -0.0530 -0.2610  0.0611
 8163W        W 8163   1.606   2.392   9.420  0.1478  0.3625  0.2377
 8164W        W 8164   2.032   4.409   1.320 -0.2791 -0.2187  0.1351
 8165W        W 8165   4.756  10.061   4.642  0.1590  0.1057  0.1551
 8166W        W 8166   8.765   4.449   0.923  0.2393 -0.0608  0.1541
 8167W        W 8167   1.154   9.026   4.241 -0.2295  0.0289  0.4724
 8168W        W 8168   6.699   1.076   2.479 -0.1507  0.2456  0.1555
 8169W        W 8169   0.489   5.987   5.236  0.0399  0.2639 -0.0941
 8170W        W 8170   9.408   9.335   3.863 -0.3545 -0.2883 -0.3102
 8171W        W 8171   0.290   5.067   8.806 -0.0316 -0.4456 -0.0263
 8172W        W 8172   5.942   4.052   2.553 -0.1692  0.0100 -0.3866
 8173W        W 8173   0.729   4.364   9.834 -0.2072 -0.0872 -0.2314
 8174W        W 8174   9.658   8.140   7.032 -0.1410 -0.2820 -0.2018
 8175W        W 8175   5.819   2.968   4.492  0.0767 -0.0024  0.1250
 8176W        W 8176   8.201   2.282   1.831  0.1731 -0.0462  0.2961
 8177W        W 8177   6.335   2.496   8.838  0.0042 -0.1465  0.1442
 8178W        W 8178   1.351   7.553   2.505  0.1334 -0.1262  0.3527
 8179W        W 8179   0.660   3.867   9.617 -0.1744  0.2764 -0.0924
 8180W        W 8180   2.477   5.700   1.773 -0.0759  0.2378 -0.0085
 8181W        W 8181   1.765   8.043   4.655 -0.2000  0.1007  0.0344
 8182W        W 8182  10.043   0.287   3.881  0.0451 -0.1855 -0.0274
 8183W        W 8183  10.212   2.250   9.271 -0.1084 -0.0174  0.2161
 8184W        W 8184   0.394  10.211   4.190 -0.0299  0.0720  0.0254
 8185W        W 8185   0.940   0.023   9.780  0.1578 -0.2134  0.0215
 8186W        W 8186   4.613   3.830  10.156  0.2848  0.0574  0.0524
 8187W        W 8187   5.693   9.082   1.433  0.3651 -0.4227 -0.1787
 8188W        W 8188   8.126   5.163   7.510 -0.1415 -0.1913 -0.1552
 8189W        W 8189   5.778   8.131   0.249  0.5015 -0.2952 -0.0062
 8190W        W 8190   5.271   8.238   3.560 -0.2250 -0.1598  0.3234
 8191W        W 8191   4.387   7.168   0.043  0.0824 -0.0693  0.1404
 8192W        W 8192   8.143   7.586   9.636  0.0223  0.2178 -0.1143
 8193W        W 8193   8.077   7.101   9.882  0.0211 -0.1279  0.1953
 8194W        W 8194   6.782   2.924   5.209 -0.2329 -0.0474  0.1834
 8195W        W 8195   0.423   0.307   3.270 -0.0512 -0.3202 -0.1371
 8196W        W 8196   4.114   9.810   6.243 -0.0675  0.1181  0.3323
 8197W        W 8197   4.944   4.458   6.007 -0.0292 -0.1252 -0.2469
 8198W        W 8198   6.288   6.955   4.534 -0.0473  0.3181  0.0304
 8199W        W 8199   3.827   1.844   4.333 -0.3304 -0.1287  0.0865
 8200W        W 8200   4.676   2.747   1.035 -0.0275 -0.0183  0.1770
 8201W        W 8201   4.356   3.535   2.180  0.2992  0.2142 -0.0736
 8202W        W 8202   2.079   6.026   7.768 -0.0141 -0.1607 -0.1749
 8203W        W 8203   9.727   8.626   1.009 -0.0275  0.1065 -0.0356
 8204W        W 8204   2.291   8.913   9.349 -0.1566 -0.1931  0.0150
 8205W        W 8205   6.549   9.395   1.003  0.1546 -0.0711 -0.0743
 8206W        W 8206   3.817   4.129   9.734  0.0664 -0.0555 -0.0824
 8207W        W 8207   4.892   8.886   9.804  0.1879  0.0487 -0.1926
 8208W        W 8208   0.014   0.378   2.934  0.3658 -0.1684  0.1185
 8209W        W 8209   5.340   4.175   7.975  0.0592  0.3073  0.2896
 8210W        W 8210   4.485   6.134   8.224 -0.2349  0.0885 -0.1783
 8211W        W 8211   5.925   3.699   7.731  0.1175 -0.0577  0.0147
 8212W        W 8212   7.546  10.208   5.567 -0.0344 -0.0633  0.2561
 8213W        W 8213   1.807   6.747   4.986  0.0506 -0.0150 -0.2283
 8214W        W 8214   0.344   6.714   0.663 -0.0608  0.0907  0.2240
 8215W        W 8215   3.252   8.543   8.518  0.0525  0.1682  0.2778
 8216W        W 8216   4.993   1.156   5.271  0.1917  0.0871  0.4168
 8217W        W 8217   6.353   5.530   9.576 -0.0632  0.2110  0.2511
 8218W        W 8218   3.932   8.001   8.510 -0.1281  0.0526 -0.0660
 8219W        W 8219   6.650   6.665   8.993 -0.0485 -0.1588  0.0086
 8220W        W 8220   9.474   1.204   7.315 -0.1549  0.0245 -0.1831
 8221W        W 8221   0.309   0.267   7.076 -0.1158 -0.1810  0.3933
 8222W        W 8222   1.418   1.879   5.194  0.2159 -0.3085  0.0480
 8223W        W 8223   6.911   5.972   5.258  0.0820  0.1418 -0.1280
 8224W        W 8224   7.211   0.209   0.021 -0.1621  0.0697  0.2249
 8225W        W 8225   2.248   7.518   4.412  0.0480  0.0259 -0.0326
 8226W        W 8226   9.069   0.383   2.674 -0.0053 -0.2560  0.0657
 8227W        W 8227   2.996  10.093   8.949  0.1779  0.0484  0.2362
 8228W        W 8228   3.293   2.844   5.607 -0.3097  0.2108  0.0990
 8229W        W 8229   3.602   6.958   0.574 -0.2294 -0.0679  0.0092
 8230W        W 8230   6.558   2.371   8.352 -0.0968  0.0775 -0.1552
 8231W        W 8231   3.728   6.726   5.864  0.1036  0.0448 -0.2442
 8232W        W 8232   8.492   4.634   8.802  0.2906 -0.3426 -0.0317
 8233W        W 8233   0.979   9.436   7.852 -0.2368 -0.0141 -0.0579
 8234W        W 8234   0.732   3.342   1.038  0.0438 -0.4029  0.1087
 8235W        W 8235   1.144   1.093   9.607  0.1138  0.0285  0.0046
 8236W        W 8236   1.790   3.589   4.645 -0.0119 -0.4624  0.0766
 8237W        W 8237   1.806   5.101   7.893  0.2544 -0.1908  0.2819
 8238W        W 8238   4.144   8.041   6.552  0.0170  0.3130 -0.0567
 8239W        W 8239  10.259   1.378  10.249  0.1442 -0.2776 -0.1505
 8240W        W 8240   6.340   4.462   7.799  0.2169 -0.0798 -0.0975
 8241W        W 8241   3.615   1.813   3.317  0.4092  0.1735  0.1949
 8242W        W 8242   9.650   8.401   1.469  0.4285  0.1132  0.4194
 8243W        W 8243   9.928   3.449   2.715  0.0063 -0.0682  0.0208
 8244W        W 8244   6.455   9.656   4.931 -0.3250 -0.3602  0.2021
 8245W        W 8245   7.833   0.379   4.197 -0.1473 -0.0568 -0.0688
 8246W        W 8246   1.417   9.266   2.824 -0.1655 -0.1510  0.2270
 8247W        W 8247   2.883   1.942   6.665 -0.2484 -0.1177  0.0703
 8248W        W 8248   2.299   5.261   8.088  0.1734 -0.0141  0.3519
 8249W        W 8249   2.660   5.906   5.891  0.0791 -0.0125 -0.0420
 8250W        W 8250   6.404   5.170   0.691 -0.0490  0.0646 -0.1037
 8251W        W 8251   6.399   2.580   9.405  0.0313  0.0316 -0.1916
 8252W        W 8252   5.058   5.942  10.308 -0.0693 -0.1646  0.2102
 8253W        W 8253  10.244   5.124   9.115  0.0733 -0.0009 -0.2165
 8254W        W 8254   5.530   6.602   3.393  0.2624  0.1604  0.3556
 8255W        W 8255   1.970   2.258   0.234  0.2393 -0.3716 -0.5071
 8256W        W 8256   6.322   3.546   3.779  0.2002 -0.4204  0.4308
 8257W        W 8257   9.499   9.439   5.554 -0.0982  0.0382 -0.3634
 8258W        W 8258   0.732   9.524   8.820  0.4640 -0.2183 -0.1788
 8259W        W 8259   1.336   0.765   1.716  0.1825 -0.0038  0.0267
 8260W        W 8260   1.506   9.847   9.637 -0.0303 -0.1397  0.1147
 8261W        W 8261   7.718   5.687   0.167 -0.2350  0.3730 -0.3610
 8262W        W 8262   2.209   4.267   7.975  0.1418 -0.0521 -0.0441
 8263W        W 8263   1.301   6.269   7.865 -0.1995 -0.1688  0.2589
 8264W        W 8264   5.233   2.898   4.369  0.1405  0.3448  0.1944
 8265W        W 8265   4.392   3.668   5.218 -0.0132  0.3064  0.0108
 8266W        W 8266   9.074   6.745   9.986 -0.0116 -0.0707 -0.1457
 8267W        W 8267   2.202   8.381   3.243  0.0952 -0.0627 -0.0571
 8268W        W 8268   6.302   4.057   7.390 -0.1044  0.2499 -0.1403
 8269W        W 8269   4.576   4.079   7.883 -0.1286 -0.4438 -0.1060
 8270W        W 8270   8.664   9.376   5.291 -0.0598 -0.0965 -0.1787
 8271W        W 8271   8.627   8.460   2.917  0.0292 -0.1904 -0.0507
 8272W        W 8272   8.688   2.132   1.259 -0.4687  0.0023  0.2023
 8273W        W 8273   8.123   2.608   6.173  0.1540  0.0959 -0.0443
 8274W        W 8274   8.825   2.875  10.308  0.0654  0.2433 -0.0570
 8275W        W 8275   4.261   3.527   3.332  0.1487 -0.1398 -0.0982
 8276W        W 8276   7.744   1.841   3.223  0.0765  0.1694  0.0656
 8277W        W 8277   8.151   2.745   3.167 -0.4271 -0.1640  0.1626
 8278W        W 8278   0.207   2.303  10.220  0.0530  0.1020  0.0693
 8279W        W 8279   5.395   7.956   6.151  0.5130 -0.2462  0.0396
 8280W        W 8280   5.988   6.312   3.902  0.1505  0.1269 -0.1323
 8281W        W 8281   0.253   6.340   7.879  0.3020 -0.1275 -0.2075
 8282W        W 8282   6.964   9.513   4.107  0.3136  0.0073  0.0808
 8283W        W 8283   2.005   0.569   8.011 -0.1119  0.0182  0.1203
 8284W        W 8284   0.557   3.795   0.256  0.0099  0.1324 -0.0815
 8285W        W 8285   3.715   0.442   6.516 -0.0095  0.1039 -0.2618
 8286W        W 8286   7.941   0.201   8.610  0.0563 -0.2154 -0.1341
 8287W        W 8287   6.030   8.151   4.830  0.2904 -0.2108  0.2442
 8288W        W 8288   4.542   5.411   0.516  0.4003  0.1138 -0.0098
 8289W        W 8289   1.319   4.899   4.349 -0.0145 -0.4472  0.2785
 8290W        W 8290   5.978   1.304   3.250  0.0626  0.2224  0.0229
 8291W        W 8291   0.159   6.903   4.393 -0.2188 -0.2958  0.0790
 8292W        W 8292   9.903   7.185   6.222  0.2034  0.2686  0.0634
 8293W        W 8293   1.056   8.023   7.970  0.1342 -0.0805 -0.1280
 8294W        W 8294   6.609   2.441   6.138 -0.1402 -0.1388  0.0024
 8295W        W 8295   0.637   7.298   9.302  0.1470  0.1302 -0.1157
 8296W        W 8296   6.338   5.751   5.904  0.1329  0.0547  0.2972
 8297W        W 8297   2.307   4.783   1.540  0.3494  0.0573 -0.0597
 8298W        W 8298   2.657   0.914   2.991  0.1074  0.1966  0.1334
 8299W        W 8299   5.785   2.258  10.128 -0.2774 -0.2721 -0.1298
 8300W        W 8300   7.617   0.886   3.424  0.2156 -0.4015 -0.1001
 8301W        W 8301   4.065   4.943   9.068 -0.0010 -0.0234 -0.0575
 8302W        W 8302   8.717   5.901   3.903 -0.1698  0.2222  0.0008
 8303W        W 8303   3.822   7.316   0.821 -0.0211  0.2930  0.0564
 8304W        W 8304   3.266   1.387   4.578 -0.0210  0.1410 -0.1571
 8305W        W 8305   4.883   4.158   5.581 -0.3388  0.0645  0.2508
 8306W        W 8306   1.819   6.661   3.325 -0.3310  0.2452  0.1111
 8307W        W 8307  10.147   6.953   2.791  0.0263  0.3112 -0.0540
 8308W        W 8308   5.427   7.580   8.003  0.1053  0.4677 -0.1264
 8309W        W 8309   9.093   9.826   4.578 -0.0067  0.1140 -0.0703
 8310W        W 8310   6.207   1.736   9.974  0.1494  0.1763 -0.0327
 8311W        W 8311   2.671   2.355   6.064 -0.0058  0.0359  0.0605
 8312W        W 8312   2.003   6.791   5.514  0.1429  0.1481 -0.1344
 8313W        W 8313   4.774   0.635   4.413  0.1105 -0.2794 -0.0281
 8314W        W 8314   6.314   5.095   3.512 -0.4551  0.2742  0.3779
 8315W        W 8315  10.272   6.911   3.472  0.0834  0.2243 -0.2631
 8316W        W 8316   2.226   8.177   4.884  0.3082 -0.0811 -0.3054
 8317W        W 8317   4.092   6.391   4.160  0.4012  0.2479 -0.3161
 8318W        W 8318   4.059   3.331   7.466 -0.1452  0.1380 -0.1619
 8319W        W 8319   4.397   6.119   3.941 -0.2525 -0.0637  0.2885
 8320W        W 8320   8.472   0.826   8.035 -0.1272  0.0151  0.0176
 8321W        W 8321   5.273   7.957   3.118 -0.0119 -0.0743  0.2103
 8322W        W 8322   0.528   5.600   5.586 -0.0319  0.3208  0.1253
 8323W        W 8323   4.335   8.368   4.775  0.2375 -0.1086 -0.0400
 8324W        W 8324   9.173   1.246   9.738  0.2345  0.3219  0.4540
 8325W        W 8325   9.472   0.829   2.838 -0.0316 -0.4211  0.0667
 8326W        W 8326   1.768   7.946   8.727  0.1871 -0.0628  0.2774
 8327W        W 8327   8.998   0.220   0.071  0.0221 -0.2679 -0.1774
 8328W        W 8328   0.888   6.404   9.508  0.0550  0.1619  0.0759
 8329W        W 8329   0.795  10.266   1.938 -0.0698  0.3934  0.0792
 8330W        W 8330   8.451  10.071   6.376  0.2601  0.0238  0.1461
 8331W        W 8331   3.076   7.294   4.244  0.2653  0.0516 -0.1835
 8332W        W 8332   9.017   9.727  10.111 -0.0173 -0.0966  0.0168
 8333W        W 8333   9.258   7.998  10.327  0.1587  0.1447 -0.2324
 8334W        W 8334   0.734   7.131   3.840  0.1763  0.4059 -0.0225
 8335W        W 8335   1.640   6.285   4.930  0.2719  0.0820 -0.1791
 8336W        W 8336   4.501   1.956  10.320 -0.3542  0.1516 -0.0171
 8337W        W 8337   1.012   8.467   0.926  0.0670  0.1069 -0.0605
 8338W        W 8338   5.765   3.932   9.853 -0.1980  0.0145  0.1696
 8339W        W 8339  10.163   6.315   5.790 -0.0766 -0.1129  0.3778
 8340W        W 8340   1.123   6.341   3.572  0.4638  0.0300 -0.4165
 8341W        W 8341   2.837   8.096   2.743 -0.1154  0.1208  0.2446
 8342W        W 8342   1.235   6.008   5.553 -0.2048  0.4331  0.0462
 8343W        W 8343   0.173   9.441   6.917 -0.1728 -0.1578 -0.1455
 8344W        W 8344   3.207   6.807   0.872 -0.1097  0.0283 -0.0030
 8345W        W 8345  10.056   8.608   3.557  0.0575  0.2293 -0.0314
 8346W        W 8346   6.317   7.993   5.641  0.6109 -0.0274 -0.0306
 8347W        W 8347   4.731   1.474   3.765  0.1740 -0.0135 -0.0403
 8348W        W 8348   4.139   1.606   3.201 -0.1155 -0.0520  0.3873
 8349W        W 8349   2.535   9.374   7.894  0.2702 -0.2238  0.0077
 8350W        W 8350   9.173   8.830   6.507 -0.0934 -0.0311  0.0109
 8351W        W 8351  10.332   4.758   3.007  0.0130 -0.1086  0.3256
 8352W        W 8352   5.856   7.878   5.977  0.0836  0.1483 -0.0176
 8353W        W 8353   6.135   6.722   7.024  0.3687  0.2217  0.1600
 8354W        W 8354   5.341   2.446   2.717  0.0721  0.1386 -0.1989
 8355W        W 8355   8.074   7.943   1.344  0.0017 -0.0148 -0.2491
 8356W        W 8356   2.652   3.023   4.299 -0.2119 -0.0707  0.1299
 8357W        W 8357   3.946   1.501   6.102  0.1641 -0.0083  0.1562
 8358W        W 8358   4.680   2.994   8.150  0.0453  0.0057 -0.1223
 8359W        W 8359   9.396   6.823   1.252 -0.2451  0.0607  0.1210
 8360W        W 8360   8.448   1.977   5.615 -0.0666  0.0179 -0.4255
 8361W        W 8361   8.206   0.235   5.069  0.2167  0.0457 -0.0607
 8362W        W 8362   6.180   3.362   2.715 -0.6025 -0.3645 -0.1098
 8363W        W 8363   8.434   7.404  10.001  0.1792  0.3746 -0.0800
 8364W        W 8364   6.306   8.430   9.340 -0.1481 -0.0896 -0.0538
 8365W        W 8365   8.524   0.204   2.960 -0.1547  0.0362 -0.1443
 8366W        W 8366   5.179   3.825   0.652 -0.1243 -0.2740 -0.0056
 8367W        W 8367   2.421   6.951   1.670  0.1685 -0.2290  0.0751
 8368W        W 8368   2.844   3.356   3.825  0.0083 -0.0310 -0.0624
 8369W        W 8369  10.078   6.095   9.237 -0.3352 -0.1510 -0.3056
 8370W        W 8370   7.459   9.181   1.099 -0.0173 -0.0723 -0.2850
 8371W        W 8371   6.229   6.221   4.373 -0.0069  0.2211  0.1379
 8372W        W 8372  10.092   9.681   1.378  0.1643 -0.1366 -0.2490
 8373W        W 8373   1.698   0.448   6.482 -0.4228  0.1080 -0.0187
 8374W        W 8374   5.352   8.519   7.709  0.2727 -0.1614 -0.2988
 8375W        W 8375   4.739   1.758   4.723  0.0208  0.1286  0.0606
 8376W        W 8376   9.318   0.645   9.099 -0.4175  0.2222  0.1082
 8377W        W 8377   1.011   5.888   8.011 -0.0391  0.0847 -0.3075
 8378W        W 8378   8.214   7.197   5.059 -0.2947 -0.2831  0.1907
 8379W        W 8379   9.938   1.416   2.014  0.2240  0.1612 -0.1466
 8380W        W 8380   8.647   0.887   9.713  0.2275 -0.0284 -0.2551
 8381W        W 8381   3.381  10.033   9.461  0.2867 -0.4008  0.2821
 8382W        W 8382   1.546   1.847   8.626  0.0138  0.1225 -0.0978
 8383W        W 8383   3.744   6.871   6.321 -0.0677  0.1839 -0.1241
 8384W        W 8384   0.314   8.499   0.485 -0.4014  0.0018 -0.1109
 8385W        W 8385  10.210   0.576   7.802 -0.0493  0.4370 -0.2737
 8386W        W 8386   7.709   1.072   7.205 -0.3608  0.0342 -0.0877
 8387W        W 8387   0.655   0.298   3.892 -0.0177 -0.0417  0.0532
 8388W        W 8388   4.163   3.058   3.190 -0.1672  0.2050  0.0922
 8389W        W 8389   7.758   1.872   7.816 -0.2351 -0.0495 -0.0179
 8390W        W 8390   9.749  10.118   1.541  0.2454 -0.0632 -0.2129
 8391W        W 8391   4.901   7.997   6.094  0.1653  0.0655  0.1277
 8392W        W 8392   6.722   7.754   0.229  0.0896  0.0461  0.1535
 8393W        W 8393   1.472   5.726   3.104  0.2246 -0.0136  0.0662
 8394W        W 8394   2.898   2.695  10.110 -0.1143 -0.5698 -0.0694
 8395W        W 8395   2.430   3.526   0.269  0.0922 -0.0274 -0.2755
 8396W        W 8396   4.914   7.309   7.788  0.0860  0.1538  0.0990
 8397W        W 8397   6.100   3.144  10.116 -0.4437  0.2112 -0.0597
 8398W        W 8398   2.495   3.619   0.710  0.2879  0.0286  0.1394
 8399W        W 8399   0.882   2.909   7.955 -0.1440  0.1345  0.2088
 8400W        W 8400   0.621   9.624  10.197  0.0107  0.0945 -0.0882
 8401W        W 8401   0.890   2.654   3.313  0.1317 -0.0169 -0.0236
 8402W        W 8402   1.442   8.254   6.324  0.0152 -0.1159  0.0846
 8403W        W 8403   4.638   3.406   9.878  0.0817 -0.4236  0.1542
 8404W        W 8404   4.707   1.544   3.151 -0.0418  0.0601 -0.2007
 8405W        W 8405   6.762   4.261   2.554  0.2360  0.0653  0.1579
 8406W        W 8406   9.980   1.584   7.309 -0.0873  0.1771  0.0061
 8407W        W 8407   2.949   7.669   8.692 -0.0937 -0.2755  0.1155
 8408W        W 8408   6.191   1.731   0.486  0.2494  0.0498 -0.1612
 8409W        W 8409  10.273   9.792   1.924 -0.1633  0.1108 -0.1805
 8410W        W 8410   1.987   7.726   6.526  0.0172 -0.0848 -0.0206
 8411W        W 8411   1.335   3.754   1.531  0.1375 -0.1098  0.0214
 8412W        W 8412   1.084   2.408   6.381  0.1119 -0.0703  0.2811
 8413W        W 8413   6.962   9.438   8.639  0.0319  0.0208 -0.0017
 8414W        W 8414   5.803  10.220   8.960 -0.0512 -0.1258 -0.0995
 8415W        W 8415   6.657   9.965   4.058 -0.0493 -0.0738  0.3851
 8416W        W 8416  10.048   8.350   2.264  0.2566 -0.0382  0.0210
 8417W        W 8417   6.111   9.030   5.486  0.1452  0.2331  0.0712
 8418W        W 8418   8.545   5.148   1.084  0.2215 -0.0457 -0.0388
 8419W        W 8419   1.064   5.581   1.240  0.2211 -0.0388 -0.0987
 8420W        W 8420   6.815   3.810   9.138  0.1335  0.0083  0.0949
 8421W        W 8421   0.781   9.720   2.083  0.0866  0.3140 -0.0336
 8422W        W 8422   0.060   7.789   3.790  0.0344 -0.1645  0.0658
 8423W        W 8423   2.244   9.626   0.299  0.0114 -0.0725 -0.1034
 8424W        W 8424   9.719   8.390   5.833 -0.3236  0.0967 -0.0266
 8425W        W 8425   8.587   2.111   2.668  0.1985  0.1673 -0.0350
 8426W        W 8426   7.075   9.619   3.660 -0.1163 -0.2429  0.1413
 8427W        W 8427   0.515   7.810   3.977 -0.0404  0.2345 -0.0895
 8428W        W 8428   0.075  10.302   2.647  0.1603 -0.0639 -0.3083
 8429W        W 8429   3.606  10.299   2.746  0.2719 -0.1951  0.2851
 8430W        W 8430   5.592   9.498   3.880  0.1250  0.3308  0.0174
 8431W        W 8431   5.473   2.930   1.988  0.1997  0.1630 -0.0716
 8432W        W 8432   3.813   0.410   3.162  0.3112 -0.0497  0.0369
 8433W        W 8433   3.285   2.283   2.944 -0.2320  0.2885  0.0701
 8434W        W 8434   2.954   1.615   1.712 -0.4133  0.1715 -0.0176
 8435W        W 8435   5.077   0.062   8.185  0.1284 -0.2771  0.2235
 8436W        W 8436   9.602   3.307   0.072 -0.2834  0.0826 -0.1041
 8437W        W 8437   7.628   6.418   2.019 -0.2117 -0.1039 -0.3451
 8438W        W 8438   9.719   1.822   1.768  0.2470  0.1163  0.2587
 8439W        W 8439   1.791   1.003   9.029 -0.0307 -0.1554  0.0920
 8440W        W 8440   5.112   3.364   2.769 -0.1719 -0.4106  0.1481
 8441W        W 8441   7.285   7.742   1.771 -0.2123 -0.2918 -0.0267
 8442W        W 8442   9.688   6.479   9.884 -0.0844 -0.2020  0.0453
 8443W        W 8443   6.182   5.126   7.312  0.1665 -0.2881  0.0873
 8444W        W 8444   9.059   1.765   1.479  0.0316 -0.1900  0.4215
 8445W        W 8445   1.383   8.252   1.318  0.1917 -0.2962  0.1425
 8446W        W 8446   2.874   9.794   3.195  0.0805 -0.2009 -0.1176
 8447W        W 8447   1.317   9.472   3.255  0.4873 -0.1114 -0.2184
 8448W        W 8448   1.148   9.382   1.616  0.2588 -0.1618  0.1350
 8449W        W 8449   3.000   1.653   0.249 -0.0020 -0.0908 -0.0402
 8450W        W 8450   9.487   1.517   6.708 -0.1154 -0.1655  0.1867
 8451W        W 8451   6.842   6.475   1.900 -0.2556 -0.1400  0.2065
 8452W        W 8452   4.425   8.138   5.663 -0.0729 -0.0560 -0.0858
 8453W        W 8453   7.510   8.809   6.154  0.4056 -0.0785  0.1225
 8454W        W 8454   3.904   6.340   4.643  0.2834 -0.0153  0.0216
 8455W        W 8455   5.996   0.604   8.457 -0.5097 -0.0760  0.0067
 8456W        W 8456   8.968   6.064   4.664  0.1073  0.0694  0.1993
 8457W        W 8457   9.560   6.170   1.404  0.1750  0.0929  0.1371
 8458W        W 8458   8.142   2.162   7.554  0.1027 -0.2062 -0.2910
 8459W        W 8459   9.832   8.943   7.826  0.1368 -0.0963  0.0749
 8460W        W 8460   6.847   8.881   9.466 -0.2297  0.1621 -0.3380
 8461W        W 8461   8.285  10.334   0.349 -0.0772  0.1377  0.0275
 8462W        W 8462   7.638   3.815   8.167 -0.3159 -0.1622  0.0289
 8463W        W 8463   7.375   5.196   8.061  0.0183 -0.1017  0.0856
 8464W        W 8464   7.415   7.383   8.486 -0.2461  0.2138 -0.0054
 8465W        W 8465   4.432   2.237   3.612  0.1493 -0.1427  0.1797
 8466W        W 8466   2.969   4.588   5.625  0.3795  0.3529 -0.1040
 8467W        W 8467   6.221   3.570   9.867 -0.1551 -0.1828  0.1320
 8468W        W 8468   8.803   5.258   4.269  0.1941 -0.2624 -0.1382
 8469W        W 8469   0.730   8.917   4.950 -0.1586  0.3579  0.2650
 8470W        W 8470   4.894   7.218   8.740 -0.1931 -0.1145  0.2604
 8471W        W 8471   5.321   7.765   9.990  0.2761  0.0572 -0.0982
 8472W        W 8472   5.703   8.705   5.506 -0.2458 -0.0348  0.0358
 8473W        W 8473   5.323   7.504   6.083 -0.0543 -0.3182 -0.0314
 8474W        W 8474   2.528   3.637   1.933 -0.0892  0.1657 -0.0926
 8475W        W 8475   3.133   2.563   2.150  0.1376 -0.1889  0.1632
 8476W        W 8476   2.122   1.762   7.206 -0.0384  0.3152  0.0354
 8477W        W 8477   1.810   9.600   1.827  0.2093 -0.1651  0.1103
 8478W        W 8478   0.346   8.586   4.286 -0.0326  0.3044 -0.1369
 8479W        W 8479   2.121   4.842   5.461  0.0241  0.1876  0.0561
 8480W        W 8480   3.525   3.183   4.552  0.2416  0.1530  0.1436
 8481W        W 8481   6.372   9.751  10.098 -0.2830 -0.0999 -0.2557
 8482W        W 8482   2.030   5.116   6.029  0.1879 -0.1503  0.0813
 8483W        W 8483   4.508   5.347   3.517  0.0756  0.1001 -0.0672
 8484W        W 8484   7.546   5.478   0.667  0.0124 -0.0749  0.0574
 8485W        W 8485   0.216   1.167   4.771  0.0081 -0.0458  0.1071
 8486W        W 8486   2.016   8.455   1.765 -0.0789  0.0592  0.1002
 8487W        W 8487   9.189   0.688   8.603  0.0559  0.2162 -0.1299
 8488W        W 8488   8.056   7.487   2.307 -0.0051  0.0249 -0.0554
 8489W        W 8489   2.085   6.231   0.968 -0.0164  0.2469 -0.1629
 8490W        W 8490   8.671   2.144   5.134  0.1407  0.2375  0.0807
 8491W        W 8491   6.988   4.347   7.449  0.0390 -0.3711  0.0864
 8492W        W 8492   9.702   2.496   2.795  0.1108 -0.0511  0.4098
 8493W        W 8493   5.958   5.832   2.888 -0.0765 -0.2123 -0.0220
 8494W        W 8494   3.272   5.056   3.034 -0.1293  0.1204 -0.1912
 8495W        W 8495   9.407   1.502   2.765  0.3722 -0.2114  0.2322
 8496W        W 8496   8.177   1.617   0.957 -0.0228 -0.1921 -0.2421
 8497W        W 8497   2.302   0.984   5.006  0.2406 -0.0263  0.2857
 8498W        W 8498   7.346   3.271   6.813  0.2507 -0.0345 -0.1243
 8499W        W 8499   2.451   4.432   5.617 -0.2502  0.1523  0.3457
 8500W        W 8500   4.767   4.870   5.429  0.0479  0.0205 -0.0880
 8501W        W 8501   8.065   5.063   5.988 -0.0485 -0.1558 -0.3787
 8502W        W 8502   1.265   7.466   7.211 -0.0141  0.2561  0.1703
 8503W        W 8503   3.107   6.740   6.244  0.2798 -0.0229  0.1761
 8504W        W 8504   7.699   2.359   8.116  0.2300  0.1153 -0.4163
 8505W        W 8505   3.983   2.082   5.354  0.3451  0.0382 -0.1486
 8506W        W 8506   6.888   9.410   6.916  0.1819  0.0649 -0.1600
 8507W        W 8507   8.365   4.662   1.748  0.0488  0.2971 -0.1929
 8508W        W 8508   3.854   2.861   6.652 -0.1367 -0.3442 -0.1428
 8509W        W 8509   6.678   4.440   7.062  0.0699 -0.1456 -0.2500
 8510W        W 8510   1.533   5.569   1.637 -0.1627 -0.1179  0.2979
 8511W        W 8511   9.888   3.513   7.246  0.2238 -0.1024  0.4016
 8512W        W 8512   2.713   7.245   2.543  0.2260 -0.0112  0.0562
 8513W        W 8513   9.126   2.546   0.806 -0.0342 -0.2208  0.1435
 8514W        W 8514   7.799   3.865   5.684 -0.0343  0.2739 -0.1695
 8515W        W 8515   5.222   7.978   4.554  0.0932 -0.0636 -0.0512
 8516W        W 8516   2.897   1.035   7.031 -0.1646  0.1277  0.2272
 8517W        W 8517   9.837   1.299   1.525  0.0677 -0.0757  0.2923
 8518W        W 8518   2.198   8.323   8.652 -0.0983  0.3003 -0.0894
 8519W        W 8519   7.998   3.908   8.647 -0.0412 -0.1980  0.1380
 8520W        W 8520   6.249   5.756   0.795  0.0379  0.0370  0.1107
 8521W        W 8521   5.674   2.332   7.129 -0.2656 -0.2133  0.3089
 8522W        W 8522   1.534   4.948   0.933  0.2792 -0.2230 -0.1790
 8523W        W 8523   2.646   9.144   1.925 -0.1725 -0.0657 -0.0043
 8524W        W 8524   6.265   2.638   6.480 -0.0657 -0.0555  0.1532
 8525W        W 8525   4.004   8.761   4.712 -0.0572  0.0320 -0.0326
 8526W        W 8526   8.350   8.013   4.734 -0.1384  0.0833 -0.0359
 8527W        W 8527   5.604   2.007   2.782 -0.0065 -0.2183  0.2815
 8528W        W 8528   0.878   8.612   8.713 -0.0175  0.4542 -0.1027
 8529W        W 8529   5.730   7.612   6.367  0.1029 -0.2797  0.0975
 8530W        W 8530   6.485   6.920   0.126  0.2331 -0.0163 -0.1240
 8531W        W 8531   1.923   7.256   1.207 -0.0432  0.2254  0.0545
 8532W        W 8532   8.360   6.787   4.757  0.4238 -0.3216 -0.0367
 8533W        W 8533   9.066   0.922   2.520  0.3067  0.2688  0.1612
 8534W        W 8534   1.097   7.645  10.255 -0.0041  0.0667  0.0999
 8535W        W 8535   8.133   0.175   9.693  0.1775 -0.0001 -0.0606
 8536W        W 8536   5.754   1.391   5.306 -0.0329 -0.0079  0.1694
 8537W        W 8537   5.830   7.944   8.106  0.1977  0.1652  0.1731
 8538W        W 8538  10.058   1.253   8.428  0.0599  0.1113 -0.2592
 8539W        W 8539   4.298   7.554   0.591 -0.0385  0.2014 -0.1241
 8540W        W 8540  10.026   1.477   3.561 -0.1825 -0.3228  0.1739
 8541W        W 8541   2.852   1.079   4.568 -0.0714 -0.1007  0.1792
 8542W        W 8542   8.752   9.814   4.997 -0.2105 -0.1411 -0.2624
 8543W        W 8543   7.493  10.142   6.937  0.2598  0.1079 -0.0946
 8544W        W 8544   3.474   1.268   1.182 -0.0335  0.1503 -0.2027
 8545W        W 8545   2.125   1.529   0.879  0.0037  0.0974 -0.0943
 8546W        W 8546   3.219   9.820   6.690 -0.3236 -0.3531  0.0978
 8547W        W 8547   5.676   3.840   7.185 -0.0280  0.0814 -0.0408
 8548W        W 8548   7.257   2.069   6.117 -0.2488 -0.0452 -0.0576
 8549W        W 8549   1.098   6.445   1.056  0.0340 -0.2562 -0.1522
 8550W        W 8550   6.330   8.355   1.117 -0.1061  0.1923 -0.1131
 8551W        W 8551   5.235   2.575   1.618  0.0156  0.1399 -0.0061
 8552W        W 8552   5.561   4.596   4.054  0.1048 -0.3339  0.3062
 8553W        W 8553   2.765   5.873   6.423  0.0115  0.1550  0.0028
 8554W        W 8554   6.026   9.819   9.794  0.2243  0.3520 -0.0201
 8555W        W 8555   2.273   6.930   0.430 -0.1158 -0.1417 -0.1251
 8556W        W 8556   7.636   1.158   9.441 -0.1570  0.0271 -0.0933
 8557W        W 8557   8.253   8.406   8.518 -0.0426 -0.0360  0.4789
 8558W        W 8558   2.542   6.109   1.036  0.1783 -0.2210 -0.0049
 8559W        W 8559   1.367   9.826   2.715  0.2454 -0.0273 -0.0457
 8560W        W 8560   1.973   4.941   9.690  0.2353  0.0964  0.0825
 8561W        W 8561   1.156   9.230   8.298  0.1610  0.2647  0.2432
 8562W        W 8562   7.334   3.513   3.471  0.3287 -0.0088  0.1934
 8563W        W 8563   0.874   1.197   4.882  0.2594  0.1204 -0.0064
 8564W        W 8564   1.976   3.569   1.852  0.0356  0.2162 -0.0127
 8565W        W 8565   0.884   4.566   2.822  0.1059  0.0502  0.0455
 8566W        W 8566   8.952   1.859   0.352  0.0836 -0.1325  0.3564
 8567W        W 8567   6.040   5.049   8.283  0.0164 -0.0815 -0.0367
 8568W        W 8568  10.070   1.786   1.308 -0.2701 -0.2036  0.1165
 8569W        W 8569  10.239   4.291   6.681 -0.2453 -0.2942  0.0997
 8570W        W 8570   8.856   7.605   0.648 -0.0439 -0.0377 -0.1557
 8571W        W 8571   0.607   2.476   2.972  0.1431 -0.0786 -0.1304
 8572W        W 8572   7.886   7.434   5.519 -0.2889  0.3246 -0.0702
 8573W        W 8573   3.653   9.930   3.710  0.1220  0.2047  0.1073
 8574W        W 8574   2.766   8.474   6.564 -0.2485  0.0245  0.2454
 8575W        W 8575   9.722   4.321   0.559 -0.0633  0.1242 -0.1216
 8576W        W 8576   3.521   4.338   8.997  0.3371 -0.1422  0.0826
 8577W        W 8577   3.731   7.208   5.061  0.1913  0.2122 -0.1298
 8578W        W 8578   2.789   6.935   1.152 -0.0690  0.0574 -0.1829
 8579W        W 8579   7.959   8.595   8.141  0.0603 -0.1069 -0.0731
 8580W        W 8580   3.999   8.332   5.828  0.0406 -0.1643 -0.0127
 8581W        W 8581   6.354   3.247   6.318 -0.1528 -0.1443 -0.4754
 8582W        W 8582   2.344   7.088   0.946 -0.0583 -0.2452  0.0344
 8583W        W 8583   9.268   5.328   7.303 -0.0723 -0.1359  0.1695
 8584W        W 8584   4.749   4.452   3.310 -0.2602 -0.0537  0.0597
 8585W        W 8585   4.297   0.732   3.258 -0.1559  0.1225  0.0313
 8586W        W 8586   8.625   0.338   7.196 -0.0112  0.0853  0.0321
 8587W        W 8587   7.868   5.155   7.967 -0.3720 -0.2697  0.1513
 8588W        W 8588   3.621   7.749   5.285  0.2867 -0.2993  0.1650
 8589W        W 8589   2.844   3.312   9.990  0.3074  0.1479  0.0971
 8590W        W 8590   1.213   0.716   0.246 -0.1121 -0.0434  0.0776
 8591W        W 8591   6.865   8.970   6.654  0.2948 -0.1192 -0.2147
 8592W        W 8592   0.249   5.107   7.833 -0.0693 -0.0688 -0.1261
 8593W        W 8593   5.709   6.111   8.879 -0.2051  0.0617 -0.2041
 8594W        W 8594   3.979   4.117   0.429 -0.1079 -0.2159 -0.1034
 8595W        W 8595   9.473   1.722   7.182  0.0154 -0.0222  0.1553
 8596W        W 8596   9.878   2.487   3.885 -0.3515  0.0504 -0.3265
 8597W        W 8597   2.290   0.015   2.014 -0.1146 -0.1051  0.2666
 8598W        W 8598   2.932   4.151   6.952 -0.0821 -0.4719 -0.2656
 8599W        W 8599   4.189   4.924   1.748 -0.3226  0.0251 -0.0910
 8600W        W 8600   8.975   8.565   0.724  0.2646  0.1548  0.0393
 8601W        W 8601   6.189   1.918   2.719  0.1119 -0.2133 -0.0538
 8602W        W 8602   3.159   9.944   0.611  0.3695 -0.1021 -0.1667
 8603W        W 8603   4.110   5.162   0.746  0.2058  0.1558 -0.0259
 8604W        W 8604   5.771   5.492   6.438 -0.1960 -0.2011 -0.0216
 8605W        W 8605   7.749   3.951   0.311  0.3490 -0.0514 -0.1487
 8606W        W 8606   0.954   8.210   6.351  0.1657  0.2889  0.0307
 8607W        W 8607   0.939   8.680   7.100 -0.2283  0.0501  0.0318
 8608W        W 8608   5.015   4.942   6.890 -0.1273 -0.0315  0.0899
 8609W        W 8609  10.069   7.256   7.924 -0.0541  0.3302  0.0759
 8610W        W 8610   8.667  10.145   0.111 -0.0042 -0.1186 -0.4003
 8611W        W 8611   3.267   5.500   6.689 -0.0873  0.0315 -0.1020
 8612W        W 8612   4.749   3.764   4.472 -0.0235  0.0841 -0.1580
 8613W        W 8613   6.874   6.351   5.926 -0.2474 -0.0242  0.0903
 8614W        W 8614   9.750   0.746   7.735 -0.2369 -0.0638 -0.0207
 8615W        W 8615   8.026   0.452   7.949 -0.0140  0.0861 -0.1003
 8616W        W 8616   4.379   7.893   8.738  0.0535  0.2646 -0.0750
 8617W        W 8617   4.605   6.226   5.925 -0.0381 -0.2391  0.1954
 8618W        W 8618   6.323   4.871   6.428 -0.2578  0.2428  0.2200
 8619W        W 8619   4.485   5.645   3.119  0.2440 -0.0649 -0.1389
 8620W        W 8620   0.241   0.675   6.214 -0.0518 -0.1254  0.2265
 8621W        W 8621   2.070   6.887   6.053 -0.2776  0.0295 -0.0240
 8622W        W 8622   5.222   4.415   1.481 -0.3643 -0.0808  0.0193
 8623W        W 8623   7.116   6.483   8.220 -0.1969 -0.0508  0.1546
 8624W        W 8624   2.737   7.929   6.578 -0.1380 -0.1426 -0.0791
 8625W        W 8625   9.640  10.261   8.234 -0.0845  0.0224  0.1080
 8626W        W 8626   8.736   7.726   5.543  0.0265  0.0080 -0.1890
 8627W        W 8627  10.162   7.523   7.485  0.0725 -0.1070  0.0194
 8628W        W 8628   9.735   9.957   0.955 -0.2031 -0.1122  0.2370
 8629W        W 8629   6.783   8.948   7.804  0.3663  0.2304  0.0139
 8630W        W 8630   4.592   0.966   2.453 -0.0512 -0.2887  0.1925
 8631W        W 8631   9.615   7.489   4.458 -0.0808 -0.0350  0.0265
 8632W        W 8632   9.416   3.713   7.189  0.0441 -0.2651 -0.3156
 8633W        W 8633   1.618   2.841   9.121  0.2434  0.0848  0.0241
 8634W        W 8634   4.583   0.780   1.257 -0.1708  0.0883  0.1440
 8635W        W 8635   6.399   3.778   2.419 -0.1905 -0.0616  0.2932
 8636W        W 8636   8.778   4.277   1.649 -0.1014  0.1622 -0.2055
 8637W        W 8637   2.980   2.116   0.343  0.1537 -0.1533  0.1614
 8638W        W 8638   1.345   7.216   1.801 -0.1763  0.4425 -0.0495
 8639W        W 8639   9.473  10.290   6.678 -0.0817  0.0674 -0.1030
 8640W        W 8640   4.745   2.805   4.371  0.2181 -0.0633 -0.0665
 8641W        W 8641   9.747   4.068   8.176  0.0936  0.0268  0.0029
 8642W        W 8642   2.216   8.189   6.639 -0.0131  0.2832  0.2188
 8643W        W 8643   0.094   7.961   5.697  0.0770  0.2048 -0.0945
 8644W        W 8644   7.602   9.664   8.637  0.1119  0.0886  0.2127
 8645W        W 8645   1.084   6.693   7.665  0.2299 -0.1871  0.1699
 8646W        W 8646   5.590   8.539   1.420 -0.3084 -0.2753 -0.2315
 8647W        W 8647   1.153   7.887   5.933 -0.1255  0.0052  0.5250
 8648W        W 8648   2.522   7.799   0.640  0.2696 -0.1077 -0.1487
 8649W        W 8649   0.676   5.966   2.310  0.0577 -0.0270  0.3319
 8650W        W 8650   7.633   8.958   5.058  0.3152  0.0320 -0.0812
 8651W        W 8651   5.843   6.043   1.361  0.0599 -0.1089  0.0122
 8652W        W 8652   5.282   3.281   0.986 -0.2219  0.1677 -0.2930
 8653W        W 8653   5.620   5.989   6.675  0.3171 -0.1933  0.7455
 8654W        W 8654   1.926   6.490   6.465  0.0988 -0.1692 -0.0781
 8655W        W 8655   4.651   8.169   7.900  0.2591 -0.3881 -0.0140
 8656W        W 8656   6.478   8.248   5.090 -0.0266  0.2001  0.0023
 8657W        W 8657   3.307   6.529   1.693  0.1387 -0.1345 -0.0140
 8658W        W 8658   0.298   4.316   1.957 -0.3663 -0.1802 -0.0162
 8659W        W 8659   1.308   7.333   6.042 -0.1119  0.3286 -0.0086
 8660W        W 8660   8.618   4.440   4.680  0.0264 -0.2927 -0.0523
 8661W        W 8661   9.426   6.109   1.916 -0.0303 -0.0934 -0.2859
 8662W        W 8662   8.049   3.482   9.434  0.1118 -0.0865 -0.0494
 8663W        W 8663   7.968   9.249   3.903  0.2518 -0.2896  0.1382
 8664W        W 8664   3.969   9.293   8.889  0.0256 -0.0697  0.1250
 8665W        W 8665   5.821  10.102   7.983  0.0509  0.3583  0.3127
 8666W        W 8666   4.849   6.121   6.950 -0.0137  0.1959  0.0608
 8667W        W 8667   0.675   1.909   8.522  0.0497  0.2880 -0.0065
 8668W        W 8668   2.714   0.052   0.550 -0.1954 -0.0817  0.0828
 8669W        W 8669  10.010   2.577   4.620 -0.0290  0.2067  0.1400
 8670W        W 8670   5.807   7.604   1.021  0.0743 -0.2226  0.3233
 8671W        W 8671   8.269   0.803   2.162  0.0240  0.1638 -0.2550
 8672W        W 8672   5.353   1.205   4.964  0.0478 -0.0611 -0.0678
 8673W        W 8673   0.567   9.008  10.182  0.4084  0.1173 -0.0429
 8674W        W 8674   3.313   3.003  10.222 -0.0136 -0.1399  0.0345
 8675W        W 8675   3.440   6.676   3.626  0.3663  0.1592  0.2944
 8676W        W 8676   0.587   1.389   3.980 -0.1748  0.3447  0.0248
 8677W        W 8677   9.038   3.326   1.992  0.1482  0.0949  0.0083
 8678W        W 8678   3.476   1.578   1.635 -0.0139  0.1546  0.1755
 8679W        W 8679  10.004   7.305   5.738  0.1502  0.2093  0.1604
 8680W        W 8680   2.895   7.338  10.314 -0.0503 -0.1248  0.1737
 8681W        W 8681   6.160   2.926   2.480  0.2283  0.0135  0.0893
 8682W        W 8682   8.176   4.029   2.344  0.1700  0.1159  0.3555
 8683W        W 8683   3.059   4.683   0.976  0.3484  0.2137  0.1536
 8684W        W 8684   0.443   2.000   8.039 -0.3554 -0.0273  0.1393
 8685W        W 8685   2.699   9.789   4.709  0.0456  0.0055 -0.1608
 8686W        W 8686   7.141   3.017   2.247 -0.2380  0.0830 -0.2484
 8687W        W 8687   5.609  10.264   3.283  0.0475  0.0000  0.2251
 8688W        W 8688   4.173   6.105   5.359 -0.0584 -0.1115  0.4555
 8689W        W 8689   6.099   1.051   1.291 -0.1468 -0.0491  0.1158
 8690W        W 8690   8.617   9.856   4.429 -0.3730 -0.2257  0.1483
 8691W        W 8691   3.106   1.606   1.205  0.0495 -0.0212 -0.0742
 8692W        W 8692   2.621   8.680   9.665  0.0037  0.1630  0.2296
 8693W        W 8693   1.443   3.938   9.825 -0.1563 -0.0770 -0.0511
 8694W        W 8694   8.276   0.839   0.427 -0.0576 -0.0678  0.3423
 8695W        W 8695   5.245   9.528   2.048 -0.0642  0.1828 -0.3454
 8696W        W 8696   0.246   3.849   3.163 -0.0957  0.3769 -0.0282
 8697W        W 8697   4.899   2.774  10.185  0.3324  0.1970  0.0793
 8698W        W 8698   3.160   8.127   9.432 -0.2112  0.0007 -0.1879
 8699W        W 8699   6.122   8.795   1.282  0.2325 -0.3055  0.2584
 8700W        W 8700   1.665   9.498   6.751  0.0503  0.0333  0.1601
 8701W        W 8701   1.151   9.476   0.715 -0.0809 -0.0342 -0.4579
 8702W        W 8702   2.828   1.558   9.113 -0.0573 -0.0832  0.0828
 8703W        W 8703   1.129   5.546   4.890  0.2767 -0.0239  0.1383
 8704W        W 8704   5.801   1.304   0.617  0.1355 -0.0485 -0.1554
 8705W        W 8705   8.422   0.775   4.805  0.1272 -0.2101 -0.0863
 8706W        W 8706   8.955   8.794   5.921  0.0310  0.1796 -0.0505
 8707W        W 8707   1.659   6.618   9.371 -0.1033 -0.0638  0.1281
 8708W        W 8708   5.271   6.176   9.182  0.0028  0.1332  0.0872
 8709W        W 8709  10.179   9.666   0.159  0.0874 -0.1143  0.2538
 8710W        W 8710  10.245   2.849   8.178 -0.2696  0.1212  0.1594
 8711W        W 8711   1.270   6.435   5.222  0.0160 -0.0979  0.1660
 8712W        W 8712   5.101   9.156   2.520  0.2201 -0.0935  0.0743
 8713W        W 8713   9.265   7.979   4.287  0.1758 -0.1089  0.0195
 8714W        W 8714   4.291   7.379   6.631  0.0898 -0.3159 -0.0849
 8715W        W 8715   1.723   4.257   8.217 -0.0833  0.3471 -0.1270
 8716W        W 8716   0.378   4.991   5.946 -0.1680 -0.0236  0.1613
 8717W        W 8717   5.708   6.496   4.293 -0.0166  0.0952  0.2089
 8718W        W 8718   9.685   7.687   6.278 -0.1944 -0.0510 -0.0917
 8719W        W 8719   3.267   1.703   8.022 -0.2954  0.0789  0.1951
 8720W        W 8720   6.871  10.323   7.480 -0.0093 -0.1025  0.0286
 8721W        W 8721   8.532   9.399   6.918 -0.0896  0.2747 -0.2101
 8722W        W 8722   9.879   5.186   4.139  0.1496 -0.0328  0.0072
 8723W        W 8723   2.576   6.577   7.060  0.2762  0.3231  0.2274
 8724W        W 8724   1.480   3.325   9.027 -0.2774 -0.2657 -0.2009
 8725W        W 8725   6.733   3.721   6.391 -0.0784 -0.0429 -0.1960
 8726W        W 8726   5.261   4.665   7.204  0.1787 -0.1633  0.0431
 8727W        W 8727   1.647   0.802   0.399  0.0961 -0.2982 -0.0623
 8728W        W 8728   6.035   6.063   6.280 -0.1683  0.1509  0.2434
 8729W        W 8729   9.287   9.086   7.359  0.0461 -0.0189 -0.0421
 8730W        W 8730   1.906   9.332   1.375  0.4414  0.1054 -0.1871
 8731W        W 8731   6.313   1.341   7.439 -0.3342  0.3119 -0.1086
 8732W        W 8732   1.335   3.880   2.243  0.0330 -0.0315  0.2621
 8733W        W 8733   5.475   1.922   3.514 -0.0165 -0.0480 -0.0947
 8734W        W 8734   9.160   0.124   3.098 -0.0872 -0.2272 -0.4125
 8735W        W 8735   2.180   7.524   8.085 -0.1465  0.0856  0.0616
 8736W        W 8736   5.755   2.927   1.616 -0.0682 -0.0309  0.1067
 8737W        W 8737   1.452   9.637   4.054  0.0523  0.5706 -0.0092
 8738W        W 8738   0.775   6.573   4.958  0.1325 -0.1468 -0.2754
 8739W        W 8739   6.795   9.283   4.724 -0.1179 -0.1302  0.1289
 8740W        W 8740   4.491   6.324   1.879  0.1552  0.1579 -0.1658
 8741W        W 8741   0.344   2.314   8.847 -0.1161 -0.0164 -0.3608
 8742W        W 8742   0.624   4.221   4.150 -0.2165 -0.3727  0.0559
 8743W        W 8743   8.968   0.512   5.395  0.2535  0.0606  0.0430
 8744W        W 8744   4.015   4.393   4.163 -0.0512 -0.2195  0.0869
 8745W        W 8745   5.881   6.534   1.043 -0.1908  0.3655 -0.0366
 8746W        W 8746   9.493   5.567   5.424 -0.2356  0.2308 -0.0956
 8747W        W 8747   4.208   4.841   3.984 -0.3112  0.2829  0.1164
 8748W        W 8748   9.940   1.078   9.122 -0.0347 -0.2000  0.0404
 8749W        W 8749   4.796   7.253   4.152 -0.0610  0.2062  0.1002
 8750W        W 8750   9.331   8.287   0.935 -0.0997  0.0354 -0.2186
 8751W        W 8751   0.520   7.943   7.839 -0.2332 -0.0251  0.0949
 8752W        W 8752   2.360   5.281   0.621  0.0388 -0.1308 -0.2301
 8753W        W 8753   1.136   0.823   3.368  0.2920 -0.1500 -0.1352
 8754W        W 8754   4.501   1.687   9.930 -0.3162 -0.0420  0.0156
 8755W        W 8755   8.840   8.777   5.439  0.5311  0.4107 -0.0327
 8756W        W 8756   2.946   4.311   5.218  0.2185  0.1125  0.2489
 8757W        W 8757   7.817   2.201   1.469  0.0375 -0.1309 -0.1472
 8758W        W 8758   1.585   2.355   1.212 -0.0157 -0.0436  0.0870
 8759W        W 8759   7.530   6.456   5.018 -0.1861  0.0284 -0.0487
 8760W        W 8760   4.396   9.150   1.742 -0.1967  0.1728  0.2672
 8761W        W 8761   1.192   1.640   8.241 -0.2161  0.2375  0.0196
 8762W        W 8762   6.140   1.799   1.021 -0.5183  0.0484 -0.1148
 8763W        W 8763   9.203   4.728   8.315 -0.0528 -0.5110  0.0950
 8764W        W 8764   6.068   9.142   7.366  0.1016 -0.2245  0.1222
 8765W        W 8765   7.294   2.842   5.386  0.3020 -0.1082  0.3169
 8766W        W 8766   6.355   2.123   6.602 -0.0332  0.0346 -0.2420
 8767W        W 8767   5.039   9.002   4.765  0.1686  0.0664  0.4368
 8768W        W 8768   4.706   6.154   8.697 -0.0044  0.0343  0.2557
 8769W        W 8769   2.221   5.773   1.363  0.0345  0.4697  0.0638
 8770W        W 8770   1.660   6.173   6.781 -0.1757 -0.1409  0.0202
 8771W        W 8771   4.202  10.280   5.462  0.1489  0.1088  0.0265
 8772W        W 8772   3.693   5.154   1.526 -0.2111 -0.0484  0.1741
 8773W        W 8773   1.587   1.395   6.969  0.1020  0.2050  0.1474
 8774W        W 8774   3.205   4.579   7.114  0.2574  0.1684  0.1220
 8775W        W 8775   9.419   4.957   9.535  0.2728  0.2054  0.1089
 8776W        W 8776   9.856   1.560   0.892 -0.1444  0.3763  0.3304
 8777W        W 8777   9.192   6.988   1.669  0.0758  0.0092  0.1980
 8778W        W 8778   8.478   5.975   4.335  0.1604  0.0571 -0.1295
 8779W        W 8779   7.430   2.856   0.233 -0.0288 -0.0414  0.1010
 8780W        W 8780   6.243   6.406   1.467  0.0924 -0.1777  0.0982
 8781W        W 8781   5.444   1.607   0.332 -0.1358  0.1298 -0.0505
 8782W        W 8782   6.776   2.565   9.050  0.0713 -0.0009  0.3304
 8783W        W 8783   9.831   0.561   1.069  0.0970  0.0240  0.0843
 8784W        W 8784   9.947   1.096   7.397 -0.1761  0.0511 -0.0609
 8785W        W 8785   7.927   8.759   2.283 -0.1399 -0.3322  0.2899
 8786W        W 8786   5.907   7.117   3.328  0.0561  0.0788 -0.3017
 8787W        W 8787   6.479   9.393   4.075 -0.2651  0.0418 -0.1781
 8788W        W 8788   4.184   7.712   6.203  0.2097 -0.1812  0.1446
 8789W        W 8789   8.522   4.912   2.661 -0.1713 -0.1427 -0.2633
 8790W        W 8790   0.051   5.985   6.292 -0.1111  0.0907  0.0959
 8791W        W 8791   1.452   4.434   7.370 -0.0014  0.1216  0.1315
 8792W        W 8792   8.371   9.886   9.019  0.4338  0.2333  0.1086
 8793W        W 8793   8.563   1.493   7.119 -0.0238 -0.0968 -0.4250
 8794W        W 8794   7.692   7.631   9.421  0.2680 -0.0945 -0.0431
 8795W        W 8795   6.413   1.068   4.104 -0.1169  0.1333 -0.2313
 8796W        W 8796   0.995   2.778   7.466 -0.0148  0.4487  0.1404
 8797W        W 8797   2.395   6.437   1.936 -0.1218 -0.3667  0.1140
 8798W        W 8798   8.753   3.179   6.719 -0.1069  0.0012 -0.0515
 8799W        W 8799  10.082   7.406   0.784  0.0899  0.0599 -0.0075
 8800W        W 8800   5.939   6.295   1.840 -0.0457 -0.2557 -0.1007
 8801W        W 8801   9.677   4.205   8.690 -0.0334 -0.1384  0.3963
 8802W        W 8802   6.003   4.432   5.710  0.2038  0.0581 -0.1187
 8803W        W 8803   8.819   0.472   8.204 -0.0919 -0.0444  0.2057
 8804W        W 8804   2.178   2.688   9.407  0.1953  0.1127  0.1091
 8805W        W 8805   6.228   9.767   9.339 -0.0799  0.0815 -0.0063
 8806W        W 8806   5.744   7.644   9.311  0.0961 -0.0251  0.1100
 8807W        W 8807  10.080   6.879   4.835 -0.2548  0.1883 -0.1039
 8808W        W 8808   8.487   8.158   7.638 -0.3419 -0.0830  0.6637
 8809W        W 8809   1.213   2.585   9.163  0.0677 -0.2838  0.0784
 8810W        W 8810   2.603   1.011   5.876 -0.0336  0.0226 -0.2932
 8811W        W 8811   9.672   5.891   9.017  0.3660  0.2306 -0.1308
 8812W        W 8812   3.922   9.161   8.355  0.0155  0.0444 -0.2981
 8813W        W 8813   9.062   5.541   3.866 -0.0810 -0.0129  0.0471
 8814W        W 8814   5.034   7.829   1.721 -0.0236 -0.2493  0.1699
 8815W        W 8815   5.654   8.129   1.765 -0.2552  0.1190 -0.0703
 8816W        W 8816   8.466   9.300   0.587  0.2420  0.0648  0.1092
 8817W        W 8817   6.104  10.329   0.286 -0.0156 -0.0739  0.1575
 8818W        W 8818   8.394   1.605   4.793  0.2530  0.1130  0.1095
 8819W        W 8819   4.146   3.204   2.700 -0.0574 -0.1413  0.0571
 8820W        W 8820   1.913   4.788   6.357  0.0588  0.1056  0.2102
 8821W        W 8821   8.871   6.889   0.107 -0.2385 -0.1478 -0.1854
 8822W        W 8822  10.244   9.787   2.673  0.0454  0.1245 -0.0099
 8823W        W 8823   7.761   8.923   9.525 -0.4177 -0.1003  0.4360
 8824W        W 8824   1.718   9.661   2.442  0.0116  0.5145  0.1030
 8825W        W 8825   6.014   6.721   0.163 -0.1085 -0.0613 -0.0862
 8826W        W 8826   2.492   5.041   0.147 -0.0869 -0.0594 -0.1612
 8827W        W 8827   2.121   6.324   1.485  0.0760  0.0425 -0.0464
 8828W        W 8828   6.272   4.068  10.069 -0.0806 -0.2012  0.2323
 8829W        W 8829   4.740   8.112  10.146  0.5382 -0.0336  0.1973
 8830W        W 8830   8.701   2.569   8.981 -0.2872 -0.3759 -0.1377
 8831W        W 8831   5.809   7.614   1.969  0.0793 -0.1505  0.0473
 8832W        W 8832   9.298   0.976   2.029 -0.2160  0.0601  0.0885
 8833W        W 8833   2.646   0.287   2.877 -0.0102  0.1376 -0.0508
 8834W        W 8834   0.915   6.235   6.014  0.0999 -0.0279 -0.0874
 8835W        W 8835   8.456   8.195   9.384  0.3782  0.0068  0.0178
 8836W        W 8836   3.158   5.075   6.942 -0.0851  0.0417 -0.1695
 8837W        W 8837   8.548   8.660   6.185 -0.0910  0.0819  0.3420
 8838W        W 8838   0.752   1.860   7.318  0.2550  0.1676  0.0281
 8839W        W 8839   5.981   4.842   3.812  0.5535 -0.1364 -0.1509
 8840W        W 8840   1.456   8.841   3.834  0.1992  0.0975 -0.2213
 8841W        W 8841   4.242   3.569   0.803  0.0889 -0.1589  0.2741
 8842W        W 8842   7.293   9.644   1.163  0.2101  0.3864  0.0063
 8843W        W 8843   9.133   3.924   0.351 -0.1416  0.0478 -0.0875
 8844W        W 8844   0.313   9.020   4.593 -0.1551 -0.1842 -0.0315
 8845W        W 8845   7.030   1.680   4.529  0.0409  0.0990  0.2188
 8846W        W 8846   2.521   0.898   9.663  0.3348  0.3973  0.0433
 8847W        W 8847   5.229   4.617   7.747 -0.1663 -0.2521 -0.1857
 8848W        W 8848   8.124   9.094   4.997  0.1740 -0.0852  0.0415
 8849W        W 8849   4.874   6.591   9.230 -0.0966  0.0558 -0.0605
 8850W        W 8850   5.706   6.913   7.290  0.1282  0.4128  0.0815
 8851W        W 8851   4.013   2.702   9.202  0.2823  0.2851  0.0249
 8852W        W 8852   8.661  10.183   8.249  0.2477  0.2213 -0.0164
 8853W        W 8853   3.522   9.631   7.073 -0.2141  0.0242  0.1770
 8854W        W 8854   0.492   9.815   3.364  0.0329 -0.1666 -0.0448
 8855W        W 8855   2.795   7.515   1.835  0.0286 -0.0873 -0.4602
 8856W        W 8856   7.359   3.710   1.844 -0.0312 -0.4759 -0.1416
 8857W        W 8857   9.336   5.543  10.151  0.3944  0.0156 -0.0898
 8858W        W 8858  10.291   5.963   8.010  0.0156 -0.1640 -0.0402
 8859W        W 8859   4.936   0.920   0.860  0.2360  0.0854 -0.1915
 8860W        W 8860   2.222   7.246   9.124  0.0296  0.1009 -0.1241
 8861W        W 8861   3.208   7.327   7.013 -0.1346 -0.2355  0.2285
 8862W        W 8862   8.588   7.306   7.840  0.2900  0.0590  0.2278
 8863W        W 8863   8.631   9.347   4.316  0.0914 -0.0749  0.3886
 8864W        W 8864   3.173   7.124   0.408 -0.0001 -0.0466 -0.0972
 8865W        W 8865   4.472   9.019  10.087 -0.3349 -0.1217  0.2603
 8866W        W 8866   6.485   4.488   9.708  0.2088  0.0614 -0.1204
 8867W        W 8867   9.532   1.605   2.200  0.2095 -0.0232  0.0663
 8868W        W 8868   1.635   0.811   4.041  0.2145 -0.1484 -0.1782
 8869W        W 8869  10.130   1.177   5.178 -0.1905  0.0554 -0.0032
 8870W        W 8870   8.859   3.964   2.737  0.2516 -0.0752  0.0710
 8871W        W 8871   5.431   8.042   9.512 -0.0783  0.1396 -0.0635
 8872W        W 8872   7.721   4.508   9.974 -0.1860  0.2547  0.0440
 8873W        W 8873   8.881   4.142   6.699 -0.0524 -0.0380 -0.1097
 8874W        W 8874   0.715   6.512   6.407 -0.0030 -0.0533  0.2205
 8875W        W 8875   5.906   5.811   3.957 -0.3324 -0.2868  0.0569
 8876W        W 8876   8.978  10.159   6.569  0.2122  0.0193 -0.1006
 8877W        W 8877   3.208   8.615   7.554  0.1371 -0.0111 -0.0597
 8878W        W 8878  10.166   5.586   9.982  0.0958 -0.0670  0.0142
 8879W        W 8879   8.117   3.663   4.465 -0.1386 -0.0692 -0.2402
 8880W        W 8880   1.546   6.401   0.862 -0.1598 -0.4540 -0.3506
 8881W        W 8881   9.786   4.514  10.054 -0.0222 -0.0242 -0.3500
 8882W        W 8882   1.279   0.780   5.838  0.0636  0.2075 -0.1519
 8883W        W 8883   1.221   2.352   0.795 -0.1910  0.0460 -0.2178
 8884W        W 8884   9.313   9.474   8.171 -0.2964 -0.1934 -0.0951
 8885W        W 8885   1.802   1.066   5.178  0.0235 -0.1815 -0.1457
 8886W        W 8886   3.139   8.119   3.239 -0.0414  0.1265 -0.0600
 8887W        W 8887   4.161   2.109   3.253 -0.0918  0.2643 -0.0143
 8888W        W 8888   0.765   6.344   0.633  0.1745 -0.2126 -0.0126
 8889W        W 8889   1.712   6.583   5.866 -0.0449 -0.1413 -0.0634
 8890W        W 8890   6.846   8.208   1.165  0.0540 -0.2111  0.0378
 8891W        W 8891   2.085   1.240   7.990  0.0560 -0.2456 -0.1768
 8892W        W 8892   0.177   9.019   5.076 -0.1562 -0.2544  0.0910
 8893W        W 8893   4.472   9.458   3.474  0.0223 -0.0653  0.3271
 8894W        W 8894   7.755   6.022   1.702  0.1596 -0.1717 -0.1348
 8895W        W 8895   1.196   4.891   3.659  0.1407  0.2242  0.3878
 8896W        W 8896   9.772   2.020   9.884 -0.1843  0.0064  0.0347
 8897W        W 8897   7.805   1.720   9.084  0.0432  0.0546  0.0100
 8898W        W 8898   3.438   3.501   7.853  0.1780 -0.1096  0.0166
 8899W        W 8899   3.280   9.254   5.177 -0.2722 -0.0023  0.4130
 8900W        W 8900   2.290   8.893   3.660 -0.1357  0.0431 -0.1848
 8901W        W 8901   8.073   9.785   1.872  0.0606 -0.1190  0.0662
 8902W        W 8902   9.763   9.782   4.554 -0.2699  0.0623  0.0362
 8903W        W 8903   6.862   8.671   1.401 -0.0212 -0.2646  0.1950
 8904W        W 8904   4.510   4.133   4.162  0.2352 -0.2127 -0.1938
 8905W        W 8905   8.272   5.153   3.076 -0.1832  0.2010  0.3062
 8906W        W 8906   8.052   0.477   0.108 -0.1337 -0.0582 -0.0024
 8907W        W 8907   8.508   3.980   8.554  0.0732 -0.1858  0.0857
 8908W        W 8908   0.602   9.266   5.234  0.1440  0.1432  0.1502
 8909W        W 8909   0.984   5.090   7.275  0.0888 -0.1201  0.0167
 8910W        W 8910   3.406   0.070   6.430  0.4494 -0.0323  0.1272
 8911W        W 8911   4.929   3.578   8.580 -0.0870 -0.2517 -0.1990
 8912W        W 8912   9.391   2.872  10.236  0.2060  0.1645 -0.2454
 8913W        W 8913   6.818   8.025   2.604  0.1736  0.2412  0.0614
 8914W        W 8914   4.779   6.420   7.383 -0.1167 -0.0188  0.2230
 8915W        W 8915   6.077   9.379   6.264  0.2371 -0.3046 -0.0994
 8916W        W 8916   2.075   5.130   3.601 -0.1067  0.0808  0.2400
 8917W        W 8917   6.551   4.779   2.538  0.1605  0.0425 -0.0753
 8918W        W 8918   9.233   9.315   1.090 -0.1842 -0.2490 -0.1828
 8919W        W 8919   0.454   5.961   8.162 -0.1363 -0.1361  0.3047
 8920W        W 8920   2.549   6.570   2.401  0.0911  0.0512 -0.1104
 8921W        W 8921   1.631   2.260   4.924 -0.1240 -0.0205 -0.3821
 8922W        W 8922   1.748   9.180   2.396  0.0618  0.1183  0.3323
 8923W        W 8923   5.858   2.299   6.580  0.2619 -0.0152  0.0240
 8924W        W 8924   3.199   6.631   5.327 -0.1948  0.1904 -0.0693
 8925W        W 8925   9.620   9.853   8.493 -0.0123 -0.0486 -0.2898
 8926W        W 8926   0.615   2.298   6.507 -0.2639 -0.3040  0.1019
 8927W        W 8927   6.052   2.857   1.168 -0.0180  0.1574  0.2005
 8928W        W 8928   1.245   2.990   9.460  0.1178  0.1650  0.1649
 8929W        W 8929   5.749   3.668   5.740  0.0120 -0.1076  0.2819
 8930W        W 8930   5.521   7.270   6.626  0.1282  0.1152  0.0544
 8931W        W 8931   3.864   1.436   3.658  0.0902 -0.0083  0.2604
 8932W        W 8932   5.612   8.415   8.102 -0.0221 -0.0357  0.0008
 8933W        W 8933  10.130   5.729   3.378 -0.0608 -0.0678  0.3257
 8934W        W 8934   1.086   6.742   0.011  0.1120  0.0681  0.3192
 8935W        W 8935   0.975   7.211   7.592 -0.2894  0.2054  0.0703
 8936W        W 8936   9.455   8.613   7.864 -0.0643  0.3195  0.0677
 8937W        W 8937   1.156   2.639   4.876  0.4515  0.4111  0.2382
 8938W        W 8938   6.265  10.004   8.815 -0.0941  0.0724 -0.1518
 8939W        W 8939   5.909   0.553   5.331 -0.4032  0.0405 -0.0912
 8940W        W 8940   5.015   4.864   8.124  0.1094  0.0015 -0.1025
 8941W        W 8941   9.869   1.170   2.780 -0.0138  0.2560  0.0543
 8942W        W 8942   2.090   4.758   0.545 -0.0364  0.2132 -0.0790
 8943W        W 8943   3.533   3.349   5.481 -0.1934  0.3386 -0.0572
 8944W        W 8944   4.679   5.226   1.488  0.1730 -0.0273  0.0735
 8945W        W 8945   2.856   7.297   7.441  0.0767 -0.2279  0.3881
 8946W        W 8946   0.281   2.686   4.655 -0.1977 -0.0881  0.2402
 8947W        W 8947   1.943   5.105   9.096 -0.2357  0.0481 -0.0785
 8948W        W 8948   3.497   0.789   3.668 -0.1144 -0.0390  0.0616
 8949W        W 8949   9.163   6.745   8.487  0.2314  0.1909  0.3660
 8950W        W 8950   6.290   9.243   9.116 -0.0432 -0.1919  0.0504
 8951W        W 8951   2.915   4.474   9.655  0.0393 -0.0525 -0.3775
 8952W        W 8952   1.656   3.946   2.883 -0.0394 -0.1972  0.0342
 8953W        W 8953   5.011   0.661   0.453  0.0162 -0.0836 -0.1285
 8954W        W 8954  10.271   9.347   4.594 -0.0896  0.0916  0.0332
 8955W        W 8955   2.850   7.407   6.612 -0.1665 -0.0163 -0.1776
 8956W        W 8956   0.428   7.350   4.669  0.1069 -0.0789 -0.0690
 8957W        W 8957   8.496   3.228   1.927  0.0101  0.2502 -0.0313
 8958W        W 8958   1.319   0.454   2.552  0.0789  0.1054 -0.0970
 8959W        W 8959   6.912  10.228   3.649 -0.1554  0.3331 -0.0025
 8960W        W 8960   0.819   3.791   7.818  0.1898  0.0709 -0.0468
 8961W        W 8961   3.995   4.513   9.323  0.2967 -0.0129 -0.2858
 8962W        W 8962   0.055   0.932   7.538  0.0377 -0.1709  0.0081
 8963W        W 8963   5.013   1.281   1.739  0.0558 -0.0116  0.0673
 8964W        W 8964   0.547   2.120   1.313 -0.2998 -0.2206 -0.0245
 8965W        W 8965   7.113   7.025   6.130 -0.1150 -0.0239 -0.5144
 8966W        W 8966   3.775   8.476   8.357 -0.0701  0.0629  0.1436
 8967W        W 8967   6.501   9.703   2.406 -0.0178 -0.1501  0.1697
 8968W        W 8968   7.778  10.215   5.094  0.1527  0.0894  0.0065
 8969W        W 8969   2.914   9.124   9.517  0.0940  0.0001 -0.0839
 8970W        W 8970  10.258   6.193   6.879 -0.2207  0.0753 -0.0322
 8971W        W 8971  10.074   3.837   0.672 -0.1347  0.0456 -0.0944
 8972W        W 8972   4.776   0.908   3.264  0.1506 -0.0952 -0.2308
 8973W        W 8973   4.567   4.971   2.388 -0.0352 -0.5702 -0.0690
 8974W        W 8974   3.983   6.712   9.002 -0.2181  0.0142  0.5001
 8975W        W 8975   8.951   2.583   1.291 -0.0174  0.3101 -0.2580
 8976W        W 8976   6.699   8.893   5.714  0.2247  0.1116  0.3499
 8977W        W 8977   6.807   4.317   0.361  0.1696  0.1258  0.0251
 8978W        W 8978   4.169   3.313  10.088 -0.0613  0.0297  0.1443
 8979W        W 8979   3.485   4.502   9.501  0.0356 -0.0750  0.0850
 8980W        W 8980   7.747   6.390   3.411 -0.0472 -0.1846 -0.1513
 8981W        W 8981   4.431   4.455   1.729 -0.0864  0.0081 -0.0789
 8982W        W 8982   5.895   3.647   5.253 -0.0258 -0.1776  0.2101
 8983W        W 8983   6.475   4.630   5.499  0.2895 -0.0775  0.3729
 8984W        W 8984   4.732   0.610  10.211  0.2219  0.0314  0.0568
 8985W        W 8985   7.084   3.379  10.271 -0.0259  0.1142 -0.0774
 8986W        W 8986   7.556   9.143   3.451  0.1768  0.0550 -0.2792
 8987W        W 8987   2.068   7.771   5.654 -0.1105 -0.1820  0.0372
 8988W        W 8988   4.914   4.262  10.290  0.0368  0.1518 -0.0479
 8989W        W 8989   7.863   9.650   5.792 -0.0036 -0.2035 -0.0233
 8990W        W 8990   9.743   6.860   3.594 -0.0134 -0.0496 -0.2253
 8991W        W 8991   2.680   9.464   0.076 -0.0159  0.0410  0.3688
 8992W        W 8992   5.065   7.543   7.397  0.1969  0.1161  0.0048
 8993W        W 8993   6.225   1.838   9.420  0.0473  0.2286 -0.1116
 8994W        W 8994   4.827   5.823   9.905  0.0992 -0.0992  0.0470
 8995W        W 8995   1.458   1.237   2.557  0.0866  0.1155 -0.0372
 8996W        W 8996   1.447   8.607   7.223 -0.4724  0.2028 -0.2317
 8997W        W 8997   6.967   2.258   2.268 -0.2333 -0.0417 -0.1404
 8998W        W 8998   1.010   0.372   2.968 -0.0105  0.0491 -0.1345
 8999W        W 8999   4.989   7.625   2.195 -0.2930  0.0008 -0.4718
 9000W        W 9000   9.350   2.785   7.636 -0.4172  0.0246 -0.3705
 9001W        W 9001   6.604   3.705   8.253  0.0823  0.1132  0.4839
 9002W        W 9002   1.891   2.236   3.320  0.0490  0.0845 -0.0761
 9003W        W 9003   6.481   6.404   0.017 -0.0777  0.1271  0.0136
 9004W        W 9004   3.097   6.841   9.096 -0.2219  0.1638 -0.1563
 9005W        W 9005   4.160   3.440   1.286 -0.2593  0.0374  0.1455
 9006W        W 9006   3.876   5.255   5.255 -0.1098  0.0487  0.0322
 9007W        W 9007   9.703   3.083   6.379  0.1326  0.4918  0.1884
 9008W        W 9008   8.731   4.743   2.034 -0.1458 -0.0327  0.0776
 9009W        W 9009   4.795   1.170   4.737 -0.0675  0.2050  0.0915
 9010W        W 9010   2.165   8.649   0.032  0.0389 -0.0267  0.1261
 9011W        W 9011   5.993   0.388   9.292 -0.0354  0.0152  0.0074
 9012W        W 9012   3.862   9.165  10.327  0.0423  0.1514  0.0540
 9013W        W 9013   4.978   2.545   9.665 -0.0973 -0.0971 -0.0637
 9014W        W 9014   5.872   1.887   0.194 -0.0292  0.1553  0.0659
 9015W        W 9015   9.123   5.999   9.252 -0.3229 -0.0395  0.1996
 9016W        W 9016   1.726   8.503   3.107 -0.2015  0.1097  0.2072
 9017W        W 9017   4.071   5.302   3.709 -0.2444 -0.0127 -0.2086
 9018W        W 9018   1.140   2.372   9.815 -0.1249 -0.0292 -0.0185
 9019W        W 9019   7.264   5.206   4.215 -0.2775  0.1588 -0.1516
 9020W        W 9020   5.478   9.426   4.829  0.0766 -0.0797  0.1566
 9021W        W 9021   0.990   0.544   6.969  0.1404  0.0811  0.1529
 9022W        W 9022   4.013   2.659   0.898  0.1017  0.0796 -0.4085
 9023W        W 9023   3.595   0.604   0.521  0.0872 -0.3590  0.0957
 9024W        W 9024   8.922   7.203   8.694  0.0021 -0.2479 -0.0575
 9025W        W 9025   6.671   0.943   9.183 -0.2004  0.0876  0.0448
 9026W        W 9026   9.700   9.095   0.638  0.0679  0.0163 -0.0843
 9027W        W 9027   7.182   8.969   9.026  0.0687 -0.1629  0.2470
 9028W        W 9028   9.111   5.239   8.549 -0.0715 -0.2187 -0.3295
 9029W        W 9029   0.051   5.855   5.795  0.1721 -0.0458 -0.2929
 9030W        W 9030   3.416   8.152   5.009 -0.1269 -0.1925 -0.0205
 9031W        W 9031   7.688   3.978   2.642  0.0141 -0.2357  0.1440
 9032W        W 9032   0.933   5.710   5.896 -0.1256 -0.0261  0.0979
 9033W        W 9033   4.643   3.424   3.615  0.1766  0.1367 -0.1875
 9034W        W 9034   1.331   0.165   8.982 -0.2502  0.1108 -0.3194
 9035W        W 9035   4.064   2.778   1.765 -0.4742 -0.0438  0.1122
 9036W        W 9036   7.924   6.800   1.127 -0.2053 -0.1289 -0.0981
 9037W        W 9037   3.720   1.483   6.854  0.2533  0.3500 -0.2290
 9038W        W 9038   1.328   1.770   5.677  0.0036 -0.1863  0.2708
 9039W        W 9039   6.975   8.074   8.008  0.2361 -0.1000  0.2084
 9040W        W 9040   3.282  10.107   3.432  0.3555 -0.1289 -0.3105
 9041W        W 9041   1.808   6.003   2.821 -0.3329 -0.0702 -0.0296
 9042W        W 9042   1.669   5.524   6.014 -0.1555  0.2139  0.0032
 9043W        W 9043   3.677   4.821   1.097 -0.1254  0.1276  0.2015
 9044W        W 9044   7.199   6.547   6.810 -0.1375  0.2069 -0.0305
 9045W        W 9045   6.857   7.956   7.529 -0.1903 -0.1314 -0.1383
 9046W        W 9046   6.902   4.346   1.736  0.1735  0.0286  0.1734
 9047W        W 9047   6.661   6.966   0.571 -0.1207  0.0141 -0.2203
 9048W        W 9048   4.274   4.644   4.498 -0.0158 -0.1265 -0.0593
 9049W        W 9049   4.850   6.671   8.726 -0.1370 -0.0458  0.0174
 9050W        W 9050   7.084   4.228   1.314 -0.0244 -0.1786  0.0303
 9051W        W 9051   2.516   0.705   3.986 -0.2664 -0.0724  0.0248
 9052W        W 9052   1.790   8.288   9.877 -0.2364 -0.0815  0.0021
 9053W        W 9053   3.147   5.404   6.159  0.0317  0.0185 -0.1166
 9054W        W 9054   8.950   2.206   9.721 -0.0032 -0.4197  0.1107
 9055W        W 9055   8.359   1.098   5.751 -0.0688  0.1102 -0.3013
 9056W        W 9056   5.301   9.059   3.004 -0.1389  0.1874 -0.1114
 9057W        W 9057   4.917   4.357   7.352  0.0556  0.0414  0.1921
 9058W        W 9058   7.099   5.353   1.487  0.0555  0.1803 -0.2718
 9059W        W 9059   1.377   3.958   7.217 -0.1789  0.1597 -0.2374
 9060W        W 9060   8.564   1.494   3.721  0.3358 -0.1402  0.3338
 9061W        W 9061   9.155   9.500   9.727 -0.1128 -0.1184 -0.1373
 9062W        W 9062   4.073   5.425   0.188  0.2369  0.0783 -0.2648
 9063W        W 9063   9.861   0.841   2.133 -0.2629 -0.0275  0.0150
 9064W        W 9064   3.446   1.988   6.913 -0.0946  0.2232 -0.1933
 9065W        W 9065   2.951   2.032   3.227  0.2818 -0.0727 -0.0825
 9066W        W 9066   0.584   9.593   5.600  0.1790 -0.4313  0.2927
 9067W        W 9067   5.856   8.317   3.877 -0.0955 -0.1301 -0.0531
 9068W        W 9068   2.652   3.563   6.141  0.0069 -0.0223  0.2632
 9069W        W 9069  10.099   5.702   8.944 -0.3666  0.1850 -0.0551
 9070W        W 9070   7.624   4.823   8.887  0.0185 -0.0821 -0.4058
 9071W        W 9071   1.822   3.761   1.433  0.1791  0.1557 -0.1023
 9072W        W 9072   3.802   3.144   7.094  0.2060 -0.4912  0.2682
 9073W        W 9073   9.594   0.527   4.248 -0.2417  0.0058 -0.0681
 9074W        W 9074   4.213   5.144   8.161  0.1590 -0.4286  0.2124
 9075W        W 9075   4.192   3.331   6.811 -0.1149 -0.2149  0.1899
 9076W        W 9076   0.729  10.325   7.800  0.2016  0.0080 -0.2810
 9077W        W 9077   3.293   1.182   1.943  0.0957 -0.0234 -0.4243
 9078W        W 9078   1.033   3.909   0.282  0.5734 -0.0631 -0.1004
 9079W        W 9079   1.045   8.127   8.483  0.1128  0.1100  0.3740
 9080W        W 9080   9.893   0.114   0.689 -0.2544 -0.4401  0.0061
 9081W        W 9081   2.265   6.778   2.849 -0.0190  0.0227 -0.1352
 9082W        W 9082   8.298   1.632   9.201 -0.1009  0.0926  0.1410
 9083W        W 9083   6.807   8.385   5.886 -0.1639  0.2176 -0.0972
 9084W        W 9084   5.554   6.496   1.508  0.1331 -0.0237  0.1354
 9085W        W 9085   0.792   6.056   1.067  0.1052 -0.3345 -0.1439
 9086W        W 9086   7.783   2.471   2.758  0.1542  0.1019  0.2297
 9087W        W 9087   4.946   9.658   8.326 -0.0107 -0.1923  0.3119
 9088W        W 9088   2.829   5.538   9.025 -0.1903 -0.2462 -0.1014
 9089W        W 9089   7.546   5.513   1.708 -0.1590  0.4176  0.3203
 9090W        W 9090  10.039   1.909   8.957  0.2886  0.3372  0.1684
 9091W        W 9091   5.732   3.173   3.629 -0.2209 -0.2323 -0.0467
 9092W        W 9092   8.343   2.426   1.357  0.3959  0.3017  0.1350
 9093W        W 9093   0.271   2.085   0.897 -0.1507  0.0986  0.0594
 9094W        W 9094   2.577   0.394   1.436  0.0965 -0.0400 -0.2235
 9095W        W 9095   4.619   6.667   6.408  0.1064 -0.0853 -0.2565
 9096W        W 9096   3.313   4.565   4.777  0.0853 -0.1096  0.0419
 9097W        W 9097   9.171   8.593   9.436  0.1316 -0.1864  0.1189
 9098W        W 9098   1.857  10.265   4.387  0.2405 -0.0037  0.1059
 9099W        W 9099   4.270   2.123   4.053 -0.0290  0.1088  0.0773
 9100W        W 9100   0.084   8.685   6.409  0.2636 -0.1165 -0.2406
 9101W        W 9101   9.277   6.328   2.982  0.1601 -0.0451 -0.1226
 9102W        W 9102   5.898   9.578   8.783 -0.3024  0.1122  0.0389
 9103W        W 9103   2.806   4.184   2.669  0.0457  0.0511 -0.1485
 9104W        W 9104   0.083   9.065   1.593 -0.0395 -0.0994 -0.0041
 9105W        W 9105   9.722   3.580   6.725  0.2867  0.1427 -0.0307
 9106W        W 9106   9.915   8.674   6.962  0.4678 -0.0113  0.2688
 9107W        W 9107   4.506   0.219   4.564  0.2248 -0.1021 -0.2933
 9108W        W 9108   5.049   7.277   3.678  0.2841  0.1139  0.3282
 9109W        W 9109   8.230   9.117   6.511 -0.0469 -0.1149  0.2180
 9110W        W 9110   0.741   1.611   4.653 -0.1595 -0.1459 -0.3778
 9111W        W 9111   3.194   3.018   6.080 -0.3828 -0.0658 -0.1705
 9112W        W 9112   9.496   6.119   0.491  0.0437  0.0138  0.1706
 9113W        W 9113   9.204   4.465   1.848  0.3200  0.4136 -0.5024
 9114W        W 9114   6.162   4.735   9.404  0.0535  0.1122 -0.2128
 9115W        W 9115   5.752   9.259   7.792  0.3022 -0.0463  0.1096
 9116W        W 9116   7.843   6.138   9.277  0.2243  0.0085  0.1857
 9117W        W 9117  10.246   4.835   6.090  0.0998  0.2121 -0.1375
 9118W        W 9118   2.404   0.896   7.138  0.1418 -0.0524  0.0692
 9119W        W 9119   1.667   3.595   7.015 -0.1767 -0.2212 -0.0657
 9120W        W 9120   5.282   6.319   7.532 -0.0284 -0.0028  0.1583
 9121W        W 9121   1.661   2.735   6.523 -0.3052  0.0222 -0.0457
 9122W        W 9122   0.151   4.663   6.980  0.1113 -0.1044  0.2358
 9123W        W 9123   4.099   0.678   4.601 -0.0509 -0.0567  0.2603
 9124W        W 9124   3.680   1.144   2.260 -0.0175  0.0938  0.1185
 9125W        W 9125   7.684   3.588   4.847  0.1717  0.0365 -0.0974
 9126W        W 9126   6.748   9.200   3.692  0.3846  0.0684 -0.1676
 9127W        W 9127   6.172   2.227   0.665  0.0403 -0.0724  0.1485
 9128W        W 9128   3.126   6.376   7.102  0.0369 -0.1249  0.1559
 9129W        W 9129   3.775   3.081   0.646  0.2223 -0.1847  0.2691
 9130W        W 9130   1.203   8.695   5.039 -0.0056 -0.0045  0.0229
 9131W        W 9131   7.202   4.387   3.722  0.3299 -0.0865 -0.0132
 9132W        W 9132   8.133   2.376   3.671  0.1523 -0.0824 -0.2518
 9133W        W 9133   4.925   9.187   7.812  0.0342 -0.2434 -0.0961
 9134W        W 9134   1.985   7.480   3.561 -0.2658 -0.1181 -0.1496
 9135W        W 9135   0.999   9.154   1.130 -0.2326  0.1041  0.4864
 9136W        W 9136   3.326   7.646   2.733 -0.0646  0.1383  0.0006
 9137W        W 9137   1.383   8.710   0.949 -0.0825 -0.1930 -0.1525
 9138W        W 9138   3.921   8.858   6.018  0.1694 -0.1205 -0.0158
 9139W        W 9139   4.809   4.617   0.307 -0.1098 -0.0029  0.1759
 9140W        W 9140   6.237   5.410   3.899  0.0420  0.3025  0.2872
 9141W        W 9141   1.210   1.096   7.015 -0.2218 -0.2660  0.0309
 9142W        W 9142   4.651   3.396   2.995  0.0835  0.1423 -0.0555
 9143W        W 9143   3.460   6.316   9.746  0.0522  0.2402 -0.3881
 9144W        W 9144   4.677   7.551   9.064 -0.0202 -0.3275 -0.0806
 9145W        W 9145   0.654   8.784   0.838  0.2467 -0.2720 -0.0614
 9146W        W 9146   8.116   3.313   0.200  0.0142  0.1108  0.2145
 9147W        W 9147   3.252   7.652   5.621 -0.3524  0.2671  0.0222
 9148W        W 9148   3.022   8.711   0.624  0.2708 -0.1423  0.4080
 9149W        W 9149   6.253   5.841   9.959 -0.0298  0.1046 -0.1279
 9150W        W 9150   2.046   3.682   9.384  0.1475 -0.0107 -0.1329
 9151W        W 9151   5.792   8.413   7.314 -0.2603 -0.1164 -0.1234
 9152W        W 9152   4.750   2.109   3.960  0.0211 -0.1730 -0.0950
 9153W        W 9153   0.986   7.273   2.177 -0.2780  0.0322 -0.0934
 9154W        W 9154   3.533   5.814   0.889 -0.2468  0.0157 -0.1389
 9155W        W 9155   3.397   0.846   0.046 -0.2222 -0.3358 -0.0390
 9156W        W 9156   3.068   2.952   1.415  0.0118 -0.1981 -0.2345
 9157W        W 9157   3.397   6.787   2.144  0.1550 -0.0288 -0.4063
 9158W        W 9158   8.570   3.692   2.189  0.1129 -0.2007 -0.1542
 9159W        W 9159   5.252   8.883   5.860  0.0270 -0.2063 -0.0418
 9160W        W 9160  10.030   3.200   3.212  0.0641  0.1568 -0.1922
 9161W        W 9161   4.558  10.085   6.163  0.2676  0.1996  0.1253
 9162W        W 9162   7.130   2.742  10.168 -0.0857 -0.0231  0.0192
 9163W        W 9163   0.616   6.248   3.192  0.1865 -0.4103  0.0614
 9164W        W 9164   9.694   8.354   0.564 -0.1830 -0.0063 -0.0081
 9165W        W 9165   5.371   5.583   0.787  0.0247  0.0066 -0.0254
 9166W        W 9166   3.805   2.249   6.700  0.1999 -0.0116 -0.1849
 9167W        W 9167   9.239   1.151   1.105  0.2835 -0.0984  0.5718
 9168W        W 9168   8.331   4.968   8.053 -0.0230  0.0244 -0.1051
 9169W        W 9169   2.622   3.607   7.107 -0.2455  0.0440 -0.2708
 9170W        W 9170   5.210   4.233   0.336  0.1254 -0.0571  0.1150
 9171W        W 9171   9.319   6.960   4.351 -0.2349 -0.2751  0.1840
 9172W        W 9172   7.240   9.312   9.614  0.1191 -0.2507 -0.0107
 9173W        W 9173   4.945   4.593   9.047 -0.2579  0.1932  0.0085
 9174W        W 9174   9.925   7.519  10.155  0.0425 -0.0249  0.1259
 9175W        W 9175   9.227   4.879   0.204  0.2092  0.1053  0.0378
 9176W        W 9176   3.540   3.542   6.805 -0.1347 -0.1214 -0.2110
 9177W        W 9177   4.147   6.791   1.944 -0.2625 -0.3305 -0.2345
 9178W        W 9178   7.330   1.512   6.197  0.1999  0.0098  0.2082
 9179W        W 9179   4.879  10.122  10.333 -0.2220 -0.2110  0.1558
 9180W        W 9180   4.404   4.466   2.237  0.3188  0.0219 -0.0402
 9181W        W 9181   5.853   0.910   9.265  0.1308  0.1711  0.0161
 9182W        W 9182   0.815   7.791   9.279  0.1036  0.2125 -0.1474
 9183W        W 9183   1.843   5.923   6.333  0.2287 -0.0615 -0.1130
 9184W        W 9184   8.887   3.029   0.969  0.1356  0.1037  0.0611
 9185W        W 9185   7.863   8.960   3.110  0.1032 -0.1922  0.1885
 9186W        W 9186   1.911   0.424   6.018  0.3286 -0.0953 -0.1415
 9187W        W 9187   2.968   2.268   9.836  0.1665  0.0282  0.2660
 9188W        W 9188   6.296   7.418   1.117 -0.0784  0.2040  0.0458
 9189W        W 9189   3.485   7.650  10.225 -0.1507 -0.4187 -0.0817
 9190W        W 9190   1.785   1.435   4.755 -0.2297  0.0661 -0.4559
 9191W        W 9191   7.382   2.872   8.267 -0.2825  0.0655 -0.1638
 9192W        W 9192   2.769   1.630   2.926 -0.0105 -0.2854  0.0874
 9193W        W 9193   2.105   3.869   5.521  0.0753  0.0685  0.0149
 9194W        W 9194   7.704   3.398   6.495 -0.1453 -0.1542  0.1824
 9195W        W 9195   5.427   0.344   5.063 -0.0158  0.2383  0.0063
 9196W        W 9196   0.334   0.993   0.097  0.1662  0.1836 -0.1036
 9197W        W 9197   4.278   6.441   8.649  0.0602  0.2397 -0.4656
 9198W        W 9198   7.752  10.010   6.523  0.0385  0.0712 -0.2258
 9199W        W 9199   9.315   2.160   0.488 -0.0812 -0.3593  0.0880
 9200W        W 9200   9.342   7.850   0.767 -0.0169  0.2183 -0.0190
 9201W        W 9201   9.078   9.873   0.274 -0.1270  0.0814 -0.0928
 9202W        W 9202   9.723   0.644   5.880 -0.1197 -0.1034  0.0047
 9203W        W 9203   1.848   0.934   1.865 -0.0261  0.0431 -0.0828
 9204W        W 9204   6.724   0.162  10.103  0.0817 -0.0764 -0.0134
 9205W        W 9205   2.742   5.606   3.082  0.1713 -0.2002 -0.3235
 9206W        W 9206   5.546   9.206   4.324  0.3170 -0.1654  0.1163
 9207W        W 9207   1.472   3.122   5.810 -0.0808  0.0911 -0.1641
 9208W        W 9208  10.296   1.041   1.922 -0.3497  0.0412  0.1018
 9209W        W 9209   0.353   4.951   1.358  0.1275  0.1095 -0.0400
 9210W        W 9210   4.841   3.301   6.408 -0.0720 -0.0826 -0.0212
 9211W        W 9211   5.679   6.381   7.060  0.3148 -0.0449 -0.2888
 9212W        W 9212   6.044   8.391   1.528  0.0219 -0.3694  0.3615
 9213W        W 9213   4.724   9.754   6.746 -0.0968 -0.2226  0.0198
 9214W        W 9214   9.601   0.695   0.637 -0.0310 -0.0149  0.0839
 9215W        W 9215   5.873   0.605   1.351 -0.0144  0.1683  0.2474
 9216W        W 9216   7.348   1.376   7.419  0.1586 -0.0843 -0.2348
 9217W        W 9217   7.048   1.584   4.029 -0.3354 -0.0316 -0.1935
 9218W        W 9218   0.610   6.077  10.336 -0.0086  0.0382  0.2118
 9219W        W 9219   9.951   1.877   9.444 -0.3125 -0.0877 -0.0748
 9220W        W 9220   3.190   1.975   8.486 -0.0466  0.0400 -0.3256
 9221W        W 9221   9.105   1.845   2.010 -0.1705  0.1987  0.2198
 9222W        W 9222   8.802   9.557   8.059 -0.1372 -0.1561 -0.1069
 9223W        W 9223   0.382   3.756   1.966  0.1462 -0.2923  0.1198
 9224W        W 9224   0.511   8.380   3.252 -0.1291  0.0343 -0.1996
 9225W        W 9225   1.172   4.313   6.982  0.0282 -0.1381 -0.0258
 9226W        W 9226   3.398   1.364   0.638 -0.0340 -0.4536 -0.0504
 9227W        W 9227   5.713   6.534   8.625  0.1468 -0.2099 -0.0397
 9228W        W 9228   5.535   4.280   4.917 -0.0910 -0.0451 -0.0474
 9229W        W 9229   2.604   7.938   2.143 -0.3780 -0.2463  0.0794
 9230W        W 9230   9.353   1.700   3.357 -0.0053 -0.0673 -0.0036
 9231W        W 9231   7.095   1.001   6.001 -0.1355 -0.0322 -0.1591
 9232W        W 9232   3.316   8.828   8.896  0.0897 -0.1915 -0.2731
 9233W        W 9233   7.570   7.305   3.133 -0.1516  0.0005  0.3779
 9234W        W 9234   3.498   1.801   3.830 -0.1591  0.0260 -0.3514
 9235W        W 9235   0.615   3.669   2.860 -0.0305 -0.1466  0.3609
 9236W        W 9236  10.120   2.066   5.521  0.0385  0.0220  0.1454
 9237W        W 9237   3.195   3.304   2.853  0.0033 -0.3083  0.0594
 9238W        W 9238   4.099   0.317   0.406  0.0449 -0.1746 -0.2157
 9239W        W 9239   3.466   3.620   3.130 -0.1402 -0.2175 -0.2013
 9240W        W 9240  10.240   6.700   8.092 -0.0611 -0.1611 -0.1123
 9241W        W 9241   7.659   1.884   6.394  0.2144 -0.1761 -0.0636
 9242W        W 9242   6.573   5.525   3.494 -0.3479 -0.0413  0.0637
 9243W        W 9243   0.315   5.501   1.446 -0.2179 -0.0823 -0.0475
 9244W        W 9244   0.373  10.316   3.643  0.0980  0.0149 -0.1154
 9245W        W 9245   0.933   2.679   7.009 -0.1685 -0.1653  0.1182
 9246W        W 9246   5.005   8.190   7.492 -0.0895  0.0030 -0.1580
 9247W        W 9247   4.770   4.271   1.076  0.2420 -0.2478 -0.1449
 9248W        W 9248   9.030   0.054   6.989  0.0172  0.2257  0.1306
 9249W        W 9249   2.310   7.775   6.163  0.3256  0.1053 -0.0905
 9250W        W 9250   9.584   4.369   9.471 -0.3596 -0.0836  0.1757
 9251W        W 9251   1.221   1.520   4.812 -0.1633  0.2882 -0.1765
 9252W        W 9252   2.848   0.528   5.505  0.1201  0.0382 -0.2123
 9253W        W 9253   9.832   8.003   0.929 -0.0349 -0.0191  0.2157
 9254W        W 9254   4.139   1.784   6.962  0.2231 -0.1967 -0.0167
 9255W        W 9255   0.759   9.650   4.927 -0.0024  0.3239  0.0549
 9256W        W 9256   3.670   4.293   6.281 -0.1686 -0.2714 -0.4760
 9257W        W 9257   7.434   4.253   1.855  0.1619  0.0201  0.2699
 9258W        W 9258   3.459   1.131   4.997 -0.1111  0.2077  0.1058
 9259W        W 9259   9.532   1.600   4.360 -0.4377  0.0796 -0.2288
 9260W        W 9260   1.187   8.073   1.813  0.1542  0.1135 -0.3050
 9261W        W 9261   0.081   3.321   1.953  0.2500  0.1844  0.2911
 9262W        W 9262   4.387   5.133   7.636 -0.2189 -0.0170  0.0833
 9263W        W 9263   2.107   9.864   4.853 -0.3619  0.0295  0.1879
 9264W        W 9264   2.916  10.281   3.059  0.0089 -0.0895 -0.1715
 9265W        W 9265   0.051   8.617   7.228 -0.2271 -0.0231 -0.4318
 9266W        W 9266   0.978   2.171   3.334 -0.0035 -0.1802 -0.0114
 9267W        W 9267   6.385   6.033   0.409 -0.2070 -0.0858  0.1909
 9268W        W 9268   8.056   4.173   6.002 -0.0892  0.1349  0.2913
 9269W        W 9269   8.107  10.305   6.737 -0.0870 -0.0615 -0.1003
 9270W        W 9270   2.092   5.555  10.237 -0.3820 -0.3601  0.3036
 9271W        W 9271   7.279   7.762   4.543 -0.2615  0.0727  0.1053
 9272W        W 9272   2.777   3.156   8.094  0.1467 -0.0239  0.1952
 9273W        W 9273   2.204   4.159   6.796 -0.0075 -0.2231  0.0789
 9274W        W 9274   3.817   4.841   2.679  0.0318 -0.0367 -0.0517
 9275W        W 9275   7.407   8.489   4.895  0.2998  0.0928 -0.1376
 9276W        W 9276   7.181   4.680   9.792  0.3401 -0.3015  0.0320
 9277W        W 9277   9.415   0.208   0.841 -0.2414  0.1276  0.1279
 9278W        W 9278   2.800   3.198   2.058 -0.1407  0.2743  0.2531
 9279W        W 9279   5.708   4.770   9.619  0.1568 -0.1274 -0.0586
 9280W        W 9280   0.696   2.245   0.759  0.4126  0.2179  0.2597
 9281W        W 9281   0.886   9.857   9.749 -0.1515 -0.0511 -0.3937
 9282W        W 9282   3.102   7.838   0.863 -0.2893  0.0337  0.0040
 9283W        W 9283   8.100   1.429   0.495  0.1670  0.0482 -0.2259
 9284W        W 9284   9.625   5.413   9.758 -0.2247  0.1769 -0.1442
 9285W        W 9285   1.688   3.957   1.897  0.1775  0.0037 -0.0057
 9286W        W 9286   8.140   0.874   3.498 -0.1005 -0.1524 -0.0044
 9287W        W 9287   9.123   8.829   3.219  0.0415 -0.1310  0.1307
 9288W        W 9288   3.525   9.525   6.087  0.1067 -0.1303 -0.0918
 9289W        W 9289   4.694   8.622   1.854  0.0757 -0.1130 -0.1007
 9290W        W 9290   9.053   1.053   2.985 -0.0431  0.0390 -0.2912
 9291W        W 9291   9.005   5.408   1.247 -0.2081  0.1502  0.2683
 9292W        W 9292   5.287   0.152   8.946 -0.1482 -0.0658 -0.2095
 9293W        W 9293   8.917   3.270   5.821 -0.1596 -0.1861 -0.0562
 9294W        W 9294   7.752   0.652   9.724  0.0469  0.2488 -0.4679
 9295W        W 9295   2.697   2.654   1.393 -0.1033  0.0124 -0.2243
 9296W        W 9296   1.969   6.566   0.592  0.0936  0.2954 -0.0193
 9297W        W 9297   9.014   7.644   1.135 -0.0253  0.3432  0.2357
 9298W        W 9298   9.329   9.108   8.528  0.0068 -0.0709 -0.1124
 9299W        W 9299   5.996   0.459   0.545  0.0954 -0.3271 -0.0804
 9300W        W 9300   9.725   9.210   3.439  0.0485 -0.0705 -0.2923
 9301W        W 9301   0.974   5.933   9.564  0.0751 -0.1161  0.0140
 9302W        W 9302   7.325   8.081   3.458 -0.2669 -0.2538 -0.0556
 9303W        W 9303   8.573   2.090   9.320  0.1015 -0.0616 -0.2824
 9304W        W 9304   5.131   2.607   0.332 -0.2188 -0.1321  0.0379
 9305W        W 9305   6.137   3.784   8.569  0.1919 -0.4701  0.2594
 9306W        W 9306   8.183   3.469   3.833 -0.2468  0.1623  0.4966
 9307W        W 9307   8.933   8.413   2.140 -0.1138  0.0268  0.2470
 9308W        W 9308   4.147   7.938   7.989 -0.1093 -0.2131 -0.3713
 9309W        W 9309   0.923   4.514  10.307 -0.1389  0.3777 -0.2509
 9310W        W 9310   5.165   9.465   4.102  0.0482  0.0025  0.0870
 9311W        W 9311   5.451   5.438   3.269  0.0387 -0.0302  0.1385
 9312W        W 9312   3.840   8.253   0.139  0.1709  0.1458 -0.1878
 9313W        W 9313   8.383   3.153   3.410 -0.1488  0.0311  0.2821
 9314W        W 9314   2.754   8.890   3.433 -0.3160  0.1899 -0.0448
 9315W        W 9315   4.404   7.824   0.153  0.1289  0.0003  0.0879
 9316W        W 9316   1.481   2.329   8.801 -0.2388 -0.2959 -0.1012
 9317W        W 9317   3.451   6.811   9.538  0.0541 -0.0118 -0.1560
 9318W        W 9318   6.219   6.703   1.986 -0.1755  0.1248  0.0501
 9319W        W 9319   6.783   5.903   9.558 -0.0893 -0.1900  0.0219
 9320W        W 9320   1.191   9.982   2.256 -0.0071  0.4481 -0.3844
 9321W        W 9321   8.802   0.808   2.083  0.2160 -0.0231  0.0686
 9322W        W 9322   3.282   0.267   5.665 -0.2741 -0.0370  0.2107
 9323W        W 9323   1.023   0.694   9.171  0.0528  0.1836  0.0547
 9324W        W 9324   1.372   5.881   7.319  0.1151  0.0599 -0.0421
 9325W        W 9325   2.634   6.019   2.628 -0.0914 -0.0354 -0.1246
 9326W        W 9326   7.690   0.092   8.212 -0.1076  0.0725 -0.0044
 9327W        W 9327   1.727   8.509   0.161 -0.0478  0.1118 -0.1293
 9328W        W 9328   9.962   7.320   7.120 -0.0145  0.2648  0.1240
 9329W        W 9329   9.188   0.378   9.963 -0.1126 -0.2958 -0.1294
 9330W        W 9330   2.823   0.290   6.570 -0.0806 -0.3397 -0.3513
 9331W        W 9331   6.956   8.396   5.175 -0.0757 -0.3913 -0.0083
 9332W        W 9332   7.762   1.695   1.283  0.2593 -0.0973 -0.1113
 9333W        W 9333   7.338   9.578  10.058 -0.1256  0.1950 -0.1453
 9334W        W 9334   1.786   5.814   0.885 -0.0450  0.1619  0.0069
 9335W        W 9335   4.269   0.943  10.273  0.0948  0.1900  0.1868
 9336W        W 9336   1.968  10.078   0.047 -0.0450 -0.0745  0.2986
 9337W        W 9337   8.242   0.213   2.526  0.0334 -0.3257 -0.0680
 9338W        W 9338   2.563   2.936   4.780 -0.2219 -0.4126  0.0468
 9339W        W 9339   6.580   5.108   3.939 -0.2025  0.0505 -0.2858
 9340W        W 9340   6.767   9.138   9.865  0.0795  0.1130 -0.2110
 9341W        W 9341   8.855   3.344   9.974 -0.0078  0.2006 -0.1634
 9342W        W 9342   4.878   0.638   1.861 -0.2214  0.0048  0.1661
 9343W        W 9343   2.015   2.915   2.709 -0.0689 -0.3010  0.0587
 9344W        W 9344   4.454   5.846   0.726  0.0334 -0.0997 -0.0689
 9345W        W 9345   8.941   6.271   3.459  0.0380 -0.1891 -0.3098
 9346W        W 9346   6.163   6.910   7.930 -0.0791 -0.2800  0.0874
 9347W        W 9347   3.488   4.587   5.845  0.1218 -0.1316  0.1020
 9348W        W 9348   2.835   3.518   8.501 -0.2132  0.1876  0.0515
 9349W        W 9349   4.469   6.961   8.521  0.4005 -0.1018 -0.1700
 9350W        W 9350   4.712   3.996   1.508  0.1074  0.1441  0.1427
 9351W        W 9351   7.785   8.803   0.124 -0.0086 -0.3065 -0.0115
 9352W        W 9352   9.256   0.043   6.144 -0.2020  0.0548 -0.0785
 9353W        W 9353   0.433   9.627   7.318  0.2427 -0.3594 -0.3718
 9354W        W 9354   0.944   9.638   7.391  0.1359 -0.1067  0.1423
 9355W        W 9355   5.579   3.389   4.354 -0.0293 -0.0612  0.2243
 9356W        W 9356   5.003   1.989   0.078  0.3095 -0.0284 -0.2883
 9357W        W 9357   8.485   7.830   6.741  0.1811 -0.3103  0.2990
 9358W        W 9358   6.992   1.360   5.632  0.0358  0.0684 -0.1306
 9359W        W 9359   4.994   5.931   7.407 -0.3142  0.0820 -0.0304
 9360W        W 9360   2.762   3.207   5.786  0.1167 -0.2972  0.0068
 9361W        W 9361   6.020   9.817   6.497  0.0462 -0.1507 -0.0782
 9362W        W 9362   1.787   7.424   7.314  0.0877  0.0128 -0.0341
 9363W        W 9363   6.510   3.312   8.560 -0.1082 -0.0096  0.0351
 9364W        W 9364   2.617   6.765   6.290 -0.0953  0.2875  0.0876
 9365W        W 9365   1.332   5.812   3.615  0.0171  0.0535  0.0903
 9366W        W 9366   2.326   2.589   3.470 -0.1929  0.0796  0.1198
 9367W        W 9367   1.463   3.450   2.006 -0.1643  0.0722  0.1022
 9368W        W 9368   9.323   9.306   4.733 -0.1462 -0.2538  0.1019
 9369W        W 9369   2.516   7.335   8.498 -0.0864 -0.3657  0.0393
 9370W        W 9370   1.211   1.068   0.631 -0.1369 -0.3191 -0.0981
 9371W        W 9371   6.701   8.730   3.829 -0.4491  0.2043 -0.2049
 9372W        W 9372   6.348   2.596   3.300  0.1594  0.1853  0.1240
 9373W        W 9373   8.681   6.486   4.972  0.0393 -0.0055 -0.1275
 9374W        W 9374   5.570   2.421   1.261  0.1904 -0.1238 -0.0033
 9375W        W 9375   6.974   1.817   5.464  0.1241  0.1156  0.2674
 9376W        W 9376  10.028   4.764   4.573  0.0948  0.1121 -0.0572
 9377W        W 9377   9.886   8.629   7.474 -0.3342 -0.0423  0.0475
 9378W        W 9378   9.255   4.620   7.127  0.0608 -0.0994 -0.2548
 9379W        W 9379   4.756   6.608   6.886 -0.0279  0.0184 -0.2788
 9380W        W 9380   2.692   6.998   2.099 -0.2057 -0.0586 -0.2562
 9381W        W 9381  10.153   0.709   4.128  0.3811 -0.3816 -0.1287
 9382W        W 9382   4.884   3.212   1.780  0.2225  0.3201  0.0420
 9383W        W 9383   2.779   7.720   4.172  0.0472  0.0783 -0.3481
 9384W        W 9384   1.850   5.410   3.289 -0.0210 -0.0664  0.1851
 9385W        W 9385   6.183   3.983   8.062  0.0350 -0.2829 -0.2029
 9386W        W 9386   0.497   9.088   6.716 -0.1267  0.1652 -0.2603
 9387W        W 9387   3.773   4.602  10.048  0.1828 -0.0004 -0.0959
 9388W        W 9388  10.027   8.223   8.680 -0.0287  0.1317  0.0389
 9389W        W 9389   9.120   4.456   1.316 -0.3791  0.0974  0.1575
 9390W        W 9390   0.695   2.261   6.960  0.0155 -0.0917  0.0885
 9391W        W 9391   5.489   6.286   0.800  0.1867  0.0174 -0.3398
 9392W        W 9392   3.466   0.775   3.143 -0.0299 -0.2331  0.3680
 9393W        W 9393   8.084   7.062   5.810 -0.0604 -0.2275  0.0240
 9394W        W 9394   7.895   3.373   3.281 -0.1223 -0.1090 -0.1789
 9395W        W 9395   1.356   7.196   6.537 -0.1210  0.2977 -0.1546
 9396W        W 9396   9.072   3.263   0.121 -0.3991 -0.1022 -0.1236
 9397W        W 9397   3.322   7.616   9.493  0.1149 -0.0369 -0.0350
 9398W        W 9398   4.219   6.934   6.495  0.5411  0.1946  0.2309
 9399W        W 9399   6.535   8.649   6.248  0.1219 -0.1743 -0.1201
 9400W        W 9400   3.269   4.331   6.667 -0.2537  0.2905 -0.0913
 9401W        W 9401   3.867   8.315   7.857  0.1936 -0.1948 -0.1294
 9402W        W 9402   2.234   3.079   9.037 -0.2018  0.1248 -0.0362
 9403W        W 9403   2.519   4.302   8.878  0.1679 -0.2927  0.0169
 9404W        W 9404   9.868   8.383   4.501 -0.0148 -0.2938  0.5115
 9405W        W 9405   1.123   8.489   7.580  0.2403 -0.1489 -0.2047
 9406W        W 9406   9.918   7.068   4.371  0.1432  0.0582 -0.0036
 9407W        W 9407   0.594   2.948   9.143 -0.0703  0.0426 -0.0288
 9408W        W 9408   0.698   6.964   0.380  0.0346  0.1827  0.1933
 9409W        W 9409   0.593   6.847   9.614 -0.3056  0.1172  0.0014
 9410W        W 9410   7.280   2.135   4.430  0.2940 -0.0031 -0.0937
 9411W        W 9411   8.306   4.186   0.913 -0.0767 -0.2504  0.1253
 9412W        W 9412   0.030   0.774   8.224  0.2788  0.1243  0.2371
 9413W        W 9413   8.015   2.047   0.508 -0.0517 -0.3837 -0.0567
 9414W        W 9414   7.041   7.227   4.218  0.0582 -0.1041 -0.3248
 9415W        W 9415  10.256   4.083   8.933 -0.1754 -0.1197  0.0910
 9416W        W 9416   4.209   4.116   8.354  0.0764 -0.2500  0.1067
 9417W        W 9417   0.400   9.924   8.828  0.2161  0.3669 -0.0020
 9418W        W 9418   7.523   2.746   2.188  0.0470 -0.1331  0.3414
 9419W        W 9419   4.526   5.877   1.451  0.2378 -0.5345  0.0936
 9420W        W 9420   2.366   3.999   1.139  0.1280  0.4705 -0.2178
 9421W        W 9421   8.559   2.945   5.450  0.1168  0.2519 -0.1183
 9422W        W 9422   0.503   3.999   6.324 -0.2243  0.0903  0.2213
 9423W        W 9423   8.028   8.615   6.202  0.2113 -0.2323 -0.0192
 9424W        W 9424   9.935   4.141   0.038 -0.0213  0.1255 -0.2951
 9425W        W 9425   7.829   9.257   6.176  0.0721  0.1013 -0.0972
 9426W        W 9426   0.733   5.781   6.720 -0.1534 -0.0863 -0.1404
 9427W        W 9427   2.791   9.764  10.074  0.1941 -0.2354 -0.0321
 9428W        W 9428   9.569   2.910   3.117 -0.0465  0.0099 -0.0948
 9429W        W 9429   8.124   8.150   9.800 -0.0928  0.2608 -0.0540
 9430W        W 9430   1.544   4.073   5.466  0.1335 -0.0459 -0.0707
 9431W        W 9431   5.368   9.556   8.603 -0.2274 -0.0401 -0.1619
 9432W        W 9432   7.468   6.746   3.019 -0.0491 -0.0858  0.0075
 9433W        W 9433   5.812   9.127   2.826  0.2351  0.2883  0.1885
 9434W        W 9434   9.182   9.074   2.673  0.1527  0.2897  0.0176
 9435W        W 9435   9.334   0.638   1.086  0.1918  0.1617  0.0892
 9436W        W 9436   7.230   0.886   7.369  0.0018  0.0944 -0.2202
 9437W        W 9437   0.011   8.550   1.751 -0.2241 -0.0430 -0.0299
 9438W        W 9438   7.087   5.991   7.083  0.1027 -0.4958 -0.2315
 9439W        W 9439   7.055   5.342   5.809  0.1366  0.1189  0.0136
 9440W        W 9440   1.223   3.557   4.954 -0.1523 -0.2107  0.1160
 9441W        W 9441   9.731   0.366   8.463  0.3603  0.0481 -0.0478
 9442W        W 9442   8.210   9.249   3.510 -0.0436  0.1192 -0.1458
 9443W        W 9443   7.034   5.304   4.604  0.0008 -0.1338  0.2304
 9444W        W 9444   7.156   0.003   8.376  0.0591  0.1450 -0.0004
 9445W        W 9445   2.735   5.714   1.336 -0.3579  0.0169  0.4028
 9446W        W 9446   0.219  10.227   3.136  0.0873 -0.1864 -0.0872
 9447W        W 9447   4.783   9.873   3.358  0.0210  0.1442 -0.3149
 9448W        W 9448   1.302  10.001   4.396 -0.3691 -0.0489  0.0488
 9449W        W 9449   1.625   7.615   5.396 -0.0884 -0.0424 -0.2856
 9450W        W 9450   3.745   7.182   6.880 -0.3430  0.0030 -0.0687
 9451W        W 9451   9.124   4.656   4.811 -0.3559  0.3267  0.0290
 9452W        W 9452   5.093   0.522   5.412  0.1786 -0.1600 -0.0643
 9453W        W 9453   9.960   3.976   6.993  0.1710  0.1457 -0.0893
 9454W        W 9454   6.588   0.578   8.696  0.0924  0.0963 -0.2787
 9455W        W 9455   5.778   7.089   4.511 -0.0576  0.2066  0.0095
 9456W        W 9456   3.353  10.159   5.956  0.1263 -0.2632  0.0063
 9457W        W 9457   3.779   0.074   2.062 -0.0902  0.0183  0.2744
 9458W        W 9458   0.064   9.007   4.140  0.0681  0.0610  0.2726
 9459W        W 9459   5.474   7.882   7.593  0.1771  0.0683  0.2382
 9460W        W 9460   7.967   5.245   8.884  0.3689 -0.2255  0.3943
 9461W        W 9461   3.882   7.519   8.269 -0.0517  0.1502  0.0256
 9462W        W 9462   9.117   0.898   7.441  0.0628 -0.3908 -0.2074
 9463W        W 9463   6.646   1.602   6.307  0.1048 -0.5723  0.0037
 9464W        W 9464   2.708   4.047   6.009 -0.0377 -0.5206  0.3233
 9465W        W 9465   6.531   1.874   4.819 -0.2612  0.3749  0.4189
 9466W        W 9466   2.877   6.332   4.111  0.3081 -0.0878  0.0712
 9467W        W 9467   2.822   6.667   1.570 -0.2967 -0.3723 -0.1102
 9468W        W 9468   4.606   2.485   2.531  0.0100 -0.0919  0.3092
 9469W        W 9469   0.631   0.066   5.376  0.1105  0.1700 -0.2167
 9470W        W 9470   3.112   9.095   4.734  0.1328  0.0174 -0.0829
 9471W        W 9471   7.717   5.826   3.996 -0.0787 -0.2173  0.2310
 9472W        W 9472   9.562   6.633   0.451  0.1822 -0.1820 -0.0505
 9473W        W 9473   2.099   1.386   1.390 -0.0365  0.2173  0.1255
 9474W        W 9474   5.048   1.887   7.278  0.2563  0.1723 -0.1438
 9475W        W 9475   7.303   0.190   3.845 -0.1057 -0.0572  0.2453
 9476W        W 9476   5.745   1.857   6.809 -0.0279  0.0727  0.4897
 9477W        W 9477   8.946   6.500   6.863 -0.0868 -0.1803  0.0564
 9478W        W 9478   7.334   7.252   3.812  0.1891  0.1220 -0.0347
 9479W        W 9479   5.204   6.959   7.510 -0.2584  0.4025  0.1750
 9480W        W 9480   7.530   6.309   9.871 -0.0994 -0.1183 -0.0914
 9481W        W 9481   7.104   3.742   1.278 -0.0122 -0.0330  0.2534
 9482W        W 9482   6.095   8.497   6.423  0.1894 -0.1182 -0.0154
 9483W        W 9483   9.538   2.098   2.415  0.1054  0.0401  0.0514
 9484W        W 9484   8.839   0.765   1.185  0.1578  0.4624  0.0349
 9485W        W 9485   5.754   1.946   9.745 -0.2690  0.0537  0.0382
 9486W        W 9486   6.335   8.799   0.823  0.2451 -0.0652 -0.4416
 9487W        W 9487   6.478   8.263   3.068  0.1745 -0.1304 -0.1150
 9488W        W 9488   5.877  10.218  10.098  0.1364  0.0691  0.0324
 9489W        W 9489   0.027   2.168   1.300 -0.0455 -0.0299  0.2001
 9490W        W 9490   8.431   3.511   9.789  0.1595 -0.3435 -0.0809
 9491W        W 9491   6.020   6.184  10.284  0.0940 -0.0289 -0.3549
 9492W        W 9492   7.188   4.625   8.181 -0.0933  0.0988 -0.2304
 9493W        W 9493   8.678   6.402   4.437 -0.4714  0.2679  0.2026
 9494W        W 9494   7.964   7.926   0.448  0.1116 -0.1681  0.0959
 9495W        W 9495   0.646   2.843   3.749 -0.3929  0.1389  0.1160
 9496W        W 9496   9.091   3.779   3.123  0.0659 -0.0617 -0.3359
 9497W        W 9497   2.978   5.196   5.518  0.0954 -0.0357 -0.0208
 9498W        W 9498   7.285   5.329   2.474 -0.0195 -0.0309 -0.0736
 9499W        W 9499   6.397   5.065   7.887  0.0272 -0.2079  0.0779
 9500W        W 9500   2.906   0.465   3.426  0.0700  0.2037  0.0920
 9501W        W 9501   9.612   5.277   0.203 -0.3108 -0.0811 -0.1258
 9502W        W 9502   0.767   9.817   4.487  0.0607  0.1747  0.0679
 9503W        W 9503   3.813   7.791   0.728 -0.0703 -0.1592 -0.0177
 9504W        W 9504   8.846   7.323   2.995 -0.2751 -0.1226 -0.0133
 9505W        W 9505   0.347   2.530   5.199 -0.0539  0.2706 -0.1419
 9506W        W 9506  10.240   7.969   2.429  0.0941  0.0802 -0.0574
 9507W        W 9507   8.630   4.931   4.641  0.0161 -0.2030 -0.2004
 9508W        W 9508   8.849   1.199   3.971  0.0428 -0.0455 -0.1310
 9509W        W 9509   2.761   5.496   0.364 -0.0604  0.0013  0.0585
 9510W        W 9510   5.273   1.448   5.523  0.0289 -0.0169 -0.2245
 9511W        W 9511   2.547  10.262   4.918 -0.3119  0.0879  0.0011
 9512W        W 9512   8.051   7.359   1.248  0.3142 -0.0419 -0.0578
 9513W        W 9513   3.833   1.600   7.778 -0.1792 -0.3941  0.2368
 9514W        W 9514   6.057   4.859   2.297  0.0755 -0.0948  0.2355
 9515W        W 9515   1.424   1.535   6.143  0.1357 -0.0641  0.1572
 9516W        W 9516   7.194   7.791   1.297 -0.0093  0.1508  0.2142
 9517W        W 9517   6.960   1.651   7.246  0.1819 -0.0449  0.2696
 9518W        W 9518   5.256   5.311   6.246  0.0477  0.0906 -0.1288
 9519W        W 9519   8.248   1.294   9.995  0.0315 -0.5222 -0.0021
 9520W        W 9520   6.852   8.820   0.376 -0.0369 -0.3363 -0.0134
 9521W        W 9521   7.870   7.395  10.200  0.1897 -0.0777  0.1159
 9522W        W 9522   8.230   3.943   0.334 -0.0594  0.1357  0.0905
 9523W        W 9523   7.259   3.837   0.110 -0.2332 -0.0751  0.2577
 9524W        W 9524   3.132   6.998   1.831  0.0008 -0.1414  0.0739
 9525W        W 9525   3.448   2.553   7.864  0.1929 -0.0610  0.0184
 9526W        W 9526   7.456   1.259   2.185  0.1152  0.4510 -0.1018
 9527W        W 9527   4.379   8.962   9.521 -0.0425  0.0378 -0.0526
 9528W        W 9528   1.280   9.359   7.016  0.1698 -0.2064 -0.0284
 9529W        W 9529   5.313   4.308   0.856 -0.2270 -0.2194  0.2008
 9530W        W 9530   5.988   5.006   8.763 -0.0012 -0.2200 -0.0422
 9531W        W 9531   6.282   5.693   7.403 -0.1541 -0.0507  0.1879
 9532W        W 9532  10.205   5.000   5.547 -0.3054 -0.1147 -0.2551
 9533W        W 9533   2.768   7.980   5.561 -0.0606  0.1132 -0.0712
 9534W        W 9534   3.486   8.759  10.273  0.3646  0.4394  0.2986
 9535W        W 9535   6.369   4.356   4.757  0.0450  0.1712 -0.1294
 9536W        W 9536   1.141   1.158   8.211  0.2354  0.0241  0.1370
 9537W        W 9537   0.469   4.474   6.656 -0.0336 -0.1031 -0.0138
 9538W        W 9538   2.351   9.069   0.023  0.1022 -0.2430 -0.1108
 9539W        W 9539   7.216   3.091   7.721 -0.1143  0.0170 -0.1906
 9540W        W 9540   0.748   7.844   7.095 -0.4225 -0.0891  0.0624
 9541W        W 9541   0.687   5.414   7.071  0.0763 -0.1634  0.1032
 9542W        W 9542   6.044   6.773   3.004  0.1195 -0.0438 -0.0196
 9543W        W 9543   6.807   1.823   3.063 -0.1701  0.1114  0.0183
 9544W        W 9544   2.601   8.276   5.240  0.3788 -0.2237  0.0911
 9545W        W 9545   2.663   0.086   9.172  0.0600  0.1236 -0.2928
 9546W        W 9546   7.799   1.897   5.890 -0.5323 -0.0800 -0.0367
 9547W        W 9547   6.675   0.053   7.942 -0.0659 -0.0929 -0.2592
 9548W        W 9548   9.068   7.751   6.180  0.0316  0.1617  0.0236
 9549W        W 9549   3.594   0.343   6.972 -0.1860 -0.1871 -0.0619
 9550W        W 9550   0.801   4.248   9.189  0.0767  0.0645  0.2039
 9551W        W 9551   6.347   8.958   9.549 -0.2991 -0.1662  0.1248
 9552W        W 9552   8.118   5.396   3.534  0.2929  0.1545  0.1502
 9553W        W 9553   8.855   6.211   7.687 -0.1303 -0.0830  0.1897
 9554W        W 9554   8.226   7.071   4.336  0.1237  0.4939  0.0344
 9555W        W 9555   2.168   9.748   5.721  0.1316 -0.1798 -0.2812
 9556W        W 9556  10.058   8.372   5.440  0.0757  0.1817  0.2217
 9557W        W 9557   3.891   9.247   2.036 -0.0175  0.2504  0.2138
 9558W        W 9558   3.754   1.509   4.794  0.2407  0.0199 -0.0046
 9559W        W 9559   9.066   4.392   4.312 -0.2610 -0.0389  0.0226
 9560W        W 9560   0.812  10.288   1.439 -0.0475  0.1126 -0.0124
 9561W        W 9561   3.461   8.088   2.245  0.0633  0.2956  0.2455
 9562W        W 9562   0.421  10.266   2.256  0.0162  0.2407  0.0012
 9563W        W 9563   4.623   2.027   2.885 -0.1028  0.1082  0.0933
 9564W        W 9564   4.187   1.664   7.403 -0.1866 -0.3595  0.0822
 9565W        W 9565   3.085   1.481   3.286  0.0140 -0.2807 -0.0412
 9566W        W 9566   9.298  10.127   0.984  0.3222  0.0559 -0.0083
 9567W        W 9567   7.943   4.304   1.652 -0.1791 -0.1835  0.2988
 9568W        W 9568  10.129   3.743   1.876  0.1627 -0.3726  0.2829
 9569W        W 9569   8.975   4.091   5.808  0.0928 -0.2111  0.1818
 9570W        W 9570   7.369   0.267   9.748  0.0175  0.1157  0.3746
 9571W        W 9571   7.691   9.480   0.772  0.2509  0.1560 -0.1392
 9572W        W 9572   3.652   5.457   4.842 -0.1925  0.0252  0.2182
 9573W        W 9573   1.153   6.830   9.642  0.1871 -0.0639 -0.1194
 9574W        W 9574   6.866   6.102   0.241 -0.1243 -0.0923 -0.2029
 9575W        W 9575   6.908   8.614   8.741 -0.3837  0.1092  0.0217
 9576W        W 9576   1.756   0.709   5.639  0.2786 -0.2316  0.0248
 9577W        W 9577   0.495   3.633  10.069  0.0156  0.1103 -0.1302
 9578W        W 9578   8.137   9.522   2.659  0.2452 -0.0236 -0.3191
 9579W        W 9579   4.075   3.305   5.597  0.5346 -0.3509 -0.1899
 9580W        W 9580   6.114   5.924   8.591  0.2404  0.1190 -0.2235
 9581W        W 9581   1.896   9.870   6.113  0.2367 -0.0610 -0.2267
 9582W        W 9582   0.179   5.915   9.162 -0.2882 -0.2400 -0.0190
 9583W        W 9583   3.491  10.038   2.137 -0.0801 -0.1257  0.0359
 9584W        W 9584   1.561  10.052   1.837 -0.1800 -0.1358  0.0609
 9585W        W 9585   4.531   5.739   4.895 -0.0256  0.2256 -0.2077
 9586W        W 9586   9.521   7.277   7.296  0.2058 -0.3460  0.1393
 9587W        W 9587   0.046   9.556   3.829 -0.1315  0.3036 -0.0260
 9588W        W 9588   1.765   7.473   3.053  0.0056  0.0383 -0.0372
 9589W        W 9589   5.398   1.030   7.154  0.0119 -0.1475 -0.0734
 9590W        W 9590   0.939   1.288   9.021 -0.2092  0.0375 -0.2091
 9591W        W 9591   2.021   4.754   2.424  0.0076 -0.0113 -0.0835
 9592W        W 9592   3.208   9.695   0.149 -0.0541  0.2675  0.0490
 9593W        W 9593   7.141   2.697   8.735  0.2622 -0.1842  0.0060
 9594W        W 9594   2.117   6.457   4.761  0.3304 -0.0598  0.0481
 9595W        W 9595   1.200   2.166   6.876  0.0958  0.0471 -0.2240
 9596W        W 9596   5.700   1.865   3.930 -0.1539  0.1193  0.2439
 9597W        W 9597   0.277   3.220   9.864  0.2391 -0.0435  0.1429
 9598W        W 9598   6.495   1.447   1.920 -0.2060  0.0595  0.0324
 9599W        W 9599   5.812   3.354   1.887 -0.1583  0.0043 -0.0974
 9600W        W 9600   3.459   7.117   6.011 -0.6800  0.0858  0.0964
 9601W        W 9601   4.738   8.864   8.731  0.0174  0.2107  0.3226
 9602W        W 9602  10.253   0.350   8.831  0.0039  0.0271  0.0377
 9603W        W 9603   2.311   1.411   4.518  0.2697  0.0130  0.0761
 9604W        W 9604   1.917   4.310   3.861  0.2023  0.0694 -0.1235
 9605W        W 9605   7.727   7.909   0.974  0.0116 -0.1361 -0.2131
 9606W        W 9606   8.207   1.701   0.062  0.1004  0.0624 -0.0735
 9607W        W 9607   1.194   7.544   7.961 -0.2497 -0.2681  0.0928
 9608W        W 9608   5.010   2.960   1.311 -0.0285  0.1191  0.3370
 9609W        W 9609   0.374   6.978   3.269 -0.1673 -0.3543  0.2563
 9610W        W 9610   3.951   7.232   7.463 -0.1663  0.4941 -0.1315
 9611W        W 9611   7.139   0.651   3.653 -0.1193 -0.2406  0.0127
 9612W        W 9612   6.016   7.309   4.906 -0.2700 -0.1544 -0.1413
 9613W        W 9613   1.742   0.920   7.745  0.0533 -0.2006  0.2700
 9614W        W 9614   5.639   7.479   4.182 -0.1308 -0.1208 -0.2442
 9615W        W 9615   9.456   0.890   9.993 -0.1146  0.2789 -0.1529
 9616W        W 9616   8.566   7.792   7.968  0.2078  0.1115  0.0426
 9617W        W 9617   3.417   5.028   2.472  0.0409 -0.1412  0.0890
 9618W        W 9618   5.445   7.231   4.931 -0.2137 -0.1905 -0.1345
 9619W        W 9619   3.436   4.940  10.244  0.5032  0.1233  0.0887
 9620W        W 9620   9.340   0.964   3.982 -0.0163  0.2717  0.2059
 9621W        W 9621   7.275   6.133   8.575  0.0562  0.1275 -0.2335
 9622W        W 9622   1.472   8.546   4.345  0.1746  0.1445  0.2035
 9623W        W 9623   0.673   5.711   9.942 -0.3259 -0.0405 -0.0868
 9624W        W 9624   0.681   0.933   5.799 -0.2339 -0.1890 -0.1369
 9625W        W 9625   6.504   6.596   7.353  0.3417  0.0819 -0.0833
 9626W        W 9626   2.461   1.679   9.504  0.0321 -0.2758  0.1942
 9627W        W 9627   7.213   5.822   0.426 -0.1116  0.1661  0.0990
 9628W        W 9628   4.007   4.587   1.403  0.2350 -0.1197 -0.0010
 9629W        W 9629  10.025   9.424   6.652  0.0788  0.0824 -0.0897
 9630W        W 9630   1.842   9.571  10.323  0.0562  0.1529  0.3001
 9631W        W 9631   0.214   0.524   0.611  0.2238  0.2020 -0.0115
 9632W        W 9632   5.529   7.754   8.875  0.3980 -0.1395  0.0425
 9633W        W 9633   6.212   1.756   5.256  0.0453 -0.2288 -0.0242
 9634W        W 9634   9.671   9.813   0.043 -0.0949 -0.2134 -0.1547
 9635W        W 9635   5.987   4.057   4.916  0.1126  0.2465  0.0917
 9636W        W 9636   1.360   9.952   6.543  0.0899 -0.0410 -0.0041
 9637W        W 9637  10.296   3.614   7.681 -0.0745 -0.1659 -0.1162
 9638W        W 9638   4.795   1.958   3.451 -0.0325 -0.2101 -0.1987
 9639W        W 9639  10.295   8.070   1.844  0.1894  0.0811 -0.0358
 9640W        W 9640   8.228  10.268   1.715 -0.2056  0.2678 -0.1284
 9641W        W 9641   2.288   3.998   0.037  0.0345 -0.1449  0.0449
 9642W        W 9642  10.334   5.128   9.682  0.1447 -0.1399 -0.1940
 9643W        W 9643   9.660   4.045   3.160 -0.0176  0.2820 -0.1829
 9644W        W 9644   4.816   0.587   5.916  0.0668  0.0004 -0.0275
 9645W        W 9645   2.686   6.971   3.021 -0.3349  0.0653  0.4221
 9646W        W 9646   4.953   0.192   9.983 -0.0297 -0.0429 -0.1013
 9647W        W 9647   3.376   1.578   5.194 -0.6931  0.0047  0.1141
 9648W        W 9648   6.490   5.690   3.012 -0.0810 -0.3073 -0.2754
 9649W        W 9649   5.728  10.034   1.279  0.1457  0.0823  0.0865
 9650W        W 9650   8.612   5.688   4.813 -0.0536  0.2491 -0.2680
 9651W        W 9651   1.960   4.128   3.340 -0.0422 -0.1340  0.4340
 9652W        W 9652   7.571   4.039   1.468 -0.1744  0.0351  0.1563
 9653W        W 9653   2.264   3.828   4.763 -0.0696  0.1182 -0.0926
 9654W        W 9654   4.930   3.753   6.717 -0.2095  0.1977 -0.2751
 9655W        W 9655   3.000   7.400   3.765 -0.0544  0.1629 -0.0132
 9656W        W 9656   9.436   4.695   7.877 -0.0017 -0.0648 -0.1363
 9657W        W 9657   8.764   8.618   6.682  0.2603  0.0389  0.3659
 9658W        W 9658   7.753   3.231   3.743  0.0405 -0.0332  0.0906
 9659W        W 9659   2.468   1.194   9.081  0.2971 -0.1294  0.1571
 9660W        W 9660   6.133   1.329   5.642  0.2274  0.0494 -0.2547
 9661W        W 9661   4.154   6.113   2.319 -0.2667 -0.0266  0.1597
 9662W        W 9662   5.368   7.487   2.786  0.0079 -0.0237  0.1807
 9663W        W 9663   5.886   0.315   5.894 -0.0430 -0.1448 -0.0486
 9664W        W 9664   9.082   1.919   2.545 -0.2239 -0.0750  0.1241
 9665W        W 9665   8.684   6.843   8.446 -0.2607  0.2852 -0.1017
 9666W        W 9666  10.104   7.164   0.338  0.1737  0.3625 -0.0585
 9667W        W 9667   8.236   8.635   6.706  0.0276  0.2227 -0.2032
 9668W        W 9668   6.045   4.990   5.299  0.4190 -0.2133  0.0896
 9669W        W 9669   0.345   5.325   2.989 -0.1158 -0.0375 -0.2539
 9670W        W 9670   8.934   6.902   5.158  0.0398 -0.0243 -0.4701
 9671W        W 9671   3.565   7.946   1.692 -0.3290  0.4055 -0.1586
 9672W        W 9672   6.634   4.807   0.298  0.1836  0.0182 -0.0627
 9673W        W 9673   5.199   3.083   5.363 -0.2092  0.2594  0.2062
 9674W        W 9674   5.067   3.393   9.628  0.0836 -0.1544 -0.0169
 9675W        W 9675   0.271   5.270  10.070 -0.3603 -0.4171 -0.1423
 9676W        W 9676   7.955   7.126   8.768 -0.1418  0.1524 -0.0677
 9677W        W 9677   7.361   2.188   1.470 -0.0319  0.0216 -0.0100
 9678W        W 9678   0.027   7.607   2.072 -0.2540  0.0646 -0.5109
 9679W        W 9679   9.554   3.722   7.746  0.2854  0.0476  0.1605
 9680W        W 9680   2.600   1.907   0.737 -0.3373  0.0168  0.2007
 9681W        W 9681   2.830   0.293   3.957 -0.1107  0.0694 -0.1037
 9682W        W 9682   4.446   1.528   1.766  0.2843  0.1219  0.2938
 9683W        W 9683   2.025   7.399   8.563  0.1465  0.0862  0.1737
 9684W        W 9684   9.477   2.514   1.312 -0.2633 -0.3292 -0.0080
 9685W        W 9685   3.388   7.634   3.974 -0.2714  0.1641 -0.1142
 9686W        W 9686   5.406   2.823   3.021 -0.1072 -0.0515 -0.0211
 9687W        W 9687  10.063  10.101   9.917 -0.1951 -0.0792  0.3015
 9688W        W 9688   2.307   3.109   1.963  0.1799  0.0093  0.1272
 9689W        W 9689   8.166   0.959   9.631 -0.0860 -0.0493 -0.1507
 9690W        W 9690   2.381   3.546   3.852  0.0668 -0.0471 -0.3518
 9691W        W 9691   4.964   5.462   2.204  0.2624 -0.3193  0.1336
 9692W        W 9692   9.994   1.338   6.353 -0.0595  0.2102  0.2555
 9693W        W 9693   3.841   9.700   4.668 -0.1977 -0.1293 -0.2628
 9694W        W 9694   8.189   6.613   3.375 -0.0153 -0.1722  0.0505
 9695W        W 9695  10.330   9.779   4.277  0.0226 -0.1260  0.0805
 9696W        W 9696   2.062   1.876   1.623  0.0204 -0.3180  0.0263
 9697W        W 9697   8.086   0.948   4.258  0.0948 -0.0209 -0.0877
 9698W        W 9698   6.847   3.515   4.993  0.1799  0.1378  0.2521
 9699W        W 9699   4.098   9.369   9.372 -0.2620  0.4420 -0.1953
 9700W        W 9700   1.384   6.879   1.058  0.0569 -0.0467  0.2923
 9701W        W 9701   6.821   4.444   8.884  0.3072  0.0413 -0.0819
 9702W        W 9702   8.149   1.787   3.591 -0.0133  0.0164  0.1863
 9703W        W 9703   1.681   8.493   5.004  0.0640 -0.2264  0.0321
 9704W        W 9704   0.119   8.398  10.039  0.0533  0.0664 -0.2484
 9705W        W 9705   7.153   4.131   3.294 -0.3436  0.1343 -0.2686
 9706W        W 9706   2.560   4.915   5.741  0.2899  0.0498 -0.1278
 9707W        W 9707   6.868   9.229   5.194  0.1245  0.0769 -0.2209
 9708W        W 9708   9.396   7.519   5.899 -0.0472  0.0780 -0.1310
 9709W        W 9709   5.098   0.955   5.759  0.0039  0.2746  0.4984
 9710W        W 9710   2.306   8.757   2.239  0.4039 -0.0494 -0.3038
 9711W        W 9711   9.615   6.095   5.240  0.3366 -0.2940 -0.1629
 9712W        W 9712   8.898   3.938   4.418  0.0388  0.1051 -0.0997
 9713W        W 9713   1.659   5.966   9.150  0.0424 -0.0070 -0.0707
 9714W        W 9714   9.746   1.502   4.948  0.1187 -0.1099  0.2491
 9715W        W 9715   9.599   0.535   1.879 -0.3605 -0.2095 -0.1986
 9716W        W 9716   6.230   6.875   0.855  0.3743  0.1683 -0.0022
 9717W        W 9717   4.653   6.734   5.927  0.1138  0.2185 -0.1397
 9718W        W 9718   0.160   0.059   0.309  0.1013  0.1208  0.0029
 9719W        W 9719   3.966   3.743   5.441  0.1862 -0.1460 -0.0448
 9720W        W 9720   3.615   8.143   4.191 -0.0057 -0.0017  0.0644
 9721W        W 9721   8.054   8.445   1.420 -0.1199  0.0789 -0.0327
 9722W        W 9722   4.178   7.326   9.020  0.1784 -0.3803  0.0082
 9723W        W 9723   9.072   1.396   2.307 -0.1935 -0.2203  0.0207
 9724W        W 9724  10.118   4.686   4.074  0.0142 -0.1205  0.2573
 9725W        W 9725   1.553   8.858   8.222 -0.1408 -0.0282  0.2102
 9726W        W 9726   2.306  10.257   1.369  0.1300 -0.0975 -0.2101
 9727W        W 9727   8.929   6.915   2.306  0.2998 -0.2057  0.0496
 9728W        W 9728   9.671   9.442   6.130 -0.1312  0.1702 -0.1279
 9729W        W 9729   4.827   0.003   3.148  0.1321 -0.1963  0.0932
 9730W        W 9730   4.799   8.888   1.450  0.2286  0.1696 -0.0834
 9731W        W 9731   3.685   8.701   7.593  0.2404  0.0099  0.2847
 9732W        W 9732   1.193   7.277   5.420 -0.2190 -0.0368 -0.0843
 9733W        W 9733   6.093   8.824   2.207 -0.1416  0.1787 -0.0432
 9734W        W 9734   2.934   9.621   2.712  0.1908 -0.1344 -0.0121
 9735W        W 9735   5.890   1.126   7.177 -0.1295 -0.1227 -0.2068
 9736W        W 9736   8.489   1.769   3.067 -0.4037  0.0779 -0.3757
 9737W        W 9737   4.452   3.165   4.690 -0.0502 -0.3237  0.1625
 9738W        W 9738   7.030   8.867   3.386  0.2204  0.2691  0.1980
 9739W        W 9739   3.394   1.106   7.140  0.2127  0.3456 -0.0006
 9740W        W 9740   4.528   0.433   9.749 -0.2744 -0.3824 -0.2044
 9741W        W 9741   9.937   6.157   6.226 -0.2465  0.0619 -0.3314
 9742W        W 9742   8.324   1.246   8.380  0.1122 -0.2037  0.0304
 9743W        W 9743   3.227   8.041   5.897 -0.0023  0.0576  0.3187
 9744W        W 9744   6.921   8.542   8.280  0.3108 -0.1431  0.1320
 9745W        W 9745   2.894   8.707   4.411  0.2244 -0.1673  0.2976
 9746W        W 9746   2.161   5.839   5.857 -0.0065 -0.1362  0.2782
 9747W        W 9747   0.284   4.697   8.521  0.2218 -0.0609  0.2456
 9748W        W 9748   5.537   2.470   9.693  0.0946  0.2847 -0.0061
 9749W        W 9749   0.478   9.637   6.589 -0.1261  0.0089 -0.0902
 9750W        W 9750   4.096   5.522   9.253  0.0363  0.1323  0.1106
 9751W        W 9751   7.091   3.635   8.546  0.0611  0.0371  0.0501
 9752W        W 9752   6.939   1.294   0.885  0.2121 -0.2319 -0.0297
 9753W        W 9753   0.341   8.611   6.851 -0.1284  0.0030  0.4565
 9754W        W 9754   6.799   3.575   2.172 -0.1396 -0.1397  0.2076
 9755W        W 9755   2.627   7.168   4.156  0.1792  0.0333  0.0317
 9756W        W 9756   5.284   9.901   3.469  0.0434 -0.3187  0.0185
 9757W        W 9757   2.104   0.084  10.043 -0.0700 -0.1873 -0.0392
 9758W        W 9758   0.690   5.742   9.166 -0.2596  0.0016  0.2001
 9759W        W 9759   5.687   8.555   3.486  0.1539 -0.4112 -0.3156
 9760W        W 9760   4.028  10.323   0.004  0.1469 -0.0485  0.1428
 9761W        W 9761   8.048   0.722   1.753  0.1850 -0.1294 -0.2574
 9762W        W 9762   9.228   6.208   5.978  0.0031 -0.1071 -0.1220
 9763W        W 9763   2.620   2.892   8.587  0.0806  0.1476  0.0180
 9764W        W 9764   9.224   7.218   2.718  0.0587 -0.0613  0.2632
 9765W        W 9765   7.995   5.413   4.034  0.2886  0.1719 -0.0920
 9766W        W 9766   7.648   1.717   0.732  0.0357  0.2067  0.0775
 9767W        W 9767   0.171   5.525   0.962  0.1171  0.1848  0.1899
 9768W        W 9768   7.503  10.258   2.862 -0.2475 -0.2373 -0.0003
 9769W        W 9769   8.979   4.878   1.074 -0.1618  0.0926  0.1201
 9770W        W 9770   7.158   3.395   9.370 -0.0769 -0.1923 -0.1075
 9771W        W 9771   3.978  10.301   3.075 -0.1132 -0.0427  0.0159
 9772W        W 9772   0.264   6.024   1.273  0.0221 -0.0622 -0.3359
 9773W        W 9773  10.201   9.163   0.411 -0.0679 -0.2069  0.2319
 9774W        W 9774   6.501   2.001   8.682  0.1574 -0.0256  0.3496
 9775W        W 9775   4.490   4.001   1.960 -0.2603 -0.2043 -0.0639
 9776W        W 9776   2.764   3.049   2.978 -0.0228  0.4324  0.2833
 9777W        W 9777   8.350   4.067   1.898  0.0485 -0.1203 -0.3463
 9778W        W 9778   2.057   6.133   0.071 -0.2004 -0.1604  0.0443
 9779W        W 9779   8.836   6.928   7.134  0.2094  0.1946 -0.1393
 9780W        W 9780   6.387   4.257   9.291 -0.2034 -0.0451 -0.1533
 9781W        W 9781   0.949   1.853   2.309 -0.4102  0.2401 -0.0816
 9782W        W 9782   6.650   5.637   8.590 -0.0258 -0.1526 -0.2520
 9783W        W 9783   4.617   6.764   5.040  0.1483 -0.0684 -0.1539
 9784W        W 9784   1.992   8.481   9.367  0.0861  0.1610  0.0383
 9785W        W 9785   8.326  10.061   4.940  0.0416  0.0327 -0.1795
 9786W        W 9786   4.222   8.095   7.491 -0.1078 -0.2732 -0.3750
 9787W        W 9787   8.699   6.124   9.031 -0.1499 -0.0373 -0.4262
 9788W        W 9788   3.993   6.741   0.135  0.1092  0.0937  0.0381
 9789W        W 9789   2.770   8.855   6.252  0.0366 -0.1873 -0.0437
 9790W        W 9790  10.159   9.828   4.844  0.2370  0.0983  0.2129
 9791W        W 9791   1.862   4.147   7.124 -0.0064 -0.3777 -0.3235
 9792W        W 9792   1.098   5.962   3.200  0.2711  0.0251 -0.0864
 9793W        W 9793   4.775   3.828   2.718 -0.2465  0.1028 -0.0408
 9794W        W 9794   9.079   6.094   0.712 -0.2330 -0.0249  0.0922
 9795W        W 9795   1.683   3.154  10.334  0.2364  0.0493  0.0436
 9796W        W 9796   3.259   1.771   2.902 -0.1426 -0.1648  0.0028
 9797W        W 9797   6.898   8.253   0.246  0.1157 -0.0100  0.0140
 9798W        W 9798   6.059   6.283   5.819 -0.1123 -0.1720  0.0644
 9799W        W 9799   4.477   4.197   5.944 -0.3088  0.0830  0.1576
 9800W        W 9800   0.841   9.216   2.012 -0.3199 -0.1541 -0.5421
 9801W        W 9801   0.721   7.859   6.546  0.1661 -0.1451 -0.2541
 9802W        W 9802   2.482   3.766   9.763 -0.3490 -0.0281  0.0329
 9803W        W 9803   5.282   4.682   2.737  0.0589  0.0626 -0.0152
 9804W        W 9804   6.084   7.600   2.962 -0.0080 -0.0222 -0.1463
 9805W        W 9805   5.657   8.248   8.566 -0.1415  0.0053 -0.0892
 9806W        W 9806   8.127   2.719   6.703  0.0886 -0.0881 -0.1356
 9807W        W 9807   5.979  10.328   5.428  0.0055 -0.0367 -0.2796
 9808W        W 9808   5.948   2.909   7.978  0.2968 -0.3256  0.1941
 9809W        W 9809   0.503   4.834   7.490  0.1398 -0.1260  0.0366
 9810W        W 9810   0.200   1.377   9.786 -0.2512  0.0002  0.1611
 9811W        W 9811   7.205   9.026   3.799 -0.1570 -0.1635  0.4786
 9812W        W 9812  10.088   2.710   1.409  0.0466 -0.1594 -0.0417
 9813W        W 9813   3.677   8.242   9.372  0.1754 -0.3316 -0.2507
 9814W        W 9814   0.740   4.373   8.586 -0.1327  0.0124 -0.1205
 9815W        W 9815   7.741   9.505   9.728 -0.1138  0.1290 -0.0084
 9816W        W 9816   6.090  10.092   5.980  0.1312  0.0150  0.0323
 9817W        W 9817   3.966   9.680   3.949  0.3800 -0.1597  0.0857
 9818W        W 9818   2.928   6.290   5.626 -0.2365  0.1807 -0.1616
 9819W        W 9819   9.643   7.994   9.584  0.1165 -0.1989  0.2313
 9820W        W 9820   8.442   9.592   2.184 -0.0670 -0.4443 -0.1900
 9821W        W 9821   1.241   0.942   7.781 -0.0982 -0.0229  0.0640
 9822W        W 9822   6.313   1.693   1.520 -0.2963  0.0880  0.1583
 9823W        W 9823   2.895   6.686   4.427 -0.1482  0.2391 -0.1955
 9824W        W 9824   1.450   3.660  10.193 -0.1494 -0.0857  0.3913
 9825W        W 9825   7.880   9.020   1.874  0.0818  0.1368 -0.0562
 9826W        W 9826   2.384   0.416   8.822 -0.2607 -0.0959 -0.1496
 9827W        W 9827   8.476   4.607   3.064  0.1135  0.0348 -0.3677
 9828W        W 9828   8.848   2.320   1.697 -0.2262 -0.2541 -0.0052
 9829W        W 9829   0.135  10.330   8.571  0.2267  0.4861 -0.0770
 9830W        W 9830   5.032   4.700   6.428 -0.1051 -0.1633  0.0129
 9831W        W 9831  10.185   3.604   4.566 -0.2490  0.1665 -0.1205
 9832W        W 9832   9.209   4.151   8.975  0.2206  0.2020 -0.0175
 9833W        W 9833   0.074   5.226   6.783 -0.2687  0.0818  0.0504
 9834W        W 9834   9.558   7.480   9.661  0.1655  0.0796  0.0959
 9835W        W 9835   1.366   8.495  10.118 -0.3250 -0.1529  0.2981
 9836W        W 9836   2.017   5.656   0.427 -0.2783 -0.0767 -0.3939
 9837W        W 9837   7.130   5.747   8.847  0.0775  0.1130  0.0651
 9838W        W 9838   7.457   6.604   3.790  0.5091  0.2137  0.0803
 9839W        W 9839   5.026   3.762   0.133 -0.1888 -0.1503  0.0538
 9840W        W 9840   7.181   4.084   2.813  0.0695 -0.1993 -0.2607
 9841W        W 9841   0.166   3.003   5.423 -0.2372  0.0281  0.0491
 9842W        W 9842   9.239   9.839   6.350  0.1037  0.2301 -0.0263
 9843W        W 9843   0.539   1.789   9.563  0.0093 -0.2756 -0.1499
 9844W        W 9844   3.145   3.227   4.257  0.2267  0.0400  0.1049
 9845W        W 9845  10.276   4.749   7.622 -0.1328 -0.0970 -0.2440
 9846W        W 9846   8.639   3.647   1.711 -0.2051 -0.1421  0.2162
 9847W        W 9847   5.365   8.412   3.995 -0.1695  0.0244  0.0947
 9848W        W 9848   5.088   2.491   1.129 -0.0571 -0.1108 -0.3543
 9849W        W 9849   3.855   8.385   0.722 -0.0517  0.0026  0.0033
 9850W        W 9850   7.047   7.381   4.797 -0.0077 -0.3393 -0.1782
 9851W        W 9851   1.404   4.775   2.763 -0.3507 -0.0879  0.2671
 9852W        W 9852   8.862   1.737   9.803 -0.0464 -0.3073  0.3089
 9853W        W 9853   0.000   1.994   2.292 -0.0040  0.1558  0.0152
 9854W        W 9854   6.408   5.174   4.516 -0.0903 -0.0087 -0.0109
 9855W        W 9855  10.015   6.475   3.748 -0.0233  0.1767 -0.0875
 9856W        W 9856   6.122   2.529   5.385 -0.0650 -0.0328  0.1694
 9857W        W 9857   4.115  10.034   3.486  0.0239 -0.0022  0.0497
 9858W        W 9858   9.224   1.593   8.788  0.1924 -0.2428  0.0820
 9859W        W 9859   7.786   4.004   9.200 -0.2687 -0.2060 -0.0546
 9860W        W 9860  10.237   3.457   8.166 -0.0292  0.2188 -0.3005
 9861W        W 9861   7.733   1.919   8.474  0.0218  0.3831  0.1591
 9862W        W 9862   5.184   1.983   4.632 -0.0683  0.1494 -0.1109
 9863W        W 9863   9.086   4.852   5.626 -0.0010  0.0204 -0.7143
 9864W        W 9864   2.198   3.063   3.597  0.1737  0.0431  0.0725
 9865W        W 9865   2.466   0.278   5.778  0.0172  0.1972  0.1595
 9866W        W 9866   6.685   6.821   1.627 -0.0923  0.0669  0.0491
 9867W        W 9867   0.953   0.746   5.220 -0.1391 -0.0719 -0.2645
 9868W        W 9868   7.261   7.904   9.412  0.2189  0.0479  0.0645
 9869W        W 9869   3.304   8.347   2.664  0.0740 -0.1314 -0.1717
 9870W        W 9870   9.512  10.327   5.721 -0.0510  0.0382 -0.0348
 9871W        W 9871  10.230   3.419   6.762 -0.0475 -0.1408  0.1630
 9872W        W 9872   8.401   8.096   4.207  0.0884 -0.2587  0.2279
 9873W        W 9873   3.131   4.666   0.259  0.0147 -0.3184  0.2787
 9874W        W 9874   2.254   2.138   9.516  0.0344  0.1053 -0.0405
 9875W        W 9875   0.325   9.241   8.139  0.0596 -0.1334 -0.1023
 9876W        W 9876   3.269   3.439   9.601  0.2057  0.2986 -0.0175
 9877W        W 9877   9.395   2.368   9.943  0.0503 -0.0986  0.1867
 9878W        W 9878   5.465   5.382   5.820  0.1203 -0.3377  0.1528
 9879W        W 9879   7.985   2.824   2.485  0.1809 -0.2843 -0.0811
 9880W        W 9880  10.286   0.628   7.159 -0.0969 -0.2757 -0.0624
 9881W        W 9881   0.477   5.051   4.736  0.0561  0.0594 -0.0028
 9882W        W 9882   9.401   2.153   7.738  0.0015  0.1295 -0.0881
 9883W        W 9883   6.756   3.273   2.560  0.1162  0.0251  0.0535
 9884W        W 9884   8.168   9.582   5.258 -0.3832  0.1976 -0.0095
 9885W        W 9885   8.673   7.311   4.410  0.0443 -0.2380 -0.1121
 9886W        W 9886   0.115   2.326   8.232 -0.0270  0.2409 -0.0462
 9887W        W 9887   6.209   6.235   7.102  0.2265  0.1833  0.0540
 9888W        W 9888   6.094   7.294   1.635  0.0355 -0.1356  0.1369
 9889W        W 9889   4.289   8.663   0.634  0.0662  0.2101 -0.1512
 9890W        W 9890   6.400   3.193   0.849 -0.2681 -0.1180 -0.1823
 9891W        W 9891   5.259   5.065   5.393 -0.0483 -0.0273  0.0433
 9892W        W 9892  10.194   1.929  10.183  0.1701 -0.1318  0.5336
 9893W        W 9893   1.586   9.967   8.319  0.1948 -0.1672  0.0491
 9894W        W 9894   0.883   1.908   7.805 -0.0130  0.1778  0.0572
 9895W        W 9895   9.982   7.931   1.500  0.0708  0.1384  0.4039
 9896W        W 9896   3.006   5.955   1.005 -0.0962 -0.1011  0.3079
 9897W        W 9897   0.762   8.454   7.907  0.2419  0.2362 -0.3420
 9898W        W 9898   6.412   1.080   8.694  0.1038  0.4295  0.2418
 9899W        W 9899   1.155   1.452  10.006 -0.0317 -0.2878  0.0218
 9900W        W 9900   0.959   2.835  10.016 -0.2110  0.2318  0.1268
 9901W        W 9901   6.079   2.073   8.940 -0.0272  0.1333  0.0332
 9902W        W 9902   2.358   6.872   7.597 -0.1672 -0.4498 -0.1532
 9903W        W 9903   1.036   9.844   3.145 -0.0972 -0.1095 -0.1632
 9904W        W 9904   7.710   7.126   5.028 -0.1260  0.0683 -0.0406
 9905W        W 9905   5.678   2.761  10.105 -0.0338  0.0370  0.1259
 9906W        W 9906   0.065   1.519   1.982 -0.0463 -0.0840 -0.2040
 9907W        W 9907   9.819   1.878   6.708 -0.1054  0.2728 -0.2928
 9908W        W 9908   8.115   8.537   7.230 -0.1131 -0.1115 -0.1973
 9909W        W 9909   0.477   0.520   9.251  0.0313 -0.1862  0.2624
 9910W        W 9910   3.717   2.017   2.907 -0.1959  0.1753  0.0142
 9911W        W 9911   1.226   2.096   3.796 -0.2543 -0.0230  0.2010
 9912W        W 9912   6.833   9.772   1.323 -0.0152  0.1464  0.0137
 9913W        W 9913   9.022   3.132   5.320  0.0714 -0.0560  0.0189
 9914W        W 9914   6.420   7.463   0.536 -0.0937 -0.1135  0.2803
 9915W        W 9915   6.451   9.226   6.011  0.3340 -0.1465  0.1187
 9916W        W 9916   8.691   6.685   7.622  0.0895 -0.0261  0.1115
 9917W        W 9917   4.434   2.553   3.104 -0.1026 -0.1807 -0.1927
 9918W        W 9918   8.813   3.015   8.533 -0.2287 -0.0907 -0.0363
 9919W        W 9919   7.554   2.040   2.495 -0.1463  0.0049 -0.2088
 9920W        W 9920   3.983   1.134   4.964  0.0261 -0.2218  0.1089
 9921W        W 9921  10.295   7.795   1.040  0.1814 -0.0089 -0.0581
 9922W        W 9922   1.578   7.364   3.905  0.2830 -0.1092  0.0180
 9923W        W 9923   6.767   4.767   4.371  0.1698  0.3690 -0.3892
 9924W        W 9924   1.018   9.896   4.012  0.0985  0.0109 -0.1055
 9925W        W 9925   8.614   1.091   2.420 -0.0708  0.1536 -0.3181
 9926W        W 9926   9.742   4.668   2.814 -0.4586 -0.1401  0.2506
 9927W        W 9927   1.802   8.488   5.810  0.0648  0.2142 -0.1540
 9928W        W 9928   6.808   7.114   9.308  0.3397 -0.1328  0.3112
 9929W        W 9929   3.246   3.214   8.322  0.0660 -0.1730  0.1068
 9930W        W 9930   0.820  10.050   3.620  0.2475  0.0225 -0.0936
 9931W        W 9931   0.260   1.443   6.628 -0.0423 -0.0844 -0.0716
 9932W        W 9932   4.477   4.226   7.433 -0.0026  0.3279 -0.0352
 9933W        W 9933   7.767   1.375   3.279  0.1749  0.0930  0.1154
 9934W        W 9934   3.936   7.344  10.248  0.3350 -0.0109 -0.0919
 9935W        W 9935   1.358   0.291   9.452 -0.1832 -0.1225  0.0904
 9936W        W 9936   2.088   7.472   0.729  0.1028  0.3759 -0.1154
 9937W        W 9937   0.814   0.949   0.876 -0.0997  0.0717  0.0209
 9938W        W 9938   5.514   1.757   8.412  0.0218  0.3183  0.1169
 9939W        W 9939   6.734   4.063   7.806  0.2217 -0.0242 -0.1031
 9940W        W 9940   4.947   5.180   0.469 -0.1308  0.0103 -0.1498
 9941W        W 9941   4.277   1.092   1.441 -0.0102  0.0097  0.2502
 9942W        W 9942   9.583   0.485   6.661 -0.1197 -0.0785  0.0525
 9943W        W 9943   6.706   6.419   2.431  0.1276  0.0109  0.2113
 9944W        W 9944   2.066   1.268   6.890  0.3845 -0.0312  0.0957
 9945W        W 9945   1.979   1.198   2.812  0.2048 -0.1125  0.1638
 9946W        W 9946   6.747   6.750   6.181  0.2743 -0.0855  0.0817
 9947W        W 9947   8.675   3.036   6.275  0.2294 -0.0104 -0.4187
 9948W        W 9948   6.356   7.123   5.869  0.1256  0.0548 -0.2784
 9949W        W 9949   1.000   6.217  10.019  0.1169 -0.0786 -0.1895
 9950W        W 9950   7.018   6.555   4.888 -0.3383  0.0463 -0.0739
 9951W        W 9951   6.544   5.065   9.737 -0.1019  0.0334  0.0523
 9952W        W 9952   7.040   4.351   5.658 -0.0218 -0.0596 -0.0757
 9953W        W 9953   1.183   6.047   2.263 -0.1710 -0.2100  0.3293
 9954W        W 9954   8.315   5.608   0.977 -0.0298 -0.0458 -0.0590
 9955W        W 9955   8.468   0.139   4.586  0.1034  0.3913  0.0171
 9956W        W 9956   8.348   4.705   0.875  0.1235  0.0614  0.2164
 9957W        W 9957   9.814   6.357   7.392 -0.0192 -0.1774  0.0109
 9958W        W 9958   2.340   8.833   1.182  0.1610  0.2205 -0.1215
 9959W        W 9959   4.410   4.804   3.328  0.0769 -0.0928  0.2425
 9960W        W 9960   3.135   1.787   9.873 -0.1087 -0.4014 -0.4566
 9961W        W 9961   6.362   3.654   9.096  0.0294 -0.0109 -0.1308
 9962W        W 9962   5.857   4.417  10.118 -0.2566 -0.0637 -0.0945
 9963W        W 9963   0.558   8.835   3.476 -0.0791  0.1534  0.1072
 9964W        W 9964   2.350   0.210   4.265 -0.1378  0.0843  0.0529
 9965W        W 9965   6.888   9.036   1.768  0.0827 -0.0512 -0.1999
 9966W        W 9966   5.839   1.918   6.273  0.1745  0.0890  0.1139
 9967W        W 9967   5.476   9.385   3.418  0.1780 -0.2947 -0.2163
 9968W        W 9968   3.012   0.758   2.116 -0.3420 -0.1527  0.0810
 9969W        W 9969   0.442   4.413   2.396 -0.0812  0.1342 -0.0621
 9970W        W 9970   8.169   4.966   4.945  0.0273 -0.1251  0.0384
 9971W        W 9971   5.037   7.674   5.671  0.2641 -0.2394 -0.1846
 9972W        W 9972   5.207   7.047   9.880 -0.3843  0.2978 -0.2145
 9973W        W 9973   8.950   6.992   8.060  0.4035 -0.0111  0.1280
 9974W        W 9974  10.315   2.135   7.774  0.0369  0.0023 -0.1450
 9975W        W 9975   4.854   2.402   7.128 -0.7303 -0.0513 -0.4943
 9976W        W 9976   9.272   1.397   5.643  0.1026  0.0224 -0.0014
 9977W        W 9977   7.276   8.707   0.023  0.0814  0.1255  0.0291
 9978W        W 9978   5.631   5.618   1.311  0.2073  0.1520 -0.0196
 9979W        W 9979  10.131   3.365   9.662 -0.0038 -0.0596  0.0244
 9980W        W 9980   9.775   3.965   9.186 -0.1883  0.0316  0.0806
 9981W        W 9981   2.387   5.044   6.391  0.1823  0.2098  0.0614
 9982W        W 9982   9.451   6.380   7.043  0.0339  0.4136 -0.2491
 9983W        W 9983   0.260   4.013   6.766 -0.3469 -0.1360  0.2083
 9984W        W 9984   1.001   6.779   2.012 -0.1076 -0.1647 -0.0178
 9985W        W 9985   1.087   0.577   0.758  0.2421  0.1962  0.1215
 9986W        W 9986   0.728   5.491   8.027  0.2712  0.6712 -0.0006
 9987W        W 9987   3.356   6.544   7.534 -0.0511 -0.1758  0.1787
 9988W        W 9988   5.865   3.154   5.260 -0.2846  0.1519 -0.4101
 9989W        W 9989   0.471   1.952   3.032 -0.0860  0.1494 -0.2147
 9990W        W 9990   9.426   8.580   7.301 -0.2217  0.1215 -0.1700
 9991W        W 9991   0.598   0.210  10.094  0.1325  0.2880  0.1113
 9992W        W 9992   5.182   4.155   3.364  0.0831 -0.0040  0.0526
 9993W        W 9993   2.464   4.530   7.597 -0.1989  0.0244  0.0645
 9994W        W 9994   0.659  10.063   8.418  0.0697 -0.2610 -0.0426
 9995W        W 9995   5.936   2.405   3.015 -0.2701  0.3453 -0.0291
 9996W        W 9996   0.169   6.784   7.701 -0.0829 -0.2082  0.0513
 9997W        W 9997   3.222   3.218   3.364 -0.0426  0.1605  0.1432
 9998W        W 9998   1.251   1.579   3.886 -0.1686 -0.0459  0.0541
 9999W        W 9999   6.646   7.745   6.371  0.0359 -0.1926  0.2842
10000W        W10000   8.953   8.427   1.221 -0.1613  0.0671 -0.2771
10001W        W10001   0.636   0.318   6.668  0.5077  0.0055  0.5977
10002W        W10002   3.239   0.711   5.186 -0.0091  0.2514 -0.1753
10003W        W10003   4.180  10.336   0.905  0.2148  0.0059  0.1671
10004W        W10004   9.503   8.425   6.663 -0.0531  0.0042 -0.0510
10005W        W10005   7.867   9.902   2.824 -0.0171 -0.2038  0.1676
10006W        W10006   0.341   5.143   1.839 -0.1078  0.1813 -0.0742
10007W        W10007   3.769   8.405   1.851 -0.0461 -0.2975  0.0572
10008W        W10008   5.303   4.014   8.447  0.0865  0.2416  0.2498
10009W        W10009   4.217   5.445   1.587  0.0891 -0.1953 -0.0062
10010W        W10010   8.916   5.718   4.294  0.0704  0.3724  0.1378
10011W        W10011   2.930   6.543   2.054  0.1680 -0.0291  0.0585
10012W        W10012   5.453   5.344   9.554 -0.0674  0.2157 -0.2361
10013W        W10013   1.645  10.331   5.723  0.1996 -0.4261 -0.0950
10014W        W10014   0.522   2.167   6.038 -0.2230 -0.2356  0.0795
10015W        W10015   9.879   9.616   2.257  0.2417 -0.2740 -0.0154
10016W        W10016   5.988   3.674   0.562  0.0396 -0.2096 -0.3130
10017W        W10017   6.383   2.898   5.965 -0.0806  0.1643  0.2980
10018W        W10018   9.734   6.122   0.880 -0.1326  0.1417  0.1231
10019W        W10019   1.036   9.256   5.967  0.0049 -0.0025  0.0535
10020W        W10020   5.103   1.894   0.567  0.0868  0.0612  0.3443
10021W        W10021   6.976   5.358   3.786 -0.2119 -0.1460  0.0294
10022W        W10022   5.872   1.457   9.324  0.0255  0.2518  0.1240
10023W        W10023   3.218   2.010   0.845 -0.0464 -0.4261 -0.2145
10024W        W10024   3.161   5.525   7.710  0.0187 -0.1171 -0.1314
10025W        W10025   8.373   1.305   7.898  0.0785 -0.0507 -0.3186
10026W        W10026   8.760   4.208   2.117 -0.2764 -0.3054 -0.2985
10027W        W10027   4.738   4.861   3.720  0.1460 -0.0809  0.2146
10028W        W10028   6.042   3.385   8.121  0.2168 -0.1969 -0.2094
10029W        W10029   5.491   0.589   5.763 -0.0668 -0.2243 -0.0078
10030W        W10030   7.285   2.215   0.899 -0.2766 -0.1709  0.0762
10031W        W10031   2.418   2.966   0.572 -0.1846 -0.1276 -0.0694
10032W        W10032   5.885   3.205   0.842  0.0140  0.1084 -0.1584
10033W        W10033   3.256   2.041   2.456  0.1849  0.2220  0.1790
10034W        W10034   6.072   6.595   6.181 -0.0216  0.1261 -0.1916
10035W        W10035   0.847   4.141   8.181 -0.0098 -0.1318  0.0687
10036W        W10036   0.697   8.942   8.004 -0.0870  0.1505 -0.2049
10037W        W10037   6.503   4.684   3.739 -0.0176  0.1375 -0.2231
10038W        W10038   0.516   8.445   0.004  0.0247 -0.0426  0.0521
10039W        W10039   3.795   4.011   2.881 -0.0693  0.1331 -0.0737
10040W        W10040   3.644   2.712   4.907 -0.0002 -0.0330 -0.0155
10041W        W10041   8.679   8.771   8.478  0.2279 -0.1486  0.2751
10042W        W10042   6.543   3.939   9.653 -0.0213 -0.3376 -0.1288
10043W        W10043   2.312   0.912   4.463  0.1507 -0.1645  0.2650
10044W        W10044   7.697   6.918   5.530  0.1822  0.0342  0.1118
10045W        W10045   5.703   0.293   8.139  0.1875  0.1463  0.1113
10046W        W10046   8.495   4.254   7.705 -0.1807  0.1774  0.3521
10047W        W10047   9.834   9.324   1.690  0.2938 -0.0944  0.0026
10048W        W10048   0.543   5.439   6.090 -0.0280 -0.0767 -0.1147
10049W        W10049   7.289   9.566   1.714 -0.0691  0.3325 -0.1384
10050W        W10050   4.209   4.225   0.982  0.1842  0.3521 -0.0298
10051W        W10051  10.257   2.807   5.040  0.0234 -0.0596  0.3922
10052W        W10052   1.438   2.786   0.982  0.3311 -0.1634  0.2702
10053W        W10053   6.558   7.214   6.302  0.2364  0.0690  0.4367
10054W        W10054   0.530   6.790   1.551  0.0799 -0.0627 -0.0199
10055W        W10055   6.291   0.173   8.861  0.3855 -0.0984 -0.0070
10056W        W10056   9.173   6.553   4.101  0.0431 -0.0283  0.1445
10057W        W10057   0.840   7.490   8.883  0.1253 -0.2802 -0.2985
10058W        W10058   6.087   0.999   6.217  0.1998  0.2292  0.1545
10059W        W10059   2.841   0.263   8.701  0.1501 -0.2164 -0.0200
10060W        W10060   0.000   3.720  10.117  0.0307 -0.3918  0.0797
10061W        W10061   2.673   1.423   5.576  0.1738  0.1945  0.1205
10062W        W10062   4.536   2.102   8.884  0.0173  0.2844  0.0839
10063W        W10063   5.260   5.559   5.301 -0.2792  0.1643 -0.0106
10064W        W10064   2.672   0.702   2.493  0.0194  0.0593  0.0726
10065W        W10065   1.012   6.360   4.562 -0.0386  0.1396  0.1609
10066W        W10066   7.036   4.875   3.866 -0.0884 -0.2205 -0.0727
10067W        W10067   0.763   1.817   1.028 -0.0347 -0.1987  0.2816
10068W        W10068   0.212   1.692   1.157 -0.1763 -0.1623  0.1067
10069W        W10069   1.176   6.235   6.908 -0.0733 -0.2545 -0.2053
10070W        W10070   4.556   4.713   9.580  0.2833 -0.1570 -0.1231
10071W        W10071   7.495   3.616   7.660 -0.1884 -0.0783 -0.1304
10072W        W10072   8.555  10.331   9.512  0.0303  0.1062  0.1338
10073W        W10073   8.378   1.014   3.893 -0.1875 -0.1169 -0.1902
10074W        W10074   5.811   8.933   6.380  0.0605 -0.0799 -0.0402
10075W        W10075   5.990   5.718   4.932  0.0448  0.1599  0.0351
10076W        W10076   9.856   0.714   9.664  0.0055  0.1275  0.0631
10077W        W10077   7.803   6.752   4.472 -0.2772 -0.1187 -0.0845
10078W        W10078   8.003   4.569   7.908 -0.2030 -0.0829 -0.0790
10079W        W10079   3.486   6.228   5.034 -0.3193  0.0268  0.3383
10080W        W10080   9.928   6.545   9.033 -0.2948 -0.1330  0.1053
10081W        W10081   9.876   7.894   5.858  0.1656 -0.0406 -0.0983
10082W        W10082   8.071   3.090   9.158 -0.1563 -0.2636  0.0988
10083W        W10083   0.838   3.008   6.181  0.0868 -0.0354  0.1240
10084W        W10084   0.653   6.872   7.412 -0.3309  0.0758 -0.3460
10085W        W10085   3.427   3.489   4.986 -0.1478 -0.1643 -0.2377
10086W        W10086   9.230   0.457   4.923 -0.2879 -0.3700  0.0101
10087W        W10087   3.109   3.594   5.800 -0.0788  0.0588 -0.0655
10088W        W10088  10.007   5.618   6.255 -0.1578 -0.3040  0.2559
10089W        W10089   9.650   2.375   8.626 -0.1735  0.0344 -0.0875
10090W        W10090   5.004   7.800   7.880  0.1033  0.1470  0.1916
10091W        W10091   6.115   3.878   9.489  0.2181 -0.0329  0.1440
10092W        W10092   4.687   4.681   4.180 -0.2009  0.2204  0.1761
10093W        W10093   0.344   4.667   9.928 -0.1012 -0.0119 -0.2838
10094W        W10094   4.846   9.875   5.079 -0.2670 -0.0868  0.1496
10095W        W10095   6.985   3.172   8.403  0.1750  0.0985  0.0042
10096W        W10096   0.257   7.032   0.174 -0.0154 -0.1472  0.0477
10097W        W10097   9.212   3.184   4.709 -0.1937 -0.1287 -0.1582
10098W        W10098   6.846   7.620   9.320 -0.0366 -0.0447  0.1453
10099W        W10099   9.840   7.073   1.252  0.5476 -0.3575 -0.0029
10100W        W10100   2.607   9.855   5.227  0.0204  0.2489 -0.3658
10101W        W10101   8.381   6.159   3.580  0.0629  0.3380  0.0337
10102W        W10102   9.865   0.818   8.235  0.0092 -0.3542 -0.0932
10103W        W10103   1.538   6.571   0.235  0.0327 -0.2037 -0.1464
10104W        W10104   0.008   1.608   5.450 -0.0870  0.0570  0.1850
10105W        W10105   5.038   9.007   6.987 -0.2221 -0.2222 -0.2535
10106W        W10106   9.402   3.199   9.387 -0.0286 -0.2121  0.1274
10107W        W10107   1.941  10.121   0.855  0.0621  0.1901 -0.0055
10108W        W10108   8.083   0.895   6.206 -0.3833 -0.0196 -0.2048
10109W        W10109   8.887   6.521   8.097  0.1702  0.1976 -0.2212
10110W        W10110   8.389   3.416   1.345 -0.2241 -0.0161 -0.0319
10111W        W10111   1.850   0.348   2.688  0.1586 -0.0058 -0.3488
10112W        W10112   5.148   3.794   3.052  0.1242  0.3059 -0.1923
10113W        W10113   8.325  10.245   4.113 -0.1883 -0.1417 -0.1186
10114W        W10114   1.372   2.949   2.892  0.1404 -0.0884 -0.0552
10115W        W10115   6.805  10.213   5.408  0.1549 -0.0160 -0.1352
10116W        W10116   6.805   2.093   6.393 -0.5253  0.0190  0.1457
10117W        W10117   2.355   6.746   9.941 -0.0505  0.0004  0.2143
10118W        W10118   3.582  10.065  10.333 -0.2588  0.1297  0.1462
10119W        W10119   0.606   1.207   6.940 -0.0459 -0.1014  0.0662
10120W        W10120   3.889   8.777   9.649 -0.1319  0.1767 -0.0068
10121W        W10121   3.216   1.300   3.793  0.1627 -0.0686 -0.1573
10122W        W10122   8.306   2.533   0.451 -0.4442 -0.1397  0.0569
10123W        W10123   9.711   6.792   8.157 -0.0737 -0.0822 -0.2558
10124W        W10124   6.710   5.684   0.527  0.2150 -0.0856  0.1669
10125W        W10125   9.567   0.366   2.919 -0.1797 -0.1489  0.0584
10126W        W10126   1.525   1.885   4.177  0.1293  0.1884 -0.0455
10127W        W10127   2.719   0.334   0.093 -0.0861 -0.1817  0.0244
10128W        W10128   0.654   3.798   3.482 -0.2833 -0.2132  0.5186
10129W        W10129   1.021   4.659   0.934 -0.1324 -0.3597 -0.0158
10130W        W10130   5.850   8.951  10.321 -0.2101 -0.1700  0.0305
10131W        W10131  10.209   9.727   5.347 -0.0106  0.3318  0.1225
10132W        W10132   3.241   5.768   5.002 -0.2292  0.1942  0.3309
10133W        W10133   5.692   7.092   0.177 -0.3980  0.1342  0.0816
10134W        W10134   9.725   5.702   4.139  0.2241  0.1574  0.3354
10135W        W10135   7.146   2.688   4.478 -0.2300 -0.2333 -0.1559
10136W        W10136   7.623   2.402   0.021 -0.0779 -0.2594  0.1606
10137W        W10137   1.678   4.360   2.512 -0.3557  0.2901 -0.4225
10138W        W10138   2.361   3.008   1.079  0.0026 -0.3984  0.1677
10139W        W10139   1.335   3.029   3.387 -0.7526 -0.2058 -0.5641
10140W        W10140   1.483   0.514   7.879 -0.4145  0.1594  0.0773
10141W        W10141   9.856   3.567  10.034  0.3571  0.0833  0.4344
10142W        W10142   1.507   1.859   4.666  0.1208  0.3306 -0.1088
10143W        W10143   2.704   2.985   3.482 -0.0750 -0.0033 -0.2245
10144W        W10144   5.262   1.091   6.553 -0.1276 -0.2250 -0.1616
10145W        W10145   2.530   2.014   4.938 -0.0382  0.1052  0.0594
10146W        W10146   7.003   4.401   4.680  0.1013 -0.1087  0.1295
10147W        W10147   2.499   1.464   5.016 -0.0439  0.1668 -0.3792
10148W        W10148   9.938   9.882   9.476  0.2244  0.2208 -0.3494
10149W        W10149   2.132   9.003   1.760  0.0799  0.3564 -0.3424
10150W        W10150   7.202   6.797   1.935  0.0412  0.0269  0.0051
10151W        W10151   3.644   5.944   3.087  0.3739 -0.3077 -0.2453
10152W        W10152   2.940   2.383   6.922 -0.0668  0.0309 -0.0075
10153W        W10153   2.218   1.265   5.423 -0.1049  0.0402  0.0401
10154W        W10154   9.358   7.171   6.199 -0.0781 -0.1713 -0.1712
10155W        W10155   2.354   7.625   1.167  0.0931  0.0454 -0.0357
10156W        W10156   6.897   6.461  10.087  0.0895  0.3821 -0.1572
10157W        W10157   3.625   3.122   9.473  0.1865 -0.0747  0.3318
10158W        W10158   5.961   3.665   0.007 -0.0937 -0.2114 -0.0861
10159W        W10159   0.933   7.446   6.761 -0.2062 -0.1196  0.0500
10160W        W10160   7.218   9.270   7.804  0.0780 -0.2183 -0.0659
10161W        W10161   8.802   6.423   1.150 -0.2347  0.0236 -0.1295
10162W        W10162   3.530   3.870   8.887 -0.1345  0.1272 -0.1589
10163W        W10163   2.094   2.122   1.115 -0.0505  0.1637 -0.1333
10164W        W10164   0.861   9.587   3.571  0.3182 -0.1926  0.0737
10165W        W10165   8.771   5.165   8.086  0.2890 -0.1944  0.0274
10166W        W10166   6.424   5.900   4.041  0.2101  0.2023 -0.1818
10167W        W10167   5.909   2.754   2.079  0.0516 -0.0366 -0.2702
10168W        W10168   4.548   0.373   4.030 -0.0231 -0.1101  0.0414
10169W        W10169   4.574   0.329   5.557 -0.2368 -0.1513 -0.0141
10170W        W10170   6.219   5.364   6.160  0.0723 -0.1595  0.0063
10171W        W10171   3.038   9.271   5.954  0.0180 -0.1019 -0.2326
10172W        W10172   1.788   4.578   6.869 -0.2207  0.2501 -0.0261
10173W        W10173   5.180   3.952  10.004  0.1613  0.0477  0.1154
10174W        W10174   9.081   0.001   0.552  0.2739  0.1321 -0.3728
10175W        W10175   3.577   2.813   2.173 -0.0864 -0.0336 -0.1191
10176W        W10176   7.376   3.410   4.021  0.0187  0.0179 -0.0405
10177W        W10177   8.338   5.441   7.876  0.0085  0.2290 -0.4415
10178W        W10178   6.702   8.147   8.494  0.3496 -0.1682 -0.1701
10179W        W10179   8.718   9.347   1.459 -0.1316 -0.1278 -0.1722
10180W        W10180   7.237   1.851   8.356 -0.0480  0.0075 -0.0157
10181W        W10181   7.221   1.013   8.425 -0.0212 -0.1186 -0.1129
10182W        W10182   1.181   5.414   1.972 -0.2299 -0.0994 -0.4945
10183W        W10183   7.088   3.078   1.177  0.0789 -0.0045  0.2017
10184W        W10184   7.320   7.676   0.826 -0.1538  0.0410 -0.0502
10185W        W10185   1.832   1.934   9.065  0.0959 -0.0936 -0.1379
10186W        W10186   9.416  10.110   4.849  0.1062  0.3218 -0.0118
10187W        W10187   0.134   3.632   0.519 -0.3086 -0.1604 -0.0334
10188W        W10188   9.390   5.372   4.241 -0.1658  0.1318 -0.1747
10189W        W10189   4.855   3.225   2.355  0.0284 -0.2351  0.1801
10190W        W10190   8.344   8.238   6.455  0.1500  0.0563 -0.1449
10191W        W10191   3.896   5.500   1.194 -0.0695  0.0610  0.2047
10192W        W10192   0.414   4.879   4.138 -0.0787  0.1098 -0.0132
10193W        W10193   5.185   2.610   6.323  0.0009  0.2373 -0.0094
10194W        W10194   6.862   0.326   3.426 -0.2537 -0.0616 -0.1902
10195W        W10195   2.446   1.717   1.248  0.1072 -0.0138  0.0463
10196W        W10196   9.056   6.970   6.600  0.0915  0.1403 -0.0337
10197W        W10197   5.542   1.161   4.107  0.1033  0.0630 -0.0762
10198W        W10198   4.930   8.238   2.926  0.0258 -0.0583  0.3337
10199W        W10199   0.285  10.188   1.278 -0.0534  0.1518  0.0385
10200W        W10200   5.402   0.570   2.091 -0.1322  0.0947 -0.1792
10201W        W10201   5.753   9.032   3.858 -0.0488 -0.0213  0.0505
10202W        W10202   1.211   5.071   5.343  0.1367  0.1879 -0.1562
10203W        W10203   4.136   9.301   4.754 -0.1036 -0.0704  0.2750
10204W        W10204   5.134   3.300   0.456  0.2974 -0.3914  0.0260
10205W        W10205   0.666   5.245   1.085  0.0484 -0.2075  0.1459
10206W        W10206   0.717   7.541   4.293  0.1654  0.0038  0.2368
10207W        W10207   3.330   7.206   6.503  0.0529 -0.2184 -0.0398
10208W        W10208   1.129   5.049   4.792  0.0514  0.0534 -0.2120
10209W        W10209   7.173   0.218   9.015 -0.4696 -0.0206 -0.0714
10210W        W10210   9.977   0.748   2.975  0.1011  0.1505  0.0913
10211W        W10211   7.830   3.026   6.142 -0.4468 -0.0562 -0.0052
10212W        W10212   8.259   0.555   5.879  0.1385  0.0087  0.1997
10213W        W10213   5.007   1.468   0.114  0.0767  0.2167 -0.2572
10214W        W10214  10.237   4.079   4.072 -0.0608  0.0518  0.0632
10215W        W10215   6.849   9.048   4.233 -0.0483 -0.1068 -0.0003
10216W        W10216   6.407   9.035   6.519  0.2392  0.0014  0.0500
10217W        W10217   6.097   8.206   6.873 -0.0767 -0.0708 -0.0851
10218W        W10218   5.706   0.286   6.751  0.0983  0.2494 -0.0936
10219W        W10219   0.810   1.351   8.504  0.3420  0.1789 -0.2854
10220W        W10220  10.160   2.270   0.328 -0.0746  0.1647 -0.0328
10221W        W10221   3.394   4.387   0.807 -0.0215  0.0642  0.0927
10222W        W10222   2.081   9.637   0.875  0.2655 -0.0360  0.1554
10223W        W10223   7.134   1.799   1.693 -0.0515 -0.0661  0.2209
10224W        W10224   7.303   8.731   6.665  0.0090  0.1264 -0.0678
10225W        W10225   2.274   2.516   8.691 -0.0591  0.1863 -0.0144
10226W        W10226   3.736   8.749   5.563  0.3472 -0.1221 -0.0212
10227W        W10227   0.241   9.527   5.029 -0.2620  0.1907 -0.4859
10228W        W10228   1.882   1.764   5.785 -0.1086 -0.0888  0.1110
10229W        W10229   7.456   6.712   1.041  0.0587  0.1230  0.0538
10230W        W10230   2.471   7.839   7.381 -0.2613 -0.0278 -0.2235
10231W        W10231   1.775   7.317   6.266  0.0514  0.0085 -0.2925
10232W        W10232   3.371   1.466   2.536 -0.4049  0.4977 -0.0176
10233W        W10233   6.614   4.027   1.244  0.0614  0.0550  0.1704
10234W        W10234   4.234   8.269  10.138 -0.1120 -0.1032  0.0021
10235W        W10235   7.969   7.248   9.340 -0.0949  0.1916 -0.1197
10236W        W10236   1.010   6.060   6.434  0.1461 -0.3037  0.1177
10237W        W10237   9.902   6.786   0.005  0.1665 -0.0055  0.3051
10238W        W10238   2.045   0.836   0.154  0.4229  0.3484  0.1985
10239W        W10239   1.104   6.822   6.120 -0.3943  0.1689  0.0313
10240W        W10240   3.134   1.647   2.167  0.1250 -0.0677 -0.1522
10241W        W10241   0.820   1.322   1.252 -0.0589 -0.0389  0.1112
10242W        W10242   8.592   8.368   8.818  0.0891  0.0595 -0.1644
10243W        W10243   9.688   8.230   5.010 -0.0641  0.0795  0.0465
10244W        W10244   5.103   4.535   5.334  0.1439 -0.0208 -0.0897
10245W        W10245   4.217   9.065   3.390 -0.2696 -0.1975 -0.0305
10246W        W10246   5.728   3.735   3.942  0.0194  0.0232  0.1887
10247W        W10247  10.267   2.567   5.531 -0.1126 -0.2700 -0.1801
10248W        W10248   0.923   8.982   3.806  0.2827 -0.3457  0.1206
10249W        W10249   8.595   0.037   0.693 -0.2919  0.2654  0.1621
10250W        W10250   6.746   8.458   7.564  0.2236 -0.0115  0.0124
10251W        W10251   3.573   2.713   6.266  0.2280 -0.2508  0.2550
10252W        W10252   7.693   0.974   4.723 -0.0765  0.1350  0.0444
10253W        W10253   7.443   5.269   8.894 -0.0944  0.0801 -0.0452
10254W        W10254   7.766  10.096   3.307  0.0026 -0.1367  0.0498
10255W        W10255   5.788   4.401   2.204 -0.2635  0.0682  0.1551
10256W        W10256   9.940   2.769   8.555  0.0745 -0.0395 -0.0551
10257W        W10257   8.174   6.402   4.315 -0.2133  0.0938  0.0029
10258W        W10258   2.291   2.315   2.035 -0.0038  0.1613  0.0965
10259W        W10259   7.125   4.011   4.259  0.2011 -0.0930  0.1851
10260W        W10260   6.167   8.648   0.306 -0.3628  0.1283 -0.0010
10261W        W10261   3.747   2.234   0.835  0.1585  0.2853 -0.0076
10262W        W10262  10.223   4.339   5.869 -0.1967  0.1158 -0.0492
10263W        W10263   8.765   4.368   9.073  0.0682  0.0508 -0.0465
10264W        W10264   2.634   9.564   9.624  0.0603  0.3365  0.2530
10265W        W10265   1.470   2.221   0.129  0.1131  0.0609 -0.4129
10266W        W10266   4.674   5.750   6.134  0.1182  0.2972  0.2410
10267W        W10267   2.647   8.722   1.571  0.0565  0.0537  0.0779
10268W        W10268   2.820   0.009   3.591  0.0193  0.4568 -0.0479
10269W        W10269   1.811   3.681   7.524 -0.3996 -0.1506  0.1358
10270W        W10270   4.021   7.005   9.422  0.0650 -0.1638 -0.2194
10271W        W10271   5.353   3.198   1.599 -0.2246 -0.3285  0.0931
10272W        W10272   5.746   7.727   9.748  0.0811 -0.1013 -0.3332
10273W        W10273   0.514   4.151  10.210 -0.0396 -0.0914 -0.1019
10274W        W10274   8.216   4.534   9.792  0.0941  0.3231  0.0501
10275W        W10275   0.799   2.130   1.958 -0.1330 -0.1028 -0.1300
10276W        W10276   9.781   2.755   2.360  0.0409  0.0167  0.1063
10277W        W10277   8.662   9.013   0.098  0.3620 -0.0527  0.1095
10278W        W10278   5.390   8.394   0.025 -0.2397 -0.0120 -0.1008
10279W        W10279   6.650   8.628   4.739 -0.0806  0.2328 -0.0142
10280W        W10280   6.046   1.114   1.839  0.5681 -0.0176  0.2073
10281W        W10281   3.321   2.501   0.626  0.2244 -0.3493  0.0670
10282W        W10282   7.727   6.636   6.742  0.0663  0.1260 -0.5003
10283W        W10283   7.517   7.349   6.102  0.0902  0.0041 -0.1490
10284W        W10284   4.814   2.891   3.302  0.0662  0.1076  0.0164
10285W        W10285   5.930   1.151   7.804 -0.0033  0.0493  0.0275
10286W        W10286   6.143   4.598   3.397  0.0153  0.2200 -0.2220
10287W        W10287   2.864   7.588   5.226  0.1357  0.2946  0.3144
10288W        W10288  10.237   1.853   0.695 -0.1214  0.1147 -0.1325
10289W        W10289   5.298   9.851   6.420  0.1854 -0.0055  0.0492
10290W        W10290   6.554   6.159   8.304 -0.0370  0.1805  0.4005
10291W        W10291   6.248   6.900   1.416  0.1774  0.1690  0.0902
10292W        W10292   6.873   7.447   6.720 -0.3002  0.1549  0.0328
10293W        W10293   8.419   1.315   6.278  0.2332 -0.1242  0.0307
10294W        W10294   2.575   8.176   6.956 -0.0142  0.0184  0.0396
10295W        W10295   9.870   4.049   5.351  0.3647 -0.1134  0.0563
10296W        W10296   7.298  10.089  10.070 -0.1151  0.2281  0.1930
10297W        W10297   4.522   4.383   8.597  0.2227  0.1458  0.1921
10298W        W10298   2.611   2.070   8.018  0.1096  0.0999 -0.3887
10299W        W10299   8.574   2.049   3.482 -0.0091 -0.2563  0.1192
10300W        W10300   9.602   9.418   7.739  0.2819 -0.1325  0.0017
10301W        W10301   5.958   4.374   9.092  0.0115  0.0701  0.5475
10302W        W10302   4.559   6.924   9.047  0.0554  0.2907  0.0952
10303W        W10303  10.013   5.902   1.249 -0.1750 -0.0847  0.0471
10304W        W10304   4.355   0.211   3.183  0.2568  0.1300  0.1574
10305W        W10305   8.162   1.421   4.007  0.1418 -0.1267  0.0615
10306W        W10306   5.488   6.140   3.923 -0.0739  0.0233 -0.4646
10307W        W10307   5.895   4.230   4.070  0.1752  0.0162 -0.2629
10308W        W10308   4.800   2.967   3.820 -0.1123 -0.2233 -0.1619
10309W        W10309   2.275   1.200   3.749 -0.0984 -0.0488 -0.4081
10310W        W10310   1.675   1.694   2.495  0.3330  0.0599 -0.0068
10311W        W10311   4.920   9.055   6.156  0.2078 -0.1086  0.0039
10312W        W10312   4.923   4.395   8.233 -0.1334  0.0626  0.1788
10313W        W10313   3.522   1.274   3.296 -0.1630 -0.1182 -0.1215
10314W        W10314   3.583   9.318   4.228  0.0506  0.0109 -0.0895
10315W        W10315   9.937   2.938   9.468 -0.0491 -0.1711  0.1108
10316W        W10316   8.762   5.191   1.723  0.0153  0.0728 -0.0910
10317W        W10317   8.647   2.252  10.154 -0.0868  0.4466  0.1378
10318W        W10318   0.082   7.171   6.175  0.0460  0.0776  0.2240
10319W        W10319   6.126   2.610   6.983 -0.2624 -0.2078  0.0406
10320W        W10320   6.274   7.992   0.322 -0.0495 -0.0970 -0.1126
10321W        W10321   1.944   3.599   0.031  0.2232 -0.0347 -0.0783
10322W        W10322   7.673   1.775   7.267 -0.0686  0.0872 -0.0175
10323W        W10323   7.586   7.746   0.060 -0.0171  0.1279  0.2480
10324W        W10324   3.265   5.031   4.508 -0.0225  0.0512  0.2257
10325W        W10325   5.725   7.150   2.841  0.1351  0.0036 -0.1849
10326W        W10326   2.659   9.614   6.585  0.2627 -0.0836 -0.2256
10327W        W10327  10.271   2.383   2.959 -0.0135 -0.2822  0.0415
10328W        W10328   7.359   6.321   0.433  0.0018 -0.0762  0.1281
10329W        W10329   2.858   8.192   7.398 -0.0089  0.1270 -0.1921
10330W        W10330   4.550   5.343   1.963 -0.1559 -0.0392 -0.3706
10331W        W10331   4.082   8.013   1.070  0.1523  0.2686  0.1927
10332W        W10332   1.816   7.019   0.252 -0.0185 -0.0538 -0.1631
10333W        W10333   5.880   5.323   0.939  0.0686  0.3367  0.0745
10334W        W10334   6.175   3.523   7.235 -0.2140  0.2473  0.2092
10335W        W10335   7.561   9.364   9.235  0.0554  0.0461  0.1082
10336W        W10336   2.770   7.413   1.300  0.1139  0.0119 -0.0366
10337W        W10337   7.471   7.883   8.436  0.0294 -0.1219 -0.0346
10338W        W10338   1.010   7.733   5.142 -0.0439  0.0573 -0.0175
10339W        W10339   3.392   5.686   1.336  0.0564 -0.0262 -0.1466
10340W        W10340   9.829   9.358   4.772 -0.1735 -0.0186 -0.2010
10341W        W10341   1.654   4.091   7.746  0.0626 -0.3670  0.0858
10342W        W10342   3.188   5.957   5.872  0.2073 -0.0997  0.0065
10343W        W10343   7.145   7.834   6.568  0.1369 -0.0429  0.0524
10344W        W10344   1.592   2.304   8.262  0.2838 -0.1165 -0.2337
10345W        W10345   2.943   4.250   9.107  0.1872 -0.1078  0.1447
10346W        W10346   2.817   2.096   2.742 -0.1976  0.1482  0.0745
10347W        W10347   4.690   7.231   3.120 -0.2425  0.1993  0.0003
10348W        W10348   8.615   4.971   9.799  0.0401  0.0594 -0.2041
10349W        W10349   2.591   5.360   8.490  0.2147  0.2055  0.0145
10350W        W10350   8.264   3.685   0.962 -0.1448  0.0461 -0.0727
10351W        W10351   1.625   6.700   4.541  0.1538  0.0427  0.0598
10352W        W10352   2.353   5.740   8.070  0.2109 -0.3870 -0.1671
10353W        W10353   1.234   9.088   9.281  0.1508 -0.0853 -0.1317
10354W        W10354   6.600   4.025   8.691 -0.0564 -0.1559  0.4076
10355W        W10355   6.839   3.771   2.645 -0.0158  0.2605  0.2703
10356W        W10356   2.755   6.068   2.035  0.1754 -0.0602 -0.0324
10357W        W10357   4.268   5.141   9.644 -0.1062 -0.1092 -0.0903
10358W        W10358   1.972   9.505   2.874  0.3692  0.3244  0.0660
10359W        W10359   7.808   2.212   8.928 -0.1487  0.0291  0.2097
10360W        W10360   8.684   9.582   2.830  0.2948  0.2276 -0.2605
10361W        W10361   4.212   5.675   8.386  0.1817 -0.1028  0.1023
10362W        W10362   3.556   8.471   5.976 -0.1387  0.1588  0.1890
10363W        W10363   1.482   3.919   1.048 -0.0006 -0.1139 -0.2874
10364W        W10364   5.309   0.021   2.898 -0.0574  0.3636  0.1124
10365W        W10365   1.682   0.462   9.123 -0.3399  0.0803  0.0495
10366W        W10366   2.994   6.871   6.745  0.1469  0.3201 -0.0399
10367W        W10367   9.811   6.314   6.699 -0.5391 -0.0773 -0.3063
10368W        W10368   1.630   8.327   8.985  0.3248 -0.1038  0.2389
10369W        W10369   1.699   6.980   0.700 -0.1957 -0.0250 -0.2011
10370W        W10370   0.280   6.597   6.928 -0.0666 -0.1834 -0.0517
10371W        W10371   0.874   7.741   2.245  0.0445  0.3021 -0.1720
10372W        W10372   3.314   0.025   8.505 -0.1364  0.1342 -0.0695
10373W        W10373   3.020   8.496   0.115  0.2132 -0.0274 -0.0999
10374W        W10374   9.711   2.061   4.272 -0.0475 -0.2617  0.1324
10375W        W10375   5.798   1.806   2.381 -0.0866  0.1397  0.5587
10376W        W10376   6.684   1.998   1.565  0.0079  0.0665 -0.0539
10377W        W10377   5.471   4.498   6.698 -0.1357 -0.1060  0.3794
10378W        W10378   8.283   9.538   4.754 -0.3777 -0.0696 -0.4807
10379W        W10379   8.756   0.715   3.845 -0.3196 -0.2603 -0.0753
10380W        W10380   9.180   7.787   3.827  0.3292  0.0748 -0.2391
10381W        W10381   3.215   3.002   6.567 -0.0468  0.3048  0.2504
10382W        W10382   3.033   7.742  10.049  0.0455 -0.0660  0.1497
10383W        W10383   0.718   0.745   3.659 -0.0104  0.2624 -0.0915
10384W        W10384   8.782   3.321   8.065  0.0169 -0.1331  0.1364
10385W        W10385   6.552   2.472   0.406 -0.0639  0.0793  0.1770
10386W        W10386   0.291   1.202   8.404  0.2816  0.0020  0.1284
10387W        W10387   5.500   8.805   4.654  0.0007  0.4293 -0.1242
10388W        W10388   8.946   8.342   6.148  0.3091  0.0132 -0.2187
10389W        W10389   1.885   6.722   2.525  0.2923  0.1517  0.1340
10390W        W10390   8.975   0.775  10.194 -0.2984  0.2780  0.0346
10391W        W10391   1.402   7.708   1.535 -0.0771  0.0221  0.1109
10392W        W10392   7.998   5.512  10.009 -0.0460  0.0348 -0.1287
10393W        W10393   4.648   2.375   0.183 -0.1547  0.3078  0.0368
10394W        W10394   3.739   5.969   9.844 -0.3898  0.1615  0.0954
10395W        W10395   2.859   1.995   9.375  0.1944 -0.1746  0.0356
10396W        W10396   6.842   8.907   7.139  0.0899  0.1227  0.3046
10397W        W10397   6.254   0.762   9.537  0.0419  0.2869 -0.3151
10398W        W10398   4.231   3.178   0.429 -0.0725  0.1676 -0.0993
10399W        W10399   3.053   4.785   5.127  0.1538  0.0955 -0.0023
10400W        W10400   5.611   9.795   4.353  0.0251  0.2897  0.2864
10401W        W10401   3.056   2.991   2.431 -0.2052  0.1084  0.0434
10402W        W10402   0.516   5.580   2.625  0.0003  0.1864 -0.0691
10403W        W10403   3.869   5.603   8.781  0.1335 -0.5503 -0.1380
10404W        W10404   7.796   6.798   6.150  0.2173 -0.0784  0.0406
10405W        W10405   9.854   4.911   3.254  0.0407 -0.1837  0.3493
10406W        W10406  10.048   6.126   8.675 -0.0840 -0.0474 -0.0335
10407W        W10407   1.288   8.555   0.366 -0.2048 -0.0664 -0.0263
10408W        W10408   2.391   7.953   7.874 -0.0101  0.1333  0.1660
10409W        W10409   2.174   8.065   9.159 -0.1376  0.0271 -0.1121
10410W        W10410   1.971   9.863   1.287  0.2013  0.1780  0.0430
10411W        W10411   0.823   0.145   8.260  0.1712  0.1446 -0.1272
10412W        W10412   2.142   3.678   4.267 -0.1201 -0.0823 -0.0958
10413W        W10413   8.034   5.195   0.980  0.2438  0.1099  0.1347
10414W        W10414   6.918   0.693   6.935 -0.3193  0.3713  0.1438
10415W        W10415   0.027   1.155   4.277 -0.2566  0.1005 -0.0373
10416W        W10416   0.232   8.599   0.982 -0.3406 -0.3385  0.3694
10417W        W10417   1.088   3.536   9.773 -0.0150 -0.0322 -0.1279
10418W        W10418   1.353   6.297   9.641 -0.2261 -0.0671  0.2734
10419W        W10419   1.661   9.602   0.588 -0.2165  0.2399  0.1395
10420W        W10420   4.594   7.198   2.109  0.2608 -0.1671 -0.0702
10421W        W10421   0.626   3.906   8.558  0.0224 -0.0759 -0.0715
10422W        W10422   6.990   5.243   8.431 -0.2847 -0.2180 -0.0889
10423W        W10423   7.961   0.046   4.612  0.0073  0.1609 -0.1624
10424W        W10424   4.373  10.244   6.981 -0.3627  0.0328 -0.1014
10425W        W10425   4.801   9.627   8.871 -0.0112  0.2840 -0.2029
10426W        W10426   5.708   4.705   7.549  0.1594  0.0350  0.1938
10427W        W10427   2.971   3.589   8.031  0.2793 -0.3453 -0.0789
10428W        W10428   0.697   9.272   0.624  0.1012  0.3119  0.0620
10429W        W10429   6.043   5.954   8.124 -0.3242 -0.1863 -0.0112
10430W        W10430   7.376  10.043   3.608  0.2016 -0.0986  0.0766
10431W        W10431   8.205  10.065   9.935 -0.0602 -0.4376 -0.0143
10432W        W10432   5.208   5.051   3.708  0.1714  0.0635 -0.1716
10433W        W10433   6.896   8.472   6.895  0.1155  0.1694 -0.0240
10434W        W10434   4.887  10.189   3.741 -0.3995 -0.3920 -0.0871
10435W        W10435   9.295   4.176   2.829 -0.1457 -0.0932 -0.1247
10436W        W10436   3.318   8.701   5.118  0.0032 -0.0155  0.2128
10437W        W10437   0.282   4.319   2.854  0.0998 -0.2753 -0.1101
10438W        W10438   8.060   4.758   9.077 -0.1305  0.0567  0.2491
10439W        W10439   5.703   6.872   5.109 -0.3633  0.2940 -0.0010
10440W        W10440   5.747   2.619   8.811 -0.1513  0.0382  0.0560
10441W        W10441   5.805   2.599   2.619 -0.2040 -0.1584  0.0329
10442W        W10442   3.667   7.370   9.784 -0.0444 -0.0284 -0.1160
10443W        W10443   2.673   5.183   6.935 -0.0576 -0.0859  0.1267
10444W        W10444   1.336   8.101   0.320 -0.0728 -0.1615  0.0522
10445W        W10445   0.313   9.271   8.667  0.4042 -0.0241  0.0721
10446W        W10446   5.736   5.783   6.002  0.0720 -0.0030  0.0397
10447W        W10447   7.538   5.795   7.307 -0.0522 -0.1622 -0.1180
10448W        W10448   4.522   9.375   5.988  0.2487 -0.2529 -0.2481
10449W        W10449   6.888   6.858   2.306 -0.0586 -0.1451 -0.2645
10450W        W10450   6.007   7.369   9.598 -0.0533 -0.1136 -0.1733
10451W        W10451   5.655   3.326   3.141 -0.3379  0.3401  0.2867
10452W        W10452   6.623   5.677   9.104  0.0315 -0.1195 -0.2128
10453W        W10453   1.283   0.045   3.367  0.5076  0.0709 -0.2835
10454W        W10454   8.010   4.441   4.167  0.0635 -0.5315 -0.0956
10455W        W10455   6.069   1.639   3.601  0.0060  0.0517  0.1731
10456W        W10456  10.213   4.023   9.433 -0.3194 -0.2540  0.0438
10457W        W10457   3.787   1.946   1.701  0.3184  0.2681 -0.0076
10458W        W10458   9.401   0.642   8.111  0.2885 -0.0392  0.1716
10459W        W10459   4.773   1.634   7.552  0.2713 -0.1045 -0.0531
10460W        W10460   7.646   9.749   5.341 -0.2425 -0.1443 -0.2069
10461W        W10461   0.297   1.004   0.731 -0.4140 -0.0610  0.2184
10462W        W10462   1.090   5.198   6.768 -0.0004  0.3542  0.0656
10463W        W10463   0.133   0.864   3.228 -0.0059 -0.0371 -0.0041
10464W        W10464   3.245   2.114   4.131 -0.0977 -0.2862 -0.2876
10465W        W10465   3.890   8.169   4.730  0.0436  0.1696  0.2702
10466W        W10466   7.055   6.286   9.681  0.0295 -0.1774  0.3242
10467W        W10467   0.266   1.565   2.435  0.0094 -0.2861  0.2957
10468W        W10468   0.235   7.662   9.167 -0.0091  0.0071  0.0517
10469W        W10469   3.911   8.064   7.099  0.0036  0.0618  0.0569
10470W        W10470   1.835   0.446   7.532 -0.2439  0.1658 -0.0289
10471W        W10471   5.943   0.294   4.147  0.1937  0.1879  0.1420
10472W        W10472   5.942   8.805   6.873 -0.2424 -0.2034  0.0647
10473W        W10473   7.000   3.946   6.012  0.3841  0.2305  0.0797
10474W        W10474   5.864   9.521   5.682  0.0051  0.4664  0.0877
10475W        W10475   6.658   1.827   9.661  0.1451  0.0892 -0.0257
10476W        W10476   9.023   3.598   4.946  0.1260  0.1523  0.1876
10477W        W10477   9.767   1.532   8.998  0.3476 -0.1265 -0.1205
10478W        W10478   4.429   1.849   5.493  0.0948 -0.0493  0.0365
10479W        W10479   5.882   2.171   7.694  0.3235 -0.1578  0.1524
10480W        W10480   7.076   2.291   5.316 -0.3170  0.0171 -0.3466
10481W        W10481   0.624   3.727   0.745  0.1046  0.1866  0.1194
10482W        W10482   1.595   0.548   2.138 -0.0911  0.0010  0.0653
10483W        W10483   8.774   0.921   0.374 -0.1572 -0.0767  0.1976
10484W        W10484   1.892   4.927   8.411 -0.1143  0.1307 -0.2029
10485W        W10485   5.002   6.238   9.597  0.0298 -0.2670  0.1539
10486W        W10486   3.057   6.795   3.987  0.0474  0.1125  0.1291
10487W        W10487   4.257   8.506   4.271  0.0337 -0.0065  0.2021
10488W        W10488   8.043   0.361   2.108  0.0644 -0.0913  0.0933
10489W        W10489   3.987   1.010   5.844 -0.2712  0.1895 -0.2117
10490W        W10490   3.809   7.532   8.762 -0.3865 -0.0010  0.2476
10491W        W10491   1.615   8.946   0.549  0.4062 -0.1254  0.0691
10492W        W10492   8.339   5.229   9.165 -0.1690 -0.1510 -0.0862
10493W        W10493  10.031   3.754   5.883 -0.2274 -0.4033 -0.2131
10494W        W10494   0.978   0.375   8.689 -0.0317  0.4653 -0.0991
10495W        W10495   0.739   9.635   1.489  0.1835 -0.0353  0.1651
10496W        W10496   1.158   9.158   4.830  0.2261 -0.4386  0.0786
10497W        W10497   5.591   0.788   6.711  0.0269 -0.0098  0.1573
10498W        W10498   0.456   7.905   0.010 -0.2611 -0.1514 -0.0138
10499W        W10499   2.737   9.518   5.612  0.1678 -0.1169  0.1971
10500W        W10500   1.551   1.313   4.343  0.2077  0.1078 -0.1918
10501W        W10501   5.064   3.340  10.153  0.2220 -0.0500  0.0652
10502W        W10502   2.047   9.428   7.574  0.3940  0.2497  0.0901
10503W        W10503   0.477   6.028   9.556 -0.1272  0.0198 -0.1015
10504W        W10504   2.550   8.305   0.050  0.2031  0.0477  0.1696
10505W        W10505   5.976   9.357   9.616  0.0822  0.5062 -0.0102
10506W        W10506   3.494   2.812   4.235  0.1004 -0.1106  0.3670
10507W        W10507   7.340   4.865   3.289  0.0059 -0.1925 -0.0449
10508W        W10508   2.665   4.035   0.439  0.1094 -0.0087 -0.0750
10509W        W10509   6.636   7.592   2.357 -0.2855  0.0327  0.2106
10510W        W10510   1.070   4.699   8.946  0.1881  0.0627  0.3195
10511W        W10511  10.177   2.332   5.078 -0.0756  0.0824 -0.0365
10512W        W10512   3.641   5.292   0.791 -0.1149 -0.0299  0.0157
10513W        W10513   3.802   3.367   1.810  0.2000  0.1309 -0.1223
10514W        W10514   5.372  10.109  10.239  0.5935 -0.0033  0.0351
10515W        W10515  10.001  10.290   5.936  0.0050  0.3895  0.2598
10516W        W10516   6.048   5.446   0.271 -0.3280 -0.0729  0.2403
10517W        W10517   1.903   7.996   5.251  0.0775 -0.1078  0.1332
10518W        W10518   6.047   9.305   6.808 -0.0635 -0.0993 -0.0992
10519W        W10519   2.646   8.464   3.072  0.0734  0.0241 -0.0905
10520W        W10520   6.946   7.226   8.582 -0.1646 -0.2072  0.1849
10521W        W10521   8.922   5.706   7.400 -0.0402 -0.0319  0.0496
10522W        W10522   5.035  10.004   2.008  0.1807  0.0723 -0.2122
10523W        W10523   7.568   0.757  10.150  0.0158  0.0172  0.1585
10524W        W10524   5.189   3.936   7.215 -0.0439 -0.2438  0.1095
10525W        W10525   8.651   0.855   8.529 -0.0482 -0.0303  0.0558
10526W        W10526   6.809   3.996  10.267 -0.1025  0.0453 -0.1299
10527W        W10527   1.341  10.298   2.878 -0.0912 -0.0074 -0.2189
10528W        W10528   3.183   5.598   0.654 -0.2912 -0.0323  0.1258
10529W        W10529   7.825   4.049  10.137 -0.0408  0.0418 -0.2078
10530W        W10530  10.023   4.872   8.661 -0.1308  0.0773  0.1687
10531W        W10531   4.572   9.259   1.180  0.2291 -0.1033 -0.0446
10532W        W10532  10.290   7.142   2.290  0.1142  0.4867  0.1827
10533W        W10533   9.521   5.176   2.937 -0.0790 -0.0576  0.3617
10534W        W10534   3.508   1.809   6.021 -0.0175 -0.4779  0.0570
10535W        W10535  10.128   3.867   6.461  0.1318 -0.3023  0.3259
10536W        W10536   3.354   8.512   0.942  0.2182 -0.0548 -0.1606
10537W        W10537   2.023   7.621   4.824 -0.3418  0.1613  0.1337
10538W        W10538   1.533   0.689   0.876  0.0076 -0.1552 -0.1706
10539W        W10539   1.499   0.408   7.032  0.0194  0.1242  0.0056
10540W        W10540   9.512   8.505   2.974 -0.3912 -0.0607  0.0961
10541W        W10541   0.373   0.835   2.261 -0.1190 -0.1744 -0.2751
10542W        W10542   7.311   9.521   4.967 -0.0441  0.0214  0.0653
10543W        W10543   2.626   8.095   1.037  0.0038  0.1298 -0.0576
10544W        W10544   2.812   7.028   9.914  0.1109  0.0315  0.1652
10545W        W10545   7.540   4.435   2.766 -0.2352 -0.1785  0.2494
10546W        W10546   8.241   7.549   4.459 -0.0607 -0.1273  0.0577
10547W        W10547   3.787   5.156   8.685 -0.1172 -0.1496  0.1949
10548W        W10548   3.566   8.120   6.767 -0.1938  0.0081 -0.1123
10549W        W10549   3.915   7.652   6.767  0.1804  0.2171 -0.2457
10550W        W10550   6.026   7.555   5.665  0.0291  0.2490  0.1406
10551W        W10551   3.520   1.309   5.862  0.2259 -0.0971 -0.2581
10552W        W10552   8.660   9.731   3.322  0.1893  0.0112  0.3649
10553W        W10553   5.583   3.551   9.612  0.0430 -0.1135 -0.1612
10554W        W10554   5.514   8.904   7.354  0.0738  0.1035  0.1185
10555W        W10555  10.107   5.149   4.858  0.0230 -0.1110  0.2223
10556W        W10556   2.376   1.323   3.056  0.5710  0.1358 -0.4200
10557W        W10557   6.658   1.266   5.939 -0.1349  0.3831 -0.1016
10558W        W10558   8.177   3.205   5.392  0.0552  0.1229 -0.0585
10559W        W10559   0.973   9.946   0.699 -0.0667  0.3776  0.0475
10560W        W10560   3.099   1.586   5.743  0.4045  0.0785  0.1856
10561W        W10561   8.842   4.165   8.095  0.2139 -0.0452  0.2279
10562W        W10562   5.325   0.973   4.542  0.1859  0.0767  0.0388
10563W        W10563   5.086   0.215   1.830  0.1038 -0.1450 -0.3629
10564W        W10564   3.973   6.154   8.899 -0.2845  0.1680  0.0760
10565W        W10565   0.138   1.921   8.608 -0.3497 -0.1155 -0.1883
10566W        W10566   0.921   7.248   8.265  0.2319  0.1206  0.2526
10567W        W10567   1.851   4.669   0.105 -0.2843  0.0106 -0.2059
10568W        W10568   0.094   8.669   3.236 -0.1244 -0.1518  0.1883
10569W        W10569   0.506   3.719   1.250  0.1422 -0.0287 -0.1256
10570W        W10570   4.862   4.614   2.402 -0.0637  0.0389 -0.1842
10571W        W10571   6.879   4.641   3.360  0.1369  0.0765 -0.1439
10572W        W10572  10.019   6.086   0.490  0.2325 -0.1899 -0.0175
10573W        W10573   2.231   8.188   2.299 -0.1031  0.0356 -0.0873
10574W        W10574  10.158   8.619   2.673  0.1072  0.0488 -0.2598
10575W        W10575   0.743   3.356   8.789 -0.0646 -0.0725 -0.1369
10576W        W10576   5.896   1.742   5.849  0.1303 -0.0679 -0.0790
10577W        W10577   2.520   7.743   0.101 -0.0820  0.2440  0.0764
10578W        W10578   7.241   6.764   9.698 -0.0672  0.0503 -0.1049
10579W        W10579   5.876   0.596   7.126 -0.3693 -0.0679  0.0048
10580W        W10580   3.372   2.408   5.962  0.0192  0.1922 -0.1168
10581W        W10581   8.193   2.484   7.135  0.1073 -0.1548  0.2895
10582W        W10582   6.488   6.518   4.661  0.4032 -0.1907  0.0049
10583W        W10583   1.940   5.295   0.905 -0.0372 -0.1116  0.0449
10584W        W10584   1.112   2.133   8.223  0.1222 -0.2331  0.0144
10585W        W10585   0.396   2.352   9.419  0.0699 -0.0275 -0.1404
10586W        W10586   4.331   3.198   1.844 -0.0874 -0.1765  0.1325
10587W        W10587   8.386   5.264   8.454 -0.1925 -0.0115  0.1481
10588W        W10588   2.470   0.347   5.214 -0.1224  0.1072  0.1777
10589W        W10589   5.419   4.143   3.869 -0.0856  0.2415 -0.0785
10590W        W10590   8.140   9.018   7.537  0.1810  0.3682 -0.0674
10591W        W10591   6.081   3.970   5.954 -0.0803  0.1314  0.5279
10592W        W10592   1.187   7.904   6.756  0.4590  0.1467  0.0480
10593W        W10593   5.339   2.796   5.847 -0.1194  0.2739 -0.1292
10594W        W10594   3.484   9.115   9.758  0.1725  0.0653  0.1141
10595W        W10595  10.327   4.651   0.980  0.1173 -0.2245 -0.2546
10596W        W10596   0.397   0.339   8.264  0.1853  0.1813  0.0377
10597W        W10597   0.537   6.559   4.453 -0.0518  0.1136 -0.1241
10598W        W10598   9.285   0.481   5.799  0.2101  0.0648  0.0798
10599W        W10599   2.431   2.457   7.042  0.1462  0.0007  0.2484
10600W        W10600   1.749   7.220   5.018  0.0728 -0.2172  0.0907
10601W        W10601   8.340   5.506   6.311  0.0524 -0.1189  0.1392
10602W        W10602   4.314   5.356   8.730  0.0585 -0.1096 -0.2306
10603W        W10603   9.732   1.337   9.610  0.2386  0.0055 -0.0473
10604W        W10604   2.023   1.924   0.606 -0.0455 -0.0386  0.2464
10605W        W10605   5.952   5.473   3.225  0.1695  0.2026  0.2353
10606W        W10606   5.781   5.353   3.712 -0.2435  0.0456 -0.0668
10607W        W10607   3.675   6.738   4.882  0.1484 -0.1012 -0.3498
10608W        W10608   0.283   6.836   4.855 -0.2498  0.0741 -0.1954
10609W        W10609  10.231   1.244   2.406  0.3700  0.0693  0.3235
10610W        W10610  10.019   8.097   3.813  0.1014 -0.2357  0.0503
10611W        W10611   5.822   9.045   3.315  0.1206  0.0850  0.1414
10612W        W10612   9.252   7.320   9.286 -0.1104  0.1384 -0.1032
10613W        W10613   5.618   3.910   2.198  0.2515  0.0181 -0.0418
10614W        W10614   6.286   9.222  10.046 -0.0074 -0.1369 -0.0272
10615W        W10615   5.192   4.818   4.964 -0.0452 -0.1106 -0.0529
10616W        W10616   7.138   8.797   5.368  0.0948  0.0844  0.0418
10617W        W10617   8.009   1.109   0.081  0.0263  0.1052  0.0041
10618W        W10618   0.892   0.954   1.949  0.0397 -0.2808  0.0697
10619W        W10619   6.588   8.803   9.058 -0.0138 -0.1573 -0.1047
10620W        W10620   3.146   9.581   4.238 -0.1788  0.1051  0.0398
10621W        W10621   4.406   7.994   9.744 -0.2310  0.1020  0.2140
10622W        W10622   4.308   8.620   6.402  0.0845  0.3186 -0.5178
10623W        W10623   1.459   7.661   3.504 -0.1679 -0.1866  0.0827
10624W        W10624   0.363   4.122   7.903  0.1856 -0.3660  0.0446
10625W        W10625   2.288   9.763   8.059  0.0344 -0.1011  0.0847
10626W        W10626   5.708   9.427   7.202  0.1776  0.0253 -0.3014
10627W        W10627   2.645   4.622   9.248 -0.0586  0.2553  0.0890
10628W        W10628   4.652   6.009   5.448  0.2978  0.0525 -0.1518
10629W        W10629   2.126   4.163   7.510 -0.0838 -0.3386 -0.4580
10630W        W10630   8.255   7.235   8.260  0.1025  0.1034  0.2721
10631W        W10631   6.535   8.150   4.654 -0.2521  0.0456 -0.1277
10632W        W10632   2.280   2.444   0.606  0.1798  0.0111 -0.0126
10633W        W10633   1.096   3.327   1.617 -0.0356 -0.0793  0.1369
10634W        W10634   6.700   2.658   4.243  0.2160  0.2708 -0.3340
10635W        W10635   9.104   9.103   5.145  0.1323 -0.2299  0.1531
10636W        W10636   7.805   2.906   5.219 -0.1656  0.1241  0.1491
10637W        W10637   8.481   4.210   4.297  0.1238  0.0316  0.2470
10638W        W10638   2.360   9.013   8.750  0.1235  0.2967  0.1493
10639W        W10639   9.594   9.126   5.179 -0.1886  0.0072  0.3169
10640W        W10640   8.420   5.650   5.468 -0.3427  0.0269 -0.2162
10641W        W10641   5.114   7.934   0.140  0.1204 -0.0640 -0.1107
10642W        W10642   6.912   2.832   8.018 -0.1662  0.2673 -0.3226
10643W        W10643   7.401   8.722   2.071 -0.1909  0.0161  0.1451
10644W        W10644   5.972   6.378   0.529 -0.4329 -0.0404  0.2508
10645W        W10645   1.410   9.002   1.852  0.0703 -0.1425 -0.0709
10646W        W10646   3.473   4.413   5.265  0.0839  0.0247 -0.0694
10647W        W10647   5.225   3.896   9.524  0.1235 -0.0848 -0.0107
10648W        W10648   9.483   4.458   5.102  0.1118  0.4359  0.1324
10649W        W10649   1.079   0.024   5.199 -0.1129 -0.2324  0.0258
10650W        W10650   1.838   7.378   9.627  0.1755 -0.0773 -0.1172
10651W        W10651   4.481   7.361   1.504 -0.1845 -0.0020  0.3505
10652W        W10652   9.136   3.570   9.529 -0.0577  0.2016 -0.0500
10653W        W10653   3.615   2.995   3.187 -0.2258  0.1045 -0.0518
10654W        W10654   3.470   7.908   9.111  0.0932  0.0987 -0.2934
10655W        W10655   1.487   5.540   6.494 -0.2231 -0.1623 -0.2733
10656W        W10656   4.055   7.937   1.957  0.2766  0.2346  0.1366
10657W        W10657   0.127   2.604   7.739  0.2683 -0.0849 -0.1915
10658W        W10658   5.552   9.894   2.119 -0.2687 -0.1148 -0.0599
10659W        W10659   8.682  10.206   1.292 -0.0645  0.1499  0.0882
10660W        W10660   3.533   1.255   6.391 -0.1564  0.1859 -0.3523
10661W        W10661   3.673   2.137   8.683  0.0954 -0.1133 -0.0099
10662W        W10662   9.402   4.056   9.926  0.0025  0.0214  0.1927
10663W        W10663   7.630   6.925   0.606 -0.2660 -0.2016 -0.1706
10664W        W10664   2.797   1.665   8.373 -0.0034 -0.2628  0.2186
10665W        W10665   4.025   6.534   9.628  0.1340  0.1075  0.0683
10666W        W10666   1.744   1.513   1.791 -0.5093 -0.1278 -0.1048
10667W        W10667   7.785   9.484   4.956 -0.0504  0.3014  0.0250
10668W        W10668   9.563  10.084   2.952  0.0532  0.1534  0.1617
10669W        W10669   2.052  10.175   8.215  0.1950 -0.0849 -0.2675
10670W        W10670   8.231   4.224   9.002  0.0281 -0.0706 -0.1033
10671W        W10671   7.752   8.037   2.661  0.4052  0.1066 -0.0154
10672W        W10672   9.214   5.722   8.765  0.1524 -0.0359  0.1035
10673W        W10673   8.758   4.013   0.630  0.2084  0.3706 -0.0191
10674W        W10674   2.669   9.647   8.793 -0.2051 -0.0646  0.0490
10675W        W10675   8.659   6.859   4.199  0.0246 -0.5268 -0.2308
10676W        W10676   5.734   1.206   4.675 -0.2866 -0.2854 -0.0421
10677W        W10677   0.884  10.083   8.893 -0.2051 -0.2227 -0.2411
10678W        W10678   7.233   5.403   6.274 -0.3786 -0.1112 -0.0806
10679W        W10679   5.591   5.959  10.243 -0.1600 -0.0738  0.3451
10680W        W10680   2.670   4.079   2.213  0.3116  0.0105  0.1999
10681W        W10681   5.586   4.503   3.521 -0.4843  0.0850  0.3062
10682W        W10682   7.556   9.230   0.255 -0.0144  0.1161  0.1976
10683W        W10683   2.741   1.382   3.621  0.0911  0.0209  0.0456
10684W        W10684   8.265   9.627   4.121 -0.0151 -0.0467  0.1985
10685W        W10685   8.275   3.026   0.643 -0.2305 -0.3214  0.1207
10686W        W10686   8.432   4.047   9.429  0.4671 -0.1741  0.1044
10687W        W10687   5.593   6.691   7.730  0.1839 -0.1551  0.3401
10688W        W10688   5.323   9.983   8.875  0.3249  0.0963  0.4773
10689W        W10689   2.937   8.715   2.004 -0.1722 -0.0519 -0.1660
10690W        W10690   8.828   8.742   2.517 -0.3078  0.0420 -0.0586
10691W        W10691   0.352   9.089   1.123  0.4423 -0.3387  0.1085
10692W        W10692   6.965   1.364   2.151  0.0028  0.1103 -0.2887
10693W        W10693   2.876   1.483   6.478 -0.1488  0.2121 -0.2148
10694W        W10694  10.192   2.289   4.235  0.0200 -0.2445 -0.1022
10695W        W10695   3.234   2.022  10.271 -0.0173  0.1350 -0.4761
10696W        W10696   9.089   6.221   8.666  0.1361  0.0333 -0.2119
10697W        W10697   8.021   0.257   5.547  0.0621  0.2151 -0.0964
10698W        W10698   9.175   5.896   0.136 -0.1864  0.2890 -0.1354
10699W        W10699   8.562   6.085   6.956 -0.0501  0.1986 -0.0335
10700W        W10700   3.795   3.199   4.004  0.5566  0.0089  0.2164
10701W        W10701   1.746   5.815   4.746  0.0757  0.1021  0.0782
10702W        W10702   4.491   0.082   7.764  0.2024  0.0406  0.1656
10703W        W10703   4.262   7.473   9.526  0.1163  0.0270  0.3842
10704W        W10704   4.929   3.115   4.711  0.0129 -0.3161  0.0265
10705W        W10705   4.409   3.653   6.326  0.1498 -0.2074  0.2090
10706W        W10706   2.820   5.171   3.244  0.0291 -0.1015  0.0644
10707W        W10707   3.850   2.169   7.226  0.0284 -0.1307  0.1928
10708W        W10708   7.663   8.418   5.853  0.0702  0.1181 -0.1478
10709W        W10709   7.403   0.718   6.854 -0.1332  0.2918 -0.2389
10710W        W10710   7.432   2.031   0.408 -0.0453 -0.1779  0.0901
10711W        W10711   5.593   4.674   5.298  0.2139 -0.0277 -0.3177
10712W        W10712   2.420   8.587   4.398  0.3188  0.2077  0.2964
10713W        W10713   5.312   6.071   7.065  0.0268  0.2650  0.1375
10714W        W10714   6.229   4.779   9.998  0.0297  0.3553 -0.2443
10715W        W10715   8.206   9.566   9.892 -0.0511 -0.1138 -0.2966
10716W        W10716   1.161   8.892   0.023 -0.0988  0.3103 -0.1209
10717W        W10717  10.280   0.010   2.039  0.1447 -0.3168  0.0281
10718W        W10718   5.264   0.389   0.082  0.0672  0.0554  0.4168
10719W        W10719   3.351   7.665   6.697  0.2273 -0.2208 -0.0595
10720W        W10720   8.014   6.960   3.060  0.2708  0.2024 -0.1816
10721W        W10721   9.924   1.035  10.071 -0.2671 -0.0281  0.0281
10722W        W10722   2.544  10.267   6.236 -0.0725  0.1502  0.0487
10723W        W10723   1.457   6.124  10.319  0.1296 -0.0872 -0.0904
10724W        W10724   7.314   4.584   4.206  0.0831 -0.0943  0.1326
10725W        W10725   0.310   9.968   6.223 -0.1689 -0.2603 -0.0799
10726W        W10726   0.726   1.537   2.660  0.0493 -0.2177  0.1391
10727W        W10727   0.021   4.331  10.139  0.3441  0.1707 -0.0537
10728W        W10728   6.414   8.368  10.329  0.0122  0.3192 -0.0610
10729W        W10729   6.690   1.339   3.463  0.0719  0.1733  0.3032
10730W        W10730   0.364   1.444   9.298 -0.1325  0.1064  0.0174
10731W        W10731   4.870   5.180   5.039 -0.0972 -0.0934  0.3462
10732W        W10732   3.934   9.951   9.283 -0.0092 -0.0261 -0.1379
10733W        W10733   1.962   2.133   8.638  0.1904  0.1408  0.0793
10734W        W10734   6.825   5.241   8.906 -0.3428 -0.4059 -0.0316
10735W        W10735  10.089   0.637   3.503  0.0916  0.3103  0.3492
10736W        W10736   7.359   0.692   5.078  0.1677 -0.4120  0.1667
10737W        W10737   8.973   1.374   0.539 -0.2433 -0.0684 -0.0764
10738W        W10738   6.369   7.356   7.873  0.0304  0.1879 -0.0360
10739W        W10739   9.854   0.306   5.450  0.0105  0.2385 -0.0220
10740W        W10740   8.739   5.346   2.330 -0.0050  0.0762 -0.0267
10741W        W10741   5.242   0.440   1.119 -0.0521  0.1993 -0.0348
10742W        W10742   4.703   7.155   9.978 -0.0519  0.1827  0.0858
10743W        W10743   1.135   7.302   4.129  0.0512  0.0813 -0.2532
10744W        W10744   4.101   8.413   8.871 -0.1597  0.2978  0.2155
10745W        W10745   6.835   7.832   3.686  0.0237  0.0258  0.0299
10746W        W10746   0.132   1.047   7.025 -0.2175 -0.0781  0.0033
10747W        W10747   9.569   2.752   9.092 -0.1277 -0.1364  0.0650
10748W        W10748   8.484  10.130   5.814  0.0539  0.0598  0.2139
10749W        W10749   4.388   2.835  10.182 -0.1088  0.1111 -0.0990
10750W        W10750   9.117   7.464   4.228  0.2267  0.3037 -0.0812
10751W        W10751   2.140   3.077   0.097  0.1189 -0.0269  0.2018
10752W        W10752   8.441   6.167   1.914 -0.2501  0.1319 -0.1194
10753W        W10753   8.917   0.604   3.090  0.0880 -0.0068  0.3971
10754W        W10754   3.807   1.727   9.422  0.2017  0.0860  0.2192
10755W        W10755   9.796   9.574   2.904  0.1571 -0.1656 -0.5169
10756W        W10756   3.117   5.369   4.141  0.2702  0.1031  0.1021
10757W        W10757   3.853   9.058   6.470  0.0540  0.3965 -0.0136
10758W        W10758   5.281   6.050   0.440  0.1117 -0.0199  0.1293
10759W        W10759   8.202   9.580   6.199  0.1968 -0.1755 -0.2940
10760W        W10760   3.379   2.382   4.628  0.0243  0.0408 -0.2261
10761W        W10761   8.767   9.667   6.561  0.0962 -0.1597 -0.0917
10762W        W10762   3.848   7.929   2.534 -0.1046 -0.1432  0.2542
10763W        W10763   3.621   5.142   8.036  0.1278 -0.0755 -0.1479
10764W        W10764   8.864   4.567   6.066  0.0239  0.2390 -0.3546
10765W        W10765   0.864   0.055   4.389  0.1492  0.1143 -0.0742
10766W        W10766   5.211   6.144   3.501 -0.1658  0.3272 -0.2336
10767W        W10767   2.948   9.424   0.566  0.0173  0.0994 -0.3607
10768W        W10768   4.160   2.387  10.228  0.1645  0.2195  0.0063
10769W        W10769   4.893  10.162   7.599  0.0168 -0.1719 -0.2738
10770W        W10770   1.981   3.593   5.103 -0.1506 -0.1559 -0.0408
10771W        W10771   5.712   8.172   4.460  0.3281  0.0310 -0.0382
10772W        W10772   7.373   6.617   5.720  0.0472  0.2290  0.3258
10773W        W10773   2.240   9.365   4.855  0.0727  0.1562 -0.3575
10774W        W10774   5.492   1.236   9.046 -0.1920  0.0920  0.0510
10775W        W10775   9.087   2.935   9.002 -0.1309 -0.1125 -0.0305
10776W        W10776   7.796   8.547   8.649  0.1370  0.1669  0.2619
10777W        W10777   9.026   1.816   6.980  0.1929  0.0407 -0.0201
10778W        W10778   9.464   4.338   0.103  0.0185  0.0507 -0.0275
10779W        W10779   8.646   2.488   7.500 -0.3239  0.2754  0.0115
10780W        W10780   0.960   7.730   3.181 -0.0265  0.1836  0.0535
10781W        W10781   2.185   1.681   2.722  0.1501 -0.1563  0.2579
10782W        W10782   7.437   2.403   9.829  0.0001  0.1082  0.0355
10783W        W10783   9.469   0.935   1.504  0.1525  0.0103 -0.1529
10784W        W10784   5.339   7.335  10.326  0.0207 -0.0246  0.0833
10785W        W10785   6.353   1.053   3.149  0.0576 -0.2099 -0.1857
10786W        W10786   1.802   8.952   5.548  0.2288 -0.1053  0.0626
10787W        W10787   7.443   3.344   8.096 -0.1414  0.0760 -0.0568
10788W        W10788   0.140   8.078   9.487 -0.0355 -0.1068  0.3168
10789W        W10789   8.430   4.579   9.360  0.0933  0.1556  0.1074
10790W        W10790  10.253   1.319   3.082  0.1576  0.1232 -0.4241
10791W        W10791   2.208   0.909   3.247  0.1015  0.5328  0.2628
10792W        W10792   3.987   5.952   4.889  0.2526 -0.2416  0.0423
10793W        W10793   4.230   5.714   6.843  0.2116 -0.1093 -0.1283
10794W        W10794   3.682   6.888   1.701 -0.0827 -0.3822 -0.1049
10795W        W10795   7.367   5.855   1.328 -0.0660  0.0986  0.0858
10796W        W10796   1.122   8.245   4.585  0.1462  0.2405  0.2375
10797W        W10797   0.277   5.441   9.083 -0.1109 -0.2673  0.3139
10798W        W10798   5.204   2.013   9.743 -0.2144 -0.1390 -0.1317
10799W        W10799   5.054   1.367   7.957  0.0007  0.2888 -0.2642
10800W        W10800   0.604   8.749   7.550 -0.0141  0.1424 -0.4697
10801W        W10801   3.496   1.560   0.122 -0.1831 -0.0860  0.0548
10802W        W10802   8.193   4.840   0.384 -0.1266 -0.0695 -0.0797
10803W        W10803   5.255   6.783   0.213  0.2409  0.0864  0.1715
10804W        W10804   2.787   0.111   4.513  0.1265 -0.1406  0.1451
10805W        W10805   2.240   5.002   7.516 -0.3381  0.0135 -0.0189
10806W        W10806   0.500   2.752   8.683  0.0593  0.0918 -0.3240
10807W        W10807   1.753   3.276   6.309 -0.3144  0.4597 -0.1898
10808W        W10808   1.721   0.687   1.342 -0.0817 -0.5589 -0.2547
10809W        W10809   0.077   1.324   0.402  0.0434  0.1138  0.2180
10810W        W10810   5.914   1.668   1.863  0.1514  0.1114 -0.0128
10811W        W10811   0.187   6.482   9.483  0.0481  0.1805  0.1049
10812W        W10812   8.233   7.467   7.472  0.3060  0.2211 -0.0167
10813W        W10813   5.619   3.301   7.865 -0.0524 -0.0838 -0.1151
10814W        W10814   5.945   5.812   7.022  0.0500 -0.1335  0.2364
10815W        W10815   9.146   0.857   4.575  0.1005 -0.0821 -0.1065
10816W        W10816   1.090   1.466   7.799 -0.3900  0.2871 -0.0437
10817W        W10817  10.161   8.647   5.920 -0.0797 -0.0807  0.0818
10818W        W10818  10.303   7.139   6.747 -0.0726  0.3243 -0.1083
10819W        W10819   3.474   6.860   3.156 -0.0203  0.3553 -0.3216
10820W        W10820   2.183   5.261   4.033 -0.1965 -0.1810  0.0129
10821W        W10821   6.449   9.614   3.520  0.1380 -0.0571 -0.0332
10822W        W10822   3.451   7.774   8.026  0.1644 -0.3136  0.1595
10823W        W10823   9.259   2.593   2.602  0.0518 -0.0794  0.1946
10824W        W10824   5.580   6.428   0.205  0.1758  0.2337 -0.1713
10825W        W10825   8.345   3.521   2.650  0.1319  0.1015 -0.3571
10826W        W10826   7.217   7.139   5.671 -0.1292 -0.1091 -0.3316
10827W        W10827   7.202   2.834   6.662  0.3007  0.0564 -0.2025
10828W        W10828   7.420   3.208   8.710  0.0460 -0.2109  0.2364
10829W        W10829   8.334   0.504   8.426  0.1138  0.2056  0.1459
10830W        W10830   2.435   7.030   5.434 -0.1987 -0.0908  0.2368
10831W        W10831   4.429   2.613   0.558  0.0173  0.2757  0.2920
10832W        W10832   5.426   3.742   7.729 -0.0745  0.1926 -0.0818
10833W        W10833   4.671   0.481   0.809  0.0507  0.1200  0.1240
10834W        W10834   6.797   3.290   9.011 -0.5346  0.0586 -0.0665
10835W        W10835   4.452   6.234   6.710  0.1646 -0.0743 -0.2626
10836W        W10836   4.113   2.640   3.552  0.1818  0.1121  0.3211
10837W        W10837   4.278   9.645   8.935 -0.2771 -0.1885 -0.1613
10838W        W10838   6.211   1.378   4.888 -0.1337 -0.3614  0.1875
10839W        W10839   5.297   3.995   5.296  0.0656 -0.3850 -0.0684
10840W        W10840   5.059   4.315   4.192  0.1070 -0.1150 -0.1548
10841W        W10841   5.480   1.450   7.040 -0.0013 -0.2155 -0.2980
10842W        W10842   1.446   6.685   8.432  0.2410 -0.0735 -0.0895
10843W        W10843   5.753   3.336   1.311 -0.1113  0.4894  0.0373
10844W        W10844   9.689   7.761   7.360 -0.3186 -0.2845  0.2191
10845W        W10845   2.427   9.339   1.138  0.0981 -0.1407 -0.0021
10846W        W10846   5.858   3.487   2.365  0.3529 -0.0428 -0.0868
10847W        W10847   8.581   5.999   2.384 -0.2540 -0.1661 -0.3460
10848W        W10848   1.044   9.866   1.232 -0.0732  0.2337  0.2703
10849W        W10849   8.921   4.432   5.348 -0.0037 -0.0761  0.0624
10850W        W10850   1.453   0.496   3.127 -0.0769 -0.0052 -0.1434
10851W        W10851   5.697   9.545   1.344 -0.2364  0.2073 -0.1104
10852W        W10852   2.706   1.498   7.176  0.2898 -0.1692 -0.0504
10853W        W10853   9.134   9.535   7.670  0.2460 -0.1095 -0.3037
10854W        W10854   8.060   9.925   4.455  0.3430  0.3104  0.1223
10855W        W10855  10.030   8.380   9.683  0.0074  0.0651  0.1077
10856W        W10856   1.906   1.071   7.287  0.0212 -0.0200  0.2806
10857W        W10857   6.438   3.669   1.834 -0.0958 -0.3698  0.0312
10858W        W10858   3.579   9.238   5.626  0.1461 -0.1822 -0.2974
10859W        W10859  10.158   5.341   8.581 -0.1871 -0.1498 -0.0701
10860W        W10860   7.973   3.183   4.221  0.0078  0.2246  0.1486
10861W        W10861   5.364   5.560   0.176 -0.1279  0.2203  0.0115
10862W        W10862   9.753   8.000  10.103 -0.0686 -0.3768 -0.0297
10863W        W10863   5.183   9.277   1.637  0.1317 -0.1485 -0.0617
10864W        W10864   4.831   1.495   9.582  0.1888 -0.1942 -0.3138
10865W        W10865   5.968   0.198   2.267  0.0088 -0.2553 -0.1906
10866W        W10866   3.392   7.529   4.884  0.1507 -0.0636 -0.1759
10867W        W10867   4.519   8.790   7.113  0.2327 -0.0066 -0.0665
10868W        W10868   4.772   1.433   5.628 -0.1481 -0.2110 -0.1415
10869W        W10869   4.807   1.156   4.198 -0.0595  0.0019  0.3434
10870W        W10870   2.537   1.260   0.998  0.2120 -0.0114 -0.0242
10871W        W10871   6.432   0.217   5.289  0.0292 -0.1481 -0.1164
10872W        W10872   3.042   5.692   5.496 -0.0408 -0.1062  0.2355
10873W        W10873   3.692   8.529   3.670  0.0037 -0.0292  0.2038
10874W        W10874   5.754   9.988   2.881 -0.2425  0.0303  0.0355
10875W        W10875   8.487   3.885   5.805  0.2819  0.0101 -0.0132
10876W        W10876   7.331   2.983   6.202  0.1516 -0.0681 -0.2280
10877W        W10877   1.237   5.193   1.506  0.1233 -0.0956  0.4786
10878W        W10878   3.499   9.525   1.971  0.2344  0.2255 -0.2632
10879W        W10879   5.801   4.328   7.125  0.0377  0.0456 -0.1182
10880W        W10880  10.116   6.755   6.007 -0.2110 -0.1554  0.1363
10881W        W10881   7.845   1.408   7.625 -0.3190 -0.3735 -0.1155
10882W        W10882   7.384   7.208   1.307  0.1708  0.1597  0.0452
10883W        W10883   8.632   6.346   0.669  0.1352  0.0059 -0.1103
10884W        W10884   5.701   9.456   1.853  0.2461 -0.0862 -0.0824
10885W        W10885   2.944   5.084   6.512 -0.0313  0.1884  0.0167
10886W        W10886   9.069   8.300   2.681 -0.0384 -0.0300 -0.0011
10887W        W10887   9.447   9.691   1.298 -0.3007  0.1633  0.0977
10888W        W10888   1.827   3.555   9.873 -0.0369 -0.0919 -0.0209
10889W        W10889   8.479   5.556   2.746 -0.0534 -0.0073 -0.0539
10890W        W10890   5.502   5.232   1.786  0.1671 -0.3381 -0.1387
10891W        W10891   1.307   6.798   3.255 -0.3673  0.2072 -0.0144
10892W        W10892   8.689   5.155   8.821 -0.1415  0.0373 -0.1360
10893W        W10893   7.365   3.731   0.730  0.0527 -0.1403  0.2647
10894W        W10894   7.453   1.104   6.551 -0.2723  0.0647 -0.0159
10895W        W10895   3.756   3.377   3.476  0.1415 -0.1583  0.5227
10896W        W10896   8.308   1.119   6.798 -0.0585  0.2108 -0.0526
10897W        W10897   4.368   7.571  10.022  0.0082  0.0033 -0.0392
10898W        W10898   7.848   4.171   7.701 -0.0652 -0.1192 -0.2234
10899W        W10899   5.590   6.778  10.136  0.2252 -0.2182  0.1945
10900W        W10900   8.985   8.793   4.679  0.1405  0.1202 -0.3326
10901W        W10901   5.301   9.142   8.837  0.0423  0.0561 -0.1164
10902W        W10902   0.508   7.457   2.988  0.0154  0.2050 -0.2927
10903W        W10903   7.316   6.341   1.552 -0.1524 -0.0657 -0.1842
10904W        W10904   5.818   1.903   1.420 -0.0891  0.1069 -0.2224
10905W        W10905   2.192   7.881   8.409  0.0016 -0.0098 -0.1005
10906W        W10906   6.781   0.337   5.689 -0.0424 -0.0012 -0.0885
10907W        W10907   7.358   3.860   9.979  0.1155  0.1354 -0.3692
10908W        W10908   3.970   4.938   5.746  0.0574  0.0064 -0.0001
10909W        W10909   7.317   4.213   5.083 -0.0581 -0.1441 -0.2403
10910W        W10910   4.318   9.767   4.829 -0.1669  0.0758  0.1399
10911W        W10911   6.453   5.536   2.517 -0.1796  0.0798 -0.4047
10912W        W10912   2.006   7.722   7.646  0.0187  0.2386 -0.0678
10913W        W10913   2.441   6.276  10.117 -0.0586 -0.1962 -0.2107
10914W        W10914   1.672   4.129   9.396  0.2749  0.1766  0.4082
10915W        W10915   8.517   0.710   7.538  0.2112 -0.0354 -0.0680
10916W        W10916   2.602   7.320   0.400 -0.0268  0.4888 -0.0941
10917W        W10917   3.456   6.283   6.182 -0.1701 -0.1684  0.2194
10918W        W10918   2.415   2.623   0.121 -0.3440  0.1919 -0.1079
10919W        W10919   0.166   1.876   9.104 -0.1257 -0.1466 -0.0502
10920W        W10920   5.190   8.198   0.543  0.1767 -0.2153  0.1760
10921W        W10921   3.993   1.300   4.346  0.0984 -0.1950  0.0243
10922W        W10922   0.761   9.002   2.800 -0.0846 -0.0986  0.2020
10923W        W10923   6.658   1.518   6.847  0.1089 -0.2452 -0.1014
10924W        W10924   1.258   7.007   4.972 -0.1438 -0.0084  0.0019
10925W        W10925   3.588   4.131   4.415  0.0721  0.1573  0.4516
10926W        W10926   4.164   2.211   2.756 -0.0185 -0.0455 -0.0755
10927W        W10927   6.795   6.923   4.677 -0.3467 -0.1629  0.2674
10928W        W10928   2.026   5.457   1.814 -0.1361  0.2132 -0.1950
10929W        W10929  10.060   7.848   6.932 -0.1871 -0.2139 -0.0183
10930W        W10930   0.757   7.223   5.053 -0.1570 -0.0569  0.0788
10931W        W10931   2.045   8.850   9.807  0.1215 -0.0322 -0.0012
10932W        W10932   5.597   8.120   6.603  0.2440 -0.1617 -0.3592
10933W        W10933   8.260   6.064   5.702  0.0021 -0.0891  0.2747
10934W        W10934   6.337   3.031   5.449  0.1031 -0.2975  0.1696
10935W        W10935   4.561   2.685   4.856  0.1023  0.0105 -0.1890
10936W        W10936   4.645   2.778   1.675 -0.2032  0.1287 -0.0640
10937W        W10937   5.865   0.280   7.608  0.0302 -0.1001 -0.1430
10938W        W10938   9.484   5.639   0.598  0.2075  0.1410 -0.1193
10939W        W10939   2.296   4.338   2.467 -0.0227 -0.1923  0.1731
10940W        W10940   2.968   9.243   3.087  0.0990 -0.3083 -0.3961
10941W        W10941   6.637   6.397   5.163  0.0452  0.1536  0.2080
10942W        W10942   4.736   8.218   8.933 -0.0792 -0.4125  0.0524
10943W        W10943   4.886   7.428   8.261  0.0518  0.1196 -0.1359
10944W        W10944   5.522   8.375   9.101 -0.0616  0.2611 -0.1881
10945W        W10945   9.147  10.176   7.435  0.2137  0.2835  0.1438
10946W        W10946   3.030   4.176   4.381 -0.2821 -0.1506  0.1796
10947W        W10947   6.303   4.825   4.901  0.1441 -0.1414 -0.1375
10948W        W10948   7.700   4.965   4.149 -0.1822 -0.1079 -0.0426
10949W        W10949   1.573   3.870   4.248 -0.1449 -0.3721  0.2332
10950W        W10950   8.231   3.167   8.009 -0.3704 -0.0943  0.0511
10951W        W10951   7.157   1.728   6.655 -0.1757  0.1402  0.1666
10952W        W10952   7.632   8.445   5.325  0.2359  0.3428 -0.2297
10953W        W10953   5.711   1.902   5.317 -0.1322 -0.0377 -0.0398
10954W        W10954   6.198   1.204   9.954 -0.3842  0.1150 -0.1559
10955W        W10955   0.518   2.924   7.642  0.0550  0.4276  0.0138
10956W        W10956   3.737   5.903   2.123 -0.4738  0.0914 -0.0348
10957W        W10957   1.028   3.445   9.292 -0.2566  0.2342 -0.0229
10958W        W10958   9.808   8.610   8.235  0.1775  0.2238  0.0832
10959W        W10959   7.403   7.430   5.276 -0.0969  0.1711  0.0549
10960W        W10960   6.055   5.204   6.697  0.3149 -0.1425  0.1465
10961W        W10961   3.376   4.905   5.442  0.0383 -0.3743  0.3666
10962W        W10962   4.622   7.771   3.061  0.1341 -0.0504 -0.1061
10963W        W10963   2.599   4.570   6.132  0.1803 -0.4094 -0.0909
10964W        W10964   9.310   8.970   5.597 -0.1774 -0.0218 -0.3903
10965W        W10965   9.646   4.936   4.798  0.1155 -0.0423 -0.1701
10966W        W10966   5.709   3.075   9.678  0.4471  0.2313 -0.2905
10967W        W10967   9.825   5.917   7.172 -0.1122  0.3051  0.2196
10968W        W10968   9.782   1.241   0.141  0.0951 -0.0483  0.1301
10969W        W10969   1.328   0.137   4.647 -0.0630  0.0195 -0.2337
10970W        W10970   5.381   6.747   4.577 -0.0149  0.0519 -0.1167
10971W        W10971   7.357   9.782   3.026 -0.1599  0.1394  0.2113
10972W        W10972   3.152   0.260   9.102 -0.4566  0.2698 -0.1676
10973W        W10973   3.269   6.236   2.116  0.0225 -0.1422 -0.0458
10974W        W10974   1.490   4.454   4.075 -0.3397 -0.1001 -0.0859
10975W        W10975   3.597   1.048   4.467 -0.3386 -0.2496  0.0062
10976W        W10976   6.828   7.334   3.750  0.0026  0.4139 -0.1851
10977W        W10977   3.166   9.576   9.774 -0.1043  0.0580 -0.2428
10978W        W10978   4.309  10.323   2.297 -0.0005 -0.1383 -0.1427
10979W        W10979   5.143   8.308   9.901  0.2236 -0.0806  0.0077
10980W        W10980   2.701  10.059   2.484  0.3965  0.0139  0.0029
10981W        W10981  10.082   3.429   6.267 -0.1753  0.0852 -0.1093
10982W        W10982  10.038   9.772   6.150  0.0072 -0.2382 -0.1526
10983W        W10983   0.924   7.706   1.627  0.3822  0.1045  0.0318
10984W        W10984  10.112   7.725   0.346  0.0104 -0.1877 -0.1465
10985W        W10985   3.688   4.060   6.786 -0.1917  0.1960  0.4489
10986W        W10986  10.187   5.385   8.045  0.0322 -0.1871  0.0323
10987W        W10987   4.203   3.950   1.507 -0.0957 -0.0786 -0.0121
10988W        W10988   4.307   1.407   8.943 -0.1838  0.1105  0.1580
10989W        W10989   0.597   2.248   9.856  0.1278 -0.0296 -0.1783
10990W        W10990   0.961   6.654   8.199  0.0691 -0.2621  0.2930
10991W        W10991   0.894   0.251   9.249 -0.1284 -0.0422 -0.1234
10992W        W10992   8.921   4.780  10.123 -0.1300  0.1103 -0.0810
10993W        W10993   7.393   8.078   7.600 -0.1743 -0.0847 -0.1035
10994W        W10994   2.152   6.268   2.543  0.2259 -0.1287 -0.1650
10995W        W10995  10.090   4.257   1.872 -0.2397  0.0582  0.1628
10996W        W10996   5.752   5.988   4.424 -0.1297  0.1954 -0.1631
10997W        W10997   6.266   6.833   5.017 -0.0843 -0.1461 -0.0147
10998W        W10998   0.610   4.586   6.106 -0.1695  0.0313  0.1764
10999W        W10999   1.811   2.693   8.655 -0.0935  0.0675 -0.1788
11000W        W11000   5.723   2.531   0.225  0.0068  0.1444 -0.2704
11001W        W11001   5.072   0.888   0.043  0.5613  0.0992  0.2854
11002W        W11002   3.838   6.378  10.100  0.4021  0.1417 -0.1338
11003W        W11003   2.297   0.741   5.494  0.2975  0.0111  0.2045
11004W        W11004   6.641   2.808   8.596  0.0855  0.0271  0.3554
11005W        W11005   6.523   7.088   6.886 -0.1604 -0.1034 -0.1205
11006W        W11006   9.795   4.807   5.774 -0.0429 -0.0852  0.2893
11007W        W11007   3.017   8.309   8.930  0.1752 -0.1398  0.0443
11008W        W11008   7.736  10.302   0.669  0.0142 -0.4949 -0.2422
11009W        W11009   7.471   0.207   3.336 -0.0422  0.1511 -0.0517
11010W        W11010   1.061   2.956   0.172  0.0128  0.1162  0.0658
11011W        W11011   1.726   6.008   8.667 -0.0309 -0.0283  0.3214
11012W        W11012   2.087   2.725   7.814  0.1169 -0.0371  0.0334
11013W        W11013   6.872   6.566   0.216  0.2052 -0.2375 -0.0729
11014W        W11014   4.814   8.153   2.291  0.2553  0.4033 -0.2732
11015W        W11015   3.248   0.279   1.265 -0.2271 -0.1295 -0.0261
11016W        W11016   1.120   5.093   7.771 -0.1642 -0.0828 -0.1111
11017W        W11017   4.745   9.422   2.313 -0.1981  0.0855  0.1933
11018W        W11018   1.772   4.671   1.699 -0.0051  0.0403  0.0908
11019W        W11019   6.982   3.365   0.800 -0.2292 -0.3730  0.2703
11020W        W11020   4.156   1.019   7.486  0.0279 -0.0753  0.0503
11021W        W11021   3.455   7.269   8.470 -0.0237  0.1249  0.0562
11022W        W11022   1.837   9.944   5.264  0.2046  0.2265  0.2479
11023W        W11023   7.067   0.453   8.100  0.1733  0.2779  0.2495
11024W        W11024   9.672   7.189   0.162  0.2050  0.1631  0.1666
11025W        W11025   9.975   4.427   9.141  0.2085 -0.0913 -0.2106
11026W        W11026   5.251   4.649   1.902  0.0711  0.1756  0.4143
11027W        W11027   2.841   9.434   3.545  0.1878  0.0068 -0.0343
11028W        W11028   4.590   7.375   3.590 -0.2517 -0.2112 -0.2445
11029W        W11029   3.230   0.374   4.210  0.0649 -0.0156 -0.0061
11030W        W11030   7.740   7.376   0.798  0.1212 -0.4073 -0.1785
11031W        W11031   9.842   0.283   7.946  0.2139 -0.1645  0.0826
11032W        W11032   0.162   8.691   3.779 -0.0699  0.1204  0.2429
11033W        W11033   0.681   8.238   7.476  0.0010  0.2148 -0.0535
11034W        W11034   0.537   1.754   6.290  0.2084 -0.0305 -0.0541
11035W        W11035   9.798   3.397   0.771  0.0159 -0.0537  0.2009
11036W        W11036   7.448   1.787   4.762  0.0350  0.1486 -0.0347
11037W        W11037   4.906   0.992   6.879 -0.1605 -0.2681 -0.0672
11038W        W11038   2.602   9.159   7.315  0.0879  0.2657  0.1688
11039W        W11039   5.548   5.036   8.391  0.0160  0.0738 -0.0477
11040W        W11040   7.318   6.032   1.970 -0.4345 -0.0443 -0.2965
11041W        W11041  10.289   7.312   4.643  0.0023 -0.1434 -0.1687
11042W        W11042   0.916   2.394   1.225  0.0452 -0.3959 -0.2693
11043W        W11043   3.744   4.233   1.178  0.0460 -0.1505 -0.0125
11044W        W11044   6.319   9.193   7.782  0.1685 -0.1345 -0.1453
11045W        W11045   2.083   2.184   6.229 -0.0998  0.2313  0.0794
11046W        W11046   8.926   7.232  10.073 -0.1982 -0.2353  0.2786
11047W        W11047   7.188   8.565   7.808 -0.0573 -0.1417  0.1686
11048W        W11048   2.970   4.145   0.897  0.0570  0.0164  0.2366
11049W        W11049   0.793   5.075   2.694 -0.1054  0.1939  0.2661
11050W        W11050   8.945   5.533   0.770 -0.0751  0.0181  0.4749
11051W        W11051   7.512  10.327   9.290 -0.3015 -0.0877 -0.2784
11052W        W11052   0.260   6.468   5.622 -0.2035  0.0442 -0.0101
11053W        W11053   8.509   0.301   1.174 -0.1004  0.2762 -0.0984
11054W        W11054   0.368   3.976   9.074 -0.0807 -0.0252 -0.0942
11055W        W11055   1.780   3.192   7.414 -0.1990  0.1268  0.0352
11056W        W11056   0.108   5.551   5.329  0.1469 -0.0125 -0.0757
11057W        W11057   5.341   0.153   3.883  0.1822  0.2748 -0.2033
11058W        W11058   4.401   2.413   5.852  0.3060  0.0926 -0.1133
11059W        W11059   2.117   7.041   2.145 -0.3822  0.2208  0.0586
11060W        W11060   7.757   8.304   2.260 -0.2927 -0.0807 -0.0616
11061W        W11061   1.356   0.912   5.382 -0.0768  0.2672  0.1910
11062W        W11062   0.251   1.960   3.814  0.0961  0.0028  0.1964
11063W        W11063   3.289   3.978   9.350 -0.2154 -0.0789 -0.0816
11064W        W11064   2.292  10.176   5.430 -0.2063  0.0390  0.3672
11065W        W11065   9.545   8.349   8.712 -0.0010  0.0352  0.0653
11066W        W11066   3.018   8.868   6.691  0.3211 -0.1238  0.0434
11067W        W11067   1.565   4.456   0.983  0.2635  0.2501  0.0521
11068W        W11068   6.159   6.190   4.855 -0.3080  0.2223  0.0022
11069W        W11069   4.219   4.848  10.039  0.0154  0.1229  0.1000
11070W        W11070   9.203   2.031   8.555 -0.1692  0.2017 -0.0687
11071W        W11071   2.101   9.155   8.096 -0.0933  0.1243 -0.1520
11072W        W11072   3.285   7.416   8.966  0.2870 -0.1894  0.1379
11073W        W11073   7.296   1.507   1.321  0.2204 -0.1875  0.1447
11074W        W11074   6.878   4.353   9.374  0.0074 -0.0572 -0.1958
11075W        W11075   3.765   3.196   0.154  0.0086  0.3509  0.3971
11076W        W11076   0.096   0.104  10.128  0.0760  0.0179 -0.3375
11077W        W11077   5.364   1.599   6.522 -0.1899  0.2646  0.0778
11078W        W11078   3.973   5.887  10.239 -0.3424 -0.3043  0.0779
11079W        W11079   6.006   7.220   6.992 -0.0651  0.1251 -0.1325
11080W        W11080   0.925   1.913   5.928 -0.2860  0.1917 -0.0571
11081W        W11081   0.447   8.556   4.748  0.0041  0.0945  0.3242
11082W        W11082   6.122   4.602   2.785  0.1366 -0.2151 -0.0358
11083W        W11083   3.594   5.299   4.306  0.2452  0.0302 -0.2860
11084W        W11084   6.011   2.679   7.442  0.0064  0.0637  0.0522
11085W        W11085   7.894   0.757   7.518  0.0319  0.1009 -0.0047
11086W        W11086   0.395   7.906   2.330  0.1315  0.1584  0.0045
11087W        W11087   6.137   7.845   1.525 -0.0595  0.0744  0.0605
11088W        W11088   0.015   0.400   5.404  0.0726 -0.2085 -0.0214
11089W        W11089   1.635   5.001   5.717  0.2219 -0.2392 -0.0273
11090W        W11090   9.877   3.845   3.686  0.0728 -0.2934  0.1063
11091W        W11091   0.739   5.208   9.788  0.0380 -0.2172 -0.4614
11092W        W11092   9.474   0.123   0.290 -0.0454 -0.4977 -0.1260
11093W        W11093   8.041   7.965   9.281 -0.3286  0.2615  0.1228
11094W        W11094   6.963   5.057  10.084  0.0258 -0.0139  0.1541
11095W        W11095   1.410   5.668   2.580 -0.1614 -0.1452  0.1548
11096W        W11096   8.668   9.647   7.517  0.0862 -0.1724 -0.0566
11097W        W11097   4.659   6.124   0.296  0.2589 -0.1199 -0.2356
11098W        W11098   4.388   3.062   4.198 -0.0360  0.0375 -0.1788
11099W        W11099   4.760   4.835  10.116  0.1026 -0.1276 -0.0137
11100W        W11100   5.894   8.163   2.403  0.0894 -0.2640  0.0705
11101W        W11101   5.559   6.254   3.078 -0.0760  0.2531 -0.0497
11102W        W11102   0.321   9.329   9.252  0.2490 -0.1997 -0.3019
11103W        W11103   2.683   7.742   8.263 -0.0340 -0.0076 -0.0712
11104W        W11104   0.754   9.246   4.577 -0.2378  0.0164  0.0694
11105W        W11105   6.453   3.884   0.292 -0.2743  0.1239  0.1281
11106W        W11106   9.038   4.445   7.528 -0.0273  0.2652 -0.2235
11107W        W11107   8.534   7.294   6.913 -0.0040 -0.3813  0.0129
11108W        W11108   3.904   9.995   7.194  0.2114 -0.3492 -0.1559
11109W        W11109   1.532   2.038   6.184 -0.0399 -0.1729 -0.2672
11110W        W11110   4.279   5.599   5.328 -0.0780 -0.0311 -0.0992
11111W        W11111   8.269   0.000   3.578  0.1294 -0.1896 -0.3312
11112W        W11112   3.713   5.600   3.916  0.3001  0.0519  0.0462
11113W        W11113   1.306   9.374   9.676  0.1344 -0.2582  0.2893
11114W        W11114   0.882   4.076   5.946 -0.2016 -0.2123 -0.2620
11115W        W11115   8.976   9.656   4.074 -0.0520  0.2236 -0.0762
11116W        W11116   9.365   8.423   4.695  0.1102 -0.2204 -0.2196
11117W        W11117   6.688   3.303   7.455  0.1647  0.0857  0.1409
11118W        W11118   6.128   0.824   4.739  0.5528  0.5436  0.1805
11119W        W11119   5.627   9.530   6.640 -0.2765 -0.0702 -0.0471
11120W        W11120   2.325   9.607  10.083  0.0812  0.0291  0.0770
11121W        W11121   5.330   6.348   6.561 -0.0045  0.5452 -0.0998
11122W        W11122   4.046   4.088   7.160  0.0024  0.1969 -0.1971
11123W        W11123   2.706   5.417   0.936 -0.0598  0.2469 -0.0907
11124W        W11124   5.431   1.912   1.913  0.1354 -0.1009  0.1887
11125W        W11125   5.628   6.269   6.156  0.1844  0.0234 -0.2309
11126W        W11126   3.239   7.159   2.885 -0.0142 -0.2707 -0.0256
11127W        W11127   9.365  10.064   4.264 -0.0490  0.0419 -0.0489
11128W        W11128   9.514   9.422  10.158 -0.1772 -0.0509  0.0797
11129W        W11129   0.615   4.960  10.324 -0.2204  0.2936  0.3043
11130W        W11130   2.053   2.672   5.343  0.0262 -0.1169 -0.3447
11131W        W11131   6.929   7.829   9.805 -0.0004  0.2245 -0.1280
11132W        W11132   2.368   3.154   6.996  0.2056 -0.0246 -0.0950
11133W        W11133   4.532   0.037   0.609 -0.0472  0.4127  0.0070
11134W        W11134   7.554   4.214   4.024 -0.1214 -0.0204  0.1069
11135W        W11135   2.415   9.572   2.631 -0.0414  0.0154  0.1305
11136W        W11136   2.258   1.343   7.467 -0.1582  0.3621 -0.3788
11137W        W11137   5.411   4.013   1.260 -0.0237 -0.0754 -0.1351
11138W        W11138   5.940   8.368  10.167 -0.1017  0.2886 -0.0016
11139W        W11139   7.796   8.957   0.675 -0.0876  0.0007 -0.1566
11140W        W11140  10.328   4.458   1.478  0.1655 -0.1335  0.2966
11141W        W11141   1.047   5.588   5.380  0.1539 -0.0122  0.1676
11142W        W11142   4.008   6.481   8.094  0.2574  0.0198  0.1993
11143W        W11143   1.089   9.747   5.801 -0.0513  0.1535  0.5012
11144W        W11144   6.866   9.878   6.690 -0.0315 -0.1356  0.0927
11145W        W11145   4.307   6.047   9.904  0.0978  0.4608 -0.3949
11146W        W11146   6.362   0.029   4.232  0.0483 -0.1112 -0.1030
11147W        W11147  10.232  10.307   7.238 -0.0905 -0.0230 -0.0856
11148W        W11148   1.620   5.227   4.113 -0.0294 -0.0377 -0.1166
10.3370 10.3370 10.3370 0.0000 0.0000 0.0000 0.0000 0.0000 0.0000
