t=10000.0 ps
11148
    1COH    COH    1   9.861   2.081   4.186 -0.3530 -0.0415  0.3305
    2COC    COC    2   9.801   2.253   4.405  0.0993 -0.3454 -0.2966
    3COC    COC    3   9.940   2.512   4.511  0.3120  0.0223  0.3988
    4COC    COC    4   9.868   2.475   4.825  0.0325  0.1231  0.5640
    5COC    COC    5   9.816   2.338   5.061 -0.2114 -0.6142  0.1356
    6COC    COC    6   9.667   2.450   5.355 -0.0980 -0.3868 -0.5310
    7COC    COC    7   9.427   2.570   5.199  0.3614  0.0903 -0.0264
    8COC    COC    8   9.417   2.717   4.965  0.2367  0.2250 -0.3047
    9COC    COC    9   9.381   2.488   4.735 -0.2098 -0.4816  0.1387
   10COC    COC   10   9.475   2.210   4.672 -0.0029  0.1501 -0.0383
   11COC    COC   11   9.656   1.995   4.745 -0.5338 -0.2441 -0.3519
   12COC    COC   12   9.775   1.952   5.034  0.0893  0.3733  0.1387
   13COC    COC   13  10.060   1.843   5.059 -0.1721 -0.0784  0.2628
   14COC    COC   14  10.263   1.612   5.135  0.5812  0.3098  0.4401
   15COC    COC   15  10.132   1.352   5.152  0.0894  0.0811  0.0197
   16COC    COC   16  10.057   1.178   4.959  0.4273 -0.3753  0.4071
   17COC    COC   17  10.238   0.900   5.064 -0.0095 -0.1929  0.3398
   18COC    COC   18   0.161   0.914   5.203 -0.1927 -0.1860  0.1851
   19COC    COC   19   0.365   0.730   5.292 -0.2772  0.0915  0.0399
   20COC    COC   20   0.458   0.876   5.522 -0.2038 -0.0133 -0.2281
   21COC    COC   21   0.613   1.103   5.382 -0.2451 -0.3325  0.3901
   22COC    COC   22   0.555   1.136   5.076  0.0791  0.2535  0.0532
   23COC    COC   23   0.724   0.885   5.012 -0.2223 -0.0222 -0.5397
   24COC    COC   24   0.542   0.681   4.858  0.0458  0.0163  0.0817
   25COC    COC   25   0.273   0.784   4.683 -0.1683  0.4661  0.4529
   26COC    COC   26   0.054   0.713   4.490 -0.0084  0.0361  0.2097
   27COC    COC   27  10.180   0.856   4.623 -0.1855 -0.5500  0.2993
   28COC    COC   28  10.100   1.085   4.484  0.0793 -0.1271 -0.1513
   29COC    COC   29  10.159   1.363   4.569  0.2134  0.1727  0.0499
   30COC    COC   30  10.045   1.564   4.729 -0.3142  0.3015 -0.1087
   31COC    COC   31   9.782   1.558   4.885  0.2539 -0.3727 -0.1916
   32COC    COC   32   9.507   1.601   4.835  0.0459 -0.1123 -0.0788
   33COC    COC   33   9.261   1.409   4.794  0.4293 -0.0692 -0.1383
   34COC    COC   34   9.289   1.114   4.822 -0.2777 -0.2632 -0.2889
   35COC    COC   35   9.283   0.894   4.579 -0.0555 -0.1938 -0.2709
   36COC    COC   36   9.543   0.886   4.427  0.0097 -0.0505  0.2712
   37COC    COC   37   9.642   0.623   4.210 -0.1215 -0.0275  0.0505
   38COC    COC   38   9.593   0.712   3.911 -0.1809  0.0992  0.2072
   39COC    COC   39   9.570   1.019   3.819  0.1828  0.3704  0.0931
   40COC    COC   40   9.700   1.302   3.703 -0.1149  0.2575 -0.0167
   41COC    COC   41   9.996   1.392   3.736  0.0129  0.1379 -0.0595
   42COC    COC   42  10.220   1.347   3.560 -0.2899 -0.1418  0.1323
   43COC    COC   43   0.144   1.462   3.483 -0.0444 -0.1343  0.2999
   44COC    COC   44   0.459   1.408   3.509  0.1035  0.3019  0.1554
   45COC    COC   45   0.710   1.591   3.579 -0.2763 -0.1602 -0.0980
   46COH    COH   46   0.745   1.688   3.825 -0.0168  0.0744 -0.2850
   47COH    COH   47   0.007   6.700   1.476 -0.0330  0.1094 -0.4247
   48COC    COC   48  10.138   6.762   1.626 -0.3382 -0.0645 -0.3770
   49COC    COC   49  10.187   7.003   1.814  0.0465  0.0040 -0.1066
   50COC    COC   50   0.082   7.169   1.961  0.0100 -0.3668  0.1018
   51COC    COC   51   0.155   7.350   1.712 -0.4554  0.2128 -0.4408
   52COC    COC   52   0.320   7.610   1.781 -0.3671  0.4828  0.0992
   53COC    COC   53   0.347   7.812   1.511 -0.0764 -0.1526 -0.0276
   54COC    COC   54   0.642   7.840   1.577 -0.0011 -0.1254  0.1499
   55COC    COC   55   0.747   7.571   1.730  0.0847  0.1403 -0.0354
   56COC    COC   56   0.610   7.280   1.751  0.3310 -0.0848  0.0104
   57COC    COC   57   0.577   7.273   2.064  0.2414 -0.1093  0.1443
   58COC    COC   58   0.822   7.406   2.166  0.3804  0.0259  0.3422
   59COC    COC   59   0.879   7.255   2.413  0.5180  0.1646 -0.7538
   60COC    COC   60   0.796   6.971   2.484 -0.0103  0.1021  0.2934
   61COC    COC   61   0.923   6.914   2.761 -0.2239 -0.0010  0.1109
   62COC    COC   62   0.926   7.169   2.906 -0.2689 -0.4133  0.2228
   63COC    COC   63   1.045   7.418   2.852  0.0133 -0.3438  0.4693
   64COC    COC   64   1.291   7.411   2.686 -0.1557  0.1112  0.5177
   65COC    COC   65   1.621   7.437   2.749 -0.0485  0.0092 -0.1429
   66COC    COC   66   1.674   7.148   2.594 -0.0615 -0.3931  0.0546
   67COC    COC   67   1.910   7.017   2.460  0.2393  0.1520  0.2337
   68COC    COC   68   1.966   6.694   2.452 -0.1466 -0.2722  0.3578
   69COC    COC   69   2.285   6.681   2.486  0.0743 -0.5053  0.0343
   70COC    COC   70   2.413   6.579   2.231  0.1458  0.3833 -0.0111
   71COC    COC   71   2.678   6.758   2.222 -0.4924  0.1067  0.2028
   72COC    COC   72   2.680   6.857   2.500  0.0111 -0.1129  0.0273
   73COC    COC   73   2.804   6.820   2.795  0.1137  0.1392 -0.0396
   74COC    COC   74   2.693   6.560   2.912  0.1102 -0.4476  0.1879
   75COC    COC   75   2.619   6.664   3.210  0.3304 -0.2672 -0.0255
   76COC    COC   76   2.406   6.543   3.335 -0.1622 -0.1772 -0.3425
   77COC    COC   77   2.375   6.270   3.301  0.2845 -0.3367  0.2247
   78COC    COC   78   2.531   6.160   3.050  0.5150  0.0568 -0.1387
   79COC    COC   79   2.496   5.850   3.044  0.1141  0.2498  0.6269
   80COC    COC   80   2.656   5.587   3.145 -0.1313 -0.0997 -0.3245
   81COC    COC   81   2.832   5.507   3.410  0.2264  0.3316 -0.3208
   82COC    COC   82   2.706   5.555   3.701 -0.0902  0.2924  0.1083
   83COC    COC   83   2.733   5.332   3.931 -0.0965 -0.0406  0.1575
   84COC    COC   84   2.923   5.068   3.876 -0.2964  0.1999 -0.1402
   85COC    COC   85   2.989   4.883   3.666  0.3600 -0.2048 -0.0052
   86COC    COC   86   3.051   4.709   3.394  0.1507 -0.1018 -0.2928
   87COC    COC   87   2.801   4.526   3.334 -0.5500 -0.0869  0.0257
   88COC    COC   88   2.586   4.633   3.201 -0.0426  0.0118 -0.2576
   89COC    COC   89   2.561   4.744   2.907  0.3248 -0.2220  0.2154
   90COC    COC   90   2.541   4.625   2.583 -0.1965 -0.1337 -0.2024
   91COC    COC   91   2.534   4.345   2.468  0.1298  0.2098 -0.0531
   92COH    COH   92   2.468   4.122   2.575  0.0309 -0.1243  0.4619
   93COH    COH   93   3.862   8.975  10.071  0.1436  0.0805 -1.0250
   94COC    COC   94   4.042   8.843   9.907  0.3806  0.2041  0.0142
   95COC    COC   95   4.242   8.714  10.068  0.0522 -0.1627 -0.3542
   96COC    COC   96   4.245   8.728   0.023 -0.0034 -0.0019 -0.2506
   97COC    COC   97   4.486   8.766   0.221 -0.0536 -0.0451 -0.2138
   98COC    COC   98   4.647   8.623   0.441 -0.0917  0.0561 -0.0182
   99COC    COC   99   4.850   8.436   0.613  0.4761  0.1526  0.6289
  100COC    COC  100   4.802   8.361   0.871  0.2778  0.0950  0.2671
  101COC    COC  101   4.693   8.335   1.149 -0.0513 -0.0558  0.1124
  102COC    COC  102   4.439   8.444   1.178 -0.0377  0.2670 -0.2321
  103COC    COC  103   4.420   8.702   1.265  0.0774 -0.3012  0.0662
  104COC    COC  104   4.448   8.871   1.534 -0.1781  0.0908 -0.0351
  105COC    COC  105   4.355   9.197   1.599 -0.0927  0.4628 -0.4009
  106COC    COC  106   4.533   9.233   1.881  0.1517  0.6731  0.2993
  107COC    COC  107   4.518   9.306   2.182  0.3203  0.3105 -0.0733
  108COC    COC  108   4.742   9.386   2.394 -0.0826 -0.4148  0.1380
  109COC    COC  109   4.773   9.623   2.549  0.1053  0.0893  0.1655
  110COC    COC  110   5.064   9.710   2.490  0.2233 -0.2949 -0.1033
  111COC    COC  111   5.188   9.652   2.750  0.2430 -0.1726 -0.2445
  112COC    COC  112   5.011   9.590   3.023 -0.0880 -0.1423 -0.1733
  113COC    COC  113   5.020   9.810   3.223 -0.4627  0.3608 -0.3037
  114COC    COC  114   4.875   9.989   3.407  0.2456 -0.2465  0.0611
  115COC    COC  115   4.684  10.201   3.309 -0.5353  0.3924 -0.0582
  116COC    COC  116   4.522   0.091   3.331  0.1770 -0.3862 -0.2602
  117COC    COC  117   4.363   0.210   3.587 -0.3158  0.5542  0.0771
  118COC    COC  118   4.127   0.262   3.791 -0.0653 -0.4718  0.2979
  119COC    COC  119   3.939   0.410   3.599 -0.1084 -0.0677 -0.3398
  120COC    COC  120   3.723   0.543   3.765  0.0369 -0.0390  0.2956
  121COC    COC  121   3.542   0.699   3.554 -0.1960 -0.3023  0.1890
  122COC    COC  122   3.628   0.644   3.252  0.0101 -0.2176 -0.4227
  123COC    COC  123   3.406   0.559   3.095  0.1175  0.1518  0.9020
  124COC    COC  124   3.247   0.809   3.052 -0.0448  0.1216  0.2456
  125COC    COC  125   3.179   1.102   3.144  0.0410 -0.2488  0.0331
  126COC    COC  126   3.314   1.231   3.402  0.1469  0.0666 -0.2297
  127COC    COC  127   3.471   1.333   3.614  0.4598  0.0366 -0.0129
  128COC    COC  128   3.770   1.382   3.701  0.0165  0.0582 -0.1671
  129COC    COC  129   3.943   1.628   3.739 -0.1865 -0.2629  0.2329
  130COC    COC  130   3.931   1.896   3.717 -0.1638 -0.2908  0.0248
  131COC    COC  131   3.983   2.234   3.798 -0.5026  0.0127  0.1454
  132COC    COC  132   4.094   2.240   4.097  0.0539 -0.0229  0.2580
  133COC    COC  133   3.912   2.378   4.272 -0.0409  0.0348  0.0601
  134COC    COC  134   3.609   2.339   4.334  0.0988 -0.0483 -0.0293
  135COC    COC  135   3.514   2.130   4.575  0.0806  0.2655  0.2476
  136COC    COC  136   3.211   1.985   4.586 -0.7225 -0.0909 -0.3381
  137COC    COC  137   2.906   1.955   4.625  0.0919 -0.0450 -0.1502
  138COH    COH  138   2.760   1.942   4.417  0.0987  0.2750 -0.1636
  139COH    COH  139   9.427   6.021   9.087 -0.0634  0.3045 -0.4379
  140COC    COC  140   9.506   6.259   9.040 -0.2232  0.2336 -0.1423
  141COC    COC  141   9.447   6.270   8.756  0.2774  0.1597 -0.0212
  142COC    COC  142   9.262   6.052   8.674 -0.2907  0.6953 -0.2498
  143COC    COC  143   9.112   5.918   8.438  0.0787 -0.8619 -0.2200
  144COC    COC  144   8.917   5.764   8.480 -0.1410 -0.5090 -0.0378
  145COC    COC  145   8.712   5.614   8.608 -0.0420 -0.3462 -0.0959
  146COC    COC  146   8.738   5.409   8.816  0.0343 -0.1414 -0.1361
  147COC    COC  147   8.893   5.190   8.695 -0.0704 -0.0828 -0.0027
  148COC    COC  148   9.027   5.287   8.433 -0.2870 -0.1429  0.3591
  149COC    COC  149   8.989   5.086   8.172 -0.0660  0.1627  0.2009
  150COC    COC  150   8.915   4.865   7.964 -0.1652 -0.1694 -0.0802
  151COC    COC  151   9.055   4.943   7.715  0.2708 -0.4550 -0.3597
  152COC    COC  152   9.000   4.814   7.429 -0.0691 -0.4972 -0.0717
  153COC    COC  153   9.031   4.875   7.101  0.1410  0.4126  0.0257
  154COC    COC  154   9.203   4.763   6.887 -0.2334 -0.1479 -0.2559
  155COC    COC  155   9.156   4.489   6.713  0.1109 -0.0144  0.3169
  156COC    COC  156   9.040   4.241   6.870  0.4827  0.3439  0.1521
  157COC    COC  157   8.914   4.045   6.683  0.2254  0.2418 -0.1931
  158COC    COC  158   9.069   3.845   6.523 -0.4964  0.0539  0.3437
  159COC    COC  159   9.233   4.023   6.352  0.1151 -0.1389 -0.0297
  160COC    COC  160   9.523   3.897   6.346  0.0212 -0.3807 -0.4780
  161COC    COC  161   9.563   3.603   6.339 -0.4568  0.5343 -0.0901
  162COC    COC  162   9.503   3.391   6.543 -0.1774  0.2556 -0.2796
  163COC    COC  163   9.287   3.508   6.753  0.0458  0.1225  0.1933
  164COC    COC  164   9.069   3.542   6.979  0.1358 -0.0036 -0.1650
  165COC    COC  165   8.760   3.532   6.929  0.0644  0.4253 -0.2732
  166COC    COC  166   8.794   3.559   6.625  0.2597  0.1184  0.0573
  167COC    COC  167   8.583   3.380   6.475 -0.2176  0.0537  0.1875
  168COC    COC  168   8.343   3.197   6.428 -0.0189 -0.0029  0.0249
  169COC    COC  169   8.403   2.978   6.642  0.4797  0.3529  0.3252
  170COC    COC  170   8.137   2.998   6.794  0.2747 -0.0289 -0.1831
  171COC    COC  171   7.976   3.225   6.716 -0.0073 -0.3102  0.2702
  172COC    COC  172   8.048   3.489   6.663 -0.2699  0.3471  0.3502
  173COC    COC  173   8.189   3.659   6.476 -0.3523 -0.0011 -0.3210
  174COC    COC  174   8.182   3.829   6.272  0.0586  0.5402 -0.1578
  175COC    COC  175   8.362   4.071   6.197  0.2322 -0.1852 -0.0976
  176COC    COC  176   8.256   4.326   6.071 -0.1740  0.0380  0.0415
  177COC    COC  177   7.982   4.370   5.983 -0.4124  0.1063  0.1941
  178COC    COC  178   8.007   4.163   5.736 -0.0583  0.3176 -0.2949
  179COC    COC  179   8.194   4.177   5.489 -0.5341  0.1314 -0.2846
  180COC    COC  180   8.464   4.141   5.631  0.2590 -0.3130 -0.2084
  181COC    COC  181   8.735   4.008   5.662  0.1880  0.0016 -0.0522
  182COC    COC  182   8.936   4.055   5.452 -0.1977 -0.1242  0.0712
  183COC    COC  183   9.014   4.365   5.444 -0.0175  0.2891 -0.0852
  184COH    COH  184   8.955   4.459   5.699  0.1920 -0.3030  0.3368
  185COH    COH  185   3.294   5.074  10.340 -0.1154  0.0686 -0.3266
  186COC    COC  186   3.100   5.215  10.256 -0.3014 -0.1763  0.1464
  187COC    COC  187   3.207   5.270  10.008  0.1619 -0.1369 -0.0878
  188COC    COC  188   2.995   5.310   9.788  0.3541 -0.2061  0.0687
  189COC    COC  189   3.128   5.337   9.550  0.4272  0.2292  0.0054
  190COC    COC  190   3.213   5.594   9.382  0.4101  0.2213  0.1366
  191COC    COC  191   3.468   5.737   9.502  0.5693  0.3171 -0.6278
  192COC    COC  192   3.717   5.593   9.608  0.0722  0.3966 -0.1272
  193COC    COC  193   3.583   5.285   9.626 -0.2704 -0.1113 -0.2134
  194COC    COC  194   3.451   5.004   9.554  0.3183  0.2188 -0.5760
  195COC    COC  195   3.272   4.879   9.781 -0.0613  0.1114 -0.0901
  196COC    COC  196   3.315   4.612   9.943 -0.1366  0.1557  0.0610
  197COC    COC  197   3.073   4.410  10.019  0.3564 -0.0025 -0.0707
  198COC    COC  198   2.861   4.469   9.796  0.2869  0.0131 -0.1032
  199COC    COC  199   2.937   4.642   9.573 -0.3302  0.4838  0.2196
  200COC    COC  200   2.903   4.944   9.475 -0.2158  0.2634 -0.0326
  201COC    COC  201   2.702   4.888   9.219  0.2082 -0.0013 -0.2365
  202COC    COC  202   2.683   4.646   9.028  0.4004  0.0277  0.3268
  203COC    COC  203   2.428   4.499   8.921 -0.1626  0.2635  0.2713
  204COC    COC  204   2.226   4.619   9.013  0.1029 -0.1736 -0.0100
  205COC    COC  205   2.065   4.496   9.276 -0.5324  0.1320 -0.1460
  206COC    COC  206   2.080   4.202   9.237 -0.4744 -0.2730 -0.1111
  207COC    COC  207   2.114   4.129   8.992 -0.1018 -0.1288  0.2166
  208COC    COC  208   1.903   4.129   8.812  0.2884 -0.2087  0.2381
  209COC    COC  209   1.734   4.371   8.922  0.1077  0.2092 -0.2641
  210COC    COC  210   1.621   4.499   9.169 -0.1927 -0.2830 -0.1501
  211COC    COC  211   1.570   4.715   9.392 -0.1665  0.2132  0.1444
  212COC    COC  212   1.748   4.941   9.498  0.1033 -0.0322 -0.1874
  213COC    COC  213   1.955   4.942   9.281 -0.0420  0.1405  0.0285
  214COC    COC  214   2.240   4.985   9.390  0.2033  0.4457  0.0320
  215COC    COC  215   2.359   4.936   9.660 -0.0151 -0.0890 -0.1689
  216COC    COC  216   2.411   4.730   9.921 -0.2760  0.1821  0.2918
  217COC    COC  217   2.428   4.445   9.939  0.1825  0.5605 -0.1238
  218COC    COC  218   2.504   4.163  10.041 -0.1268  0.4748  0.1322
  219COC    COC  219   2.438   3.972  10.287 -0.1237  0.0213  0.2317
  220COC    COC  220   2.531   4.003   0.236  0.1017 -0.1497  0.0678
  221COC    COC  221   2.547   4.253   0.450 -0.0162  0.1868  0.0232
  222COC    COC  222   2.724   4.533   0.406 -0.5076 -0.2375 -0.2604
  223COC    COC  223   2.571   4.815   0.475  0.0072  0.2520  0.2543
  224COC    COC  224   2.553   4.932   0.727  0.0557 -0.1744 -0.1572
  225COC    COC  225   2.511   4.701   0.951 -0.2156 -0.4124  0.1303
  226COC    COC  226   2.661   4.448   0.950  0.3166  0.0129  0.0090
  227COC    COC  227   2.792   4.412   1.219  0.0175  0.2290 -0.0166
  228COC    COC  228   2.645   4.211   1.398  0.0399 -0.1383 -0.0549
  229COC    COC  229   2.754   3.971   1.523  0.1290 -0.0735 -0.0448
  230COH    COH  230   2.921   3.804   1.626 -0.0108 -0.1969  0.3183
  231COH    COH  231   7.749   9.801   4.690  0.4604 -0.2690 -0.2512
  232COC    COC  232   7.612   9.622   4.780 -0.0035 -0.0438 -0.3188
  233COC    COC  233   7.602   9.393   4.586  0.2448 -0.0381 -0.0513
  234COC    COC  234   7.831   9.262   4.506 -0.3177 -0.2223  0.1483
  235COC    COC  235   7.860   9.011   4.358  0.2850  0.0659 -0.0238
  236COC    COC  236   8.056   8.874   4.525 -0.1920 -0.3006  0.4630
  237COC    COC  237   8.162   8.634   4.368 -0.0669  0.1094  0.1961
  238COC    COC  238   8.236   8.773   4.136 -0.6074 -0.0182  0.0137
  239COC    COC  239   8.460   8.951   4.059 -0.0296 -0.0593  0.2463
  240COC    COC  240   8.719   8.837   4.017 -0.2261  0.5243  0.0682
  241COC    COC  241   8.894   8.751   3.767  0.1660  0.0200 -0.3125
  242COC    COC  242   9.001   8.964   3.541  0.3631 -0.2130 -0.1385
  243COC    COC  243   8.761   9.099   3.468 -0.1490  0.1696 -0.1354
  244COC    COC  244   8.846   9.226   3.228  0.2864  0.0519  0.4317
  245COC    COC  245   9.094   9.062   3.092 -0.0082 -0.3451 -0.0599
  246COC    COC  246   9.277   8.808   3.122  0.2015 -0.1178  0.2296
  247COC    COC  247   9.312   8.554   2.948 -0.3414  0.4808  0.0852
  248COC    COC  248   9.480   8.323   2.969 -0.0588 -0.4171  0.3029
  249COC    COC  249   9.760   8.229   2.963  0.2702  0.3160 -0.2839
  250COC    COC  250   9.949   8.384   3.130 -0.5811 -0.1916 -0.3791
  251COC    COC  251   9.974   8.617   3.295  0.0224  0.2086 -0.0346
  252COC    COC  252   9.889   8.601   3.591 -0.0800  0.3020  0.6775
  253COC    COC  253   9.966   8.876   3.756 -0.2135 -0.2495  0.3797
  254COC    COC  254   9.789   8.979   3.977  0.3828  0.3270 -0.0625
  255COC    COC  255   9.497   8.933   3.892 -0.2069 -0.2933 -0.0337
  256COC    COC  256   9.498   8.630   3.771 -0.3323 -0.1632  0.0641
  257COC    COC  257   9.280   8.629   3.561 -0.0163 -0.3301  0.1710
  258COC    COC  258   9.083   8.377   3.569  0.0223 -0.0280 -0.0759
  259COC    COC  259   8.983   8.347   3.815 -0.3473 -0.1454 -0.3230
  260COC    COC  260   9.039   8.178   4.058  0.2517  0.0126  0.1039
  261COC    COC  261   8.799   8.074   4.181 -0.2471 -0.1480 -0.2475
  262COC    COC  262   8.894   7.836   4.367  0.4916  0.1790  0.3036
  263COC    COC  263   8.926   7.607   4.185 -0.4540 -0.0373 -0.0594
  264COC    COC  264   9.179   7.756   4.047  0.3921  0.0941 -0.1068
  265COC    COC  265   9.497   7.811   4.096  0.1295 -0.1909 -0.0683
  266COC    COC  266   9.639   7.898   4.331 -0.0693  0.0955 -0.2640
  267COC    COC  267   9.932   7.949   4.294 -0.2016 -0.0281  0.2285
  268COC    COC  268  10.034   8.188   4.124  0.1168  0.3724 -0.4605
  269COC    COC  269  10.189   8.107   3.857 -0.1815  0.1893  0.2435
  270COC    COC  270   9.988   8.126   3.644  0.2771 -0.0122  0.1742
  271COC    COC  271  10.207   8.287   3.442  0.3198  0.1470 -0.3866
  272COC    COC  272   0.139   8.175   3.427 -0.0740 -0.0102  0.1583
  273COC    COC  273   0.277   8.425   3.550  0.0113  0.2346  0.0642
  274COC    COC  274   0.109   8.691   3.455 -0.6995  0.1914  0.4714
  275COC    COC  275   0.024   8.931   3.653 -0.2842  0.0924 -0.0491
  276COH    COH  276   0.219   9.094   3.699  0.0352 -0.0435  0.1627
  277COH    COH  277   5.479   2.054   8.392  0.2560  0.4746  0.0810
  278COC    COC  278   5.581   2.132   8.170  0.1574  0.4136  0.0752
  279COC    COC  279   5.577   2.421   8.160  0.2316  0.1395 -0.1408
  280COC    COC  280   5.368   2.634   8.212  0.3747 -0.2238 -0.3066
  281COC    COC  281   5.148   2.600   8.379  0.1486  0.3087  0.0776
  282COC    COC  282   4.963   2.661   8.601  0.2443 -0.0021  0.0130
  283COC    COC  283   5.075   2.662   8.917  0.3216 -0.1963  0.0272
  284COC    COC  284   5.344   2.574   8.944 -0.1569  0.0842 -0.2741
  285COC    COC  285   5.488   2.474   9.197  0.2916 -0.0463 -0.2024
  286COC    COC  286   5.496   2.551   9.497 -0.3360 -0.1731  0.0011
  287COC    COC  287   5.683   2.732   9.533 -0.0012  0.0734  0.0278
  288COC    COC  288   5.782   2.958   9.690 -0.4414 -0.0631 -0.0864
  289COC    COC  289   5.767   3.236   9.612 -0.1221 -0.0667  0.5579
  290COC    COC  290   6.054   3.335   9.694  0.1039  0.0531  0.1019
  291COC    COC  291   6.174   3.059   9.872  0.1452  0.0123 -0.0680
  292COC    COC  292   6.076   2.870  10.055  0.1195 -0.0629 -0.2613
  293COC    COC  293   5.794   2.879  10.147 -0.3214 -0.0223  0.1538
  294COC    COC  294   5.711   2.757   0.054  0.2633 -0.4868  0.0069
  295COC    COC  295   5.453   2.582   0.060 -0.2287 -0.0619  0.2249
  296COC    COC  296   5.232   2.727  10.264  0.0858 -0.1253 -0.1683
  297COC    COC  297   5.037   2.959  10.138 -0.3472 -0.3555  0.0009
  298COC    COC  298   4.810   2.826  10.230  0.2815  0.5933  0.0933
  299COC    COC  299   4.759   2.677   0.140  0.0244  0.5729  0.4256
  300COC    COC  300   4.460   2.674   0.208 -0.0486  0.0248 -0.0471
  301COC    COC  301   4.406   2.977   0.193 -0.2411 -0.1888  0.1425
  302COC    COC  302   4.097   3.039   0.113  0.1380  0.4192  0.0851
  303COC    COC  303   3.837   3.120  10.341 -0.2411 -0.1933 -0.1280
  304COC    COC  304   3.795   3.353   0.111 -0.5596 -0.0925 -0.0367
  305COC    COC  305   3.540   3.444  10.301  0.1090  0.1136 -0.1308
  306COC    COC  306   3.401   3.728   0.044 -0.1702  0.0672  0.0925
  307COC    COC  307   3.073   3.774   0.079  0.0538 -0.0620  0.2876
  308COC    COC  308   3.016   3.593  10.146 -0.1501 -0.2934 -0.2492
  309COC    COC  309   2.899   3.320  10.234  0.2700 -0.0831 -0.0364
  310COC    COC  310   2.906   3.243   0.164  0.3815 -0.1143 -0.4317
  311COC    COC  311   2.936   3.165   0.470 -0.1971 -0.2947 -0.1223
  312COC    COC  312   2.778   3.002   0.702 -0.0324 -0.0027  0.1143
  313COC    COC  313   2.797   3.124   0.975 -0.2522 -0.3675 -0.0148
  314COC    COC  314   2.955   2.994   1.158 -0.4955  0.0281  0.0395
  315COC    COC  315   2.750   2.860   1.340 -0.3655 -0.1834  0.3010
  316COC    COC  316   2.511   2.878   1.182 -0.4502 -0.0997  0.0737
  317COC    COC  317   2.366   3.110   1.073 -0.2492 -0.3774 -0.3359
  318COC    COC  318   2.278   3.381   1.167  0.0434 -0.1089 -0.0109
  319COC    COC  319   2.100   3.504   0.972  0.2404  0.4195  0.0622
  320COC    COC  320   1.993   3.626   0.718  0.4470  0.0627  0.0321
  321COC    COC  321   2.247   3.780   0.580  0.1893  0.0628 -0.3392
  322COH    COH  322   2.288   4.022   0.633  0.0150 -0.1963  0.4456
  323COH    COH  323   9.608   7.160   9.964 -0.2867  0.1760 -0.6016
  324COC    COC  324   9.551   7.122   9.728 -0.1431 -0.2495  0.1354
  325COC    COC  325   9.368   6.892   9.712  0.1572 -0.1945  0.4367
  326COC    COC  326   9.055   6.911   9.716  0.2288 -0.1407 -0.1373
  327COC    COC  327   8.892   7.167   9.731 -0.1048 -0.0775  0.2760
  328COC    COC  328   8.924   7.216  10.049  0.2505 -0.4415  0.2161
  329COC    COC  329   8.781   7.155  10.285  0.0600  0.0715  0.1428
  330COC    COC  330   8.766   6.875  10.337 -0.2901 -0.0797 -0.0152
  331COC    COC  331   8.727   6.734   0.249 -0.1295  0.0009 -0.0941
  332COC    COC  332   8.842   6.848   0.522  0.2045 -0.0343 -0.2664
  333COC    COC  333   8.818   7.153   0.559  0.2916 -0.0306 -0.3127
  334COC    COC  334   8.918   7.262   0.839  0.0264  0.1552  0.2208
  335COC    COC  335   9.056   7.056   1.023 -0.3525 -0.0171  0.0802
  336COC    COC  336   9.243   6.893   0.863  0.0867 -0.0144 -0.0875
  337COC    COC  337   9.459   6.705   0.789 -0.3866 -0.2588  0.0825
  338COC    COC  338   9.742   6.662   0.771 -0.0321 -0.0444  0.1428
  339COC    COC  339   9.865   6.586   0.493 -0.3410  0.0408  0.0339
  340COC    COC  340   9.784   6.533   0.225  0.0584  0.0681 -0.0809
  341COC    COC  341   9.757   6.799   0.104  0.1902 -0.0215  0.0517
  342COC    COC  342   9.540   7.039   0.063  0.2178  0.1665  0.1608
  343COC    COC  343   9.597   7.293   0.130  0.4855 -0.4867  0.5934
  344COC    COC  344   9.802   7.502   0.024  0.1150  0.2245  0.7522
  345COC    COC  345   9.806   7.457  10.040  0.1506  0.0191 -0.0776
  346COC    COC  346   9.678   7.638   9.841  0.1394  0.1545  0.0298
  347COC    COC  347   9.525   7.903   9.973 -0.2055  0.3455  0.2053
  348COC    COC  348   9.246   7.995  10.009  0.1012  0.0013 -0.2999
  349COC    COC  349   9.035   7.771  10.058 -0.3892  0.2255 -0.1527
  350COC    COC  350   9.002   7.585  10.283 -0.2443 -0.1842  0.1790
  351COC    COC  351   8.931   7.497   0.235 -0.2342  0.2967  0.0318
  352COC    COC  352   9.143   7.597   0.402 -0.2136 -0.2033 -0.1431
  353COC    COC  353   9.054   7.584   0.673 -0.2581 -0.1901 -0.0119
  354COC    COC  354   8.900   7.759   0.834  0.2025  0.4056 -0.0914
  355COC    COC  355   8.628   7.805   1.011 -0.3070  0.4900  0.0545
  356COC    COC  356   8.519   7.516   1.008  0.2073  0.4142  0.4177
  357COC    COC  357   8.420   7.311   0.827  0.3054  0.3730 -0.2974
  358COC    COC  358   8.445   7.027   0.772 -0.0323 -0.0665  0.3842
  359COC    COC  359   8.304   6.762   0.856 -0.0849 -0.1660 -0.1206
  360COC    COC  360   8.223   6.663   1.136 -0.1080  0.1875  0.1295
  361COC    COC  361   8.036   6.763   1.397  0.0053  0.0822 -0.0488
  362COC    COC  362   7.934   6.613   1.647  0.1106 -0.2107 -0.1325
  363COC    COC  363   7.834   6.647   1.947 -0.3116  0.0665 -0.0177
  364COC    COC  364   7.719   6.429   2.170  0.3264  0.1141  0.2192
  365COC    COC  365   7.508   6.280   1.988  0.0399 -0.1730 -0.1115
  366COC    COC  366   7.707   6.287   1.759  0.1356  0.1811 -0.4383
  367COC    COC  367   7.815   5.985   1.698 -0.2697 -0.1668  0.0279
  368COH    COH  368   7.664   6.033   1.466 -0.5007 -0.1578 -0.1193
  369COH    COH  369   1.487   1.698   7.037 -0.3476  0.4346 -0.4636
  370COC    COC  370   1.537   1.662   6.774  0.2233  0.0803  0.2109
  371COC    COC  371   1.321   1.627   6.624  0.2668  0.3681  0.0559
  372COC    COC  372   1.062   1.750   6.621  0.5882  0.7444 -0.2603
  373COC    COC  373   0.785   1.691   6.667  0.0335 -0.0892 -0.0049
  374COC    COC  374   0.521   1.654   6.437 -0.0946  0.2127  0.0648
  375COC    COC  375   0.529   1.458   6.217 -0.4400 -0.2534 -0.3410
  376COC    COC  376   0.659   1.218   6.326 -0.4207 -0.3130  0.0140
  377COC    COC  377   0.846   1.302   6.569  0.2720 -0.0212  0.1484
  378COC    COC  378   1.114   1.266   6.700  0.4447 -0.0553 -0.1365
  379COC    COC  379   1.354   1.149   6.551 -0.0494 -0.2439 -0.1190
  380COC    COC  380   1.632   1.063   6.707 -0.5356 -0.1059  0.1771
  381COC    COC  381   1.872   0.907   6.568  0.1025 -0.1153 -0.0286
  382COC    COC  382   2.082   1.134   6.654 -0.2319  0.1705 -0.0142
  383COC    COC  383   2.305   1.228   6.449  0.1128 -0.0510  0.0838
  384COC    COC  384   2.326   1.233   6.132 -0.5057 -0.0309 -0.2519
  385COC    COC  385   2.160   1.492   6.033  0.1469  0.0280  0.4068
  386COC    COC  386   2.031   1.738   6.040  0.0591 -0.1305 -0.0671
  387COC    COC  387   2.253   1.883   5.902  0.0941  0.2488  0.2042
  388COC    COC  388   2.213   2.196   5.808 -0.0499  0.3531 -0.1236
  389COC    COC  389   2.076   2.423   5.948  0.2540  0.0037 -0.6117
  390COC    COC  390   1.897   2.539   6.192  0.2435  0.1321  0.1753
  391COC    COC  391   1.722   2.765   6.257 -0.3804 -0.1194  0.1591
  392COC    COC  392   1.587   2.954   6.017 -0.3100  0.1350 -0.1573
  393COC    COC  393   1.609   3.238   5.852  0.0500 -0.3605  0.0833
  394COC    COC  394   1.466   3.507   5.892 -0.1021 -0.0551 -0.1442
  395COC    COC  395   1.400   3.509   6.175  0.4839 -0.1014  0.1848
  396COC    COC  396   1.395   3.220   6.248 -0.2335  0.5086 -0.2756
  397COC    COC  397   1.245   3.087   6.528  0.3722  0.2445 -0.2994
  398COC    COC  398   1.448   2.873   6.607 -0.1472  0.1382 -0.2960
  399COC    COC  399   1.626   2.904   6.813 -0.1870 -0.1901  0.5144
  400COC    COC  400   1.911   2.996   6.723  0.0637 -0.0414  0.5134
  401COC    COC  401   2.103   2.843   6.584  0.5009  0.0799 -0.2568
  402COC    COC  402   2.247   3.119   6.511  0.1283 -0.3368  0.1080
  403COC    COC  403   2.309   3.403   6.624 -0.1443 -0.1111 -0.2213
  404COC    COC  404   2.010   3.496   6.673 -0.1497 -0.0393 -0.2459
  405COC    COC  405   1.940   3.345   6.948 -0.1723 -0.1032 -0.2074
  406COC    COC  406   2.199   3.230   7.058 -0.4798 -0.3291 -0.0074
  407COC    COC  407   2.260   3.170   7.360  0.1325  0.1041 -0.0509
  408COC    COC  408   2.263   2.855   7.378  0.0729 -0.6311  0.4071
  409COC    COC  409   2.050   2.661   7.500  0.0129  0.3395 -0.1673
  410COC    COC  410   1.869   2.879   7.634 -0.2193  0.0142  0.1559
  411COC    COC  411   1.833   2.842   7.912 -0.3576 -0.0634 -0.3081
  412COC    COC  412   1.633   2.650   7.952 -0.1931 -0.4591  0.3368
  413COC    COC  413   1.556   2.536   7.686  0.2265  0.0263  0.0449
  414COH    COH  414   1.621   2.652   7.498  0.1189 -0.6607  0.0888
  415COH    COH  415   1.475   3.770   7.824 -0.0810 -0.5255 -0.2890
  416COC    COC  416   1.248   3.713   7.681  0.1837 -0.2131  0.3320
  417COC    COC  417   1.075   3.483   7.739 -0.0751 -0.1570  0.0618
  418COC    COC  418   0.834   3.721   7.633 -0.2879 -0.1323  0.0415
  419COC    COC  419   0.883   3.838   7.368  0.1070  0.2970  0.2381
  420COC    COC  420   0.668   3.737   7.195  0.0870 -0.0474 -0.3052
  421COC    COC  421   0.662   3.862   6.920  0.0699  0.3029  0.0173
  422COC    COC  422   0.648   3.744   6.622  0.1279 -0.1350  0.2879
  423COC    COC  423   0.600   3.894   6.416  0.0253 -0.0783  0.6534
  424COC    COC  424   0.821   4.018   6.260  0.0295  0.0060 -0.0134
  425COC    COC  425   0.753   4.136   5.993 -0.4731 -0.0900  0.2035
  426COC    COC  426   0.615   4.347   5.888  0.0090 -0.4329  0.1336
  427COC    COC  427   0.309   4.254   5.839  0.2442 -0.2088  0.2447
  428COC    COC  428   0.240   4.024   6.024 -0.0879  0.0388 -0.0819
  429COC    COC  429   0.463   3.829   5.931 -0.2104 -0.0048 -0.2121
  430COC    COC  430   0.463   3.551   6.086 -0.4602 -0.2022 -0.0278
  431COC    COC  431   0.508   3.455   6.380 -0.0266 -0.2453  0.5265
  432COC    COC  432   0.282   3.539   6.632  0.0926  0.1526 -0.0511
  433COC    COC  433   0.043   3.262   6.633 -0.2096 -0.1550 -0.2067
  434COC    COC  434   0.010   3.014   6.848  0.1154  0.0654 -0.4222
  435COC    COC  435  10.231   2.740   6.836  0.0105  0.2416 -0.0471
  436COC    COC  436  10.226   2.557   6.577  0.3936  0.1350 -0.0663
  437COC    COC  437  10.256   2.266   6.688  0.3277  0.3671 -0.0466
  438COC    COC  438   0.144   2.120   6.844  0.1548 -0.2842  0.0888
  439COC    COC  439   0.370   1.978   6.739 -0.1071 -0.0406  0.1934
  440COC    COC  440   0.551   2.095   6.926 -0.0742  0.0008  0.1877
  441COC    COC  441   0.787   1.994   7.030 -0.1453  0.0629 -0.0212
  442COC    COC  442   1.018   2.074   6.868  0.4080 -0.3822 -0.2665
  443COC    COC  443   1.288   2.080   6.874 -0.0464  0.3346 -0.0771
  444COC    COC  444   1.472   2.062   7.122  0.0854 -0.0662  0.2150
  445COC    COC  445   1.327   1.951   7.370  0.4603 -0.1441  0.4615
  446COC    COC  446   1.021   1.973   7.481  0.1887 -0.0176 -0.1726
  447COC    COC  447   0.914   2.048   7.785 -0.0158  0.0403  0.0145
  448COC    COC  448   0.828   2.301   7.901 -0.2227 -0.1068 -0.1678
  449COC    COC  449   0.571   2.454   7.982  0.0694 -0.0343 -0.1399
  450COC    COC  450   0.394   2.354   8.203  0.1135 -0.2360  0.0628
  451COC    COC  451   0.492   2.367   8.480 -0.2733  0.2278 -0.3374
  452COC    COC  452   0.332   2.253   8.716  0.0636  0.3223  0.5216
  453COC    COC  453   0.298   1.953   8.679  0.1634  0.0072  0.4064
  454COC    COC  454   0.190   1.732   8.892 -0.1157 -0.1177  0.5148
  455COC    COC  455  10.251   1.663   8.833 -0.1869  0.0639 -0.2665
  456COC    COC  456  10.136   1.793   8.603 -0.0637 -0.0242  0.0784
  457COC    COC  457  10.137   1.605   8.338 -0.4043  0.1044 -0.0266
  458COC    COC  458   0.100   1.552   8.260 -0.0379  0.1309  0.4183
  459COC    COC  459   0.115   1.343   8.037  0.0587  0.2716  0.1865
  460COH    COH  460  10.320   1.350   7.822 -0.4976  0.1978 -0.2024
  461COH    COH  461   3.794   7.845   7.241  0.3397  0.2343 -0.1037
  462COC    COC  462   3.797   7.808   7.014  0.0623 -0.4733 -0.1581
  463COC    COC  463   3.541   7.769   6.791 -0.2930  0.2030  0.0568
  464COC    COC  464   3.335   7.967   6.698 -0.0163  0.0374 -0.4722
  465COC    COC  465   3.445   7.982   6.411 -0.1927  0.1317 -0.1917
  466COC    COC  466   3.407   7.667   6.353  0.3406 -0.0419 -0.1780
  467COC    COC  467   3.542   7.434   6.205  0.2862  0.2055  0.3865
  468COC    COC  468   3.820   7.406   6.052 -0.1669  0.2837 -0.0828
  469COC    COC  469   3.725   7.178   5.824  0.0095 -0.3454 -0.2305
  470COC    COC  470   3.615   6.956   5.712  0.0470 -0.1493  0.1747
  471COC    COC  471   3.523   6.739   5.878 -0.5060  0.2715 -0.2285
  472COC    COC  472   3.516   6.848   6.143 -0.0801  0.1526  0.0692
  473COC    COC  473   3.771   6.966   6.200 -0.0821 -0.4463  0.4608
  474COC    COC  474   3.983   6.772   6.098 -0.0005 -0.2998 -0.2765
  475COC    COC  475   3.949   6.503   6.150 -0.0312 -0.1387  0.4450
  476COC    COC  476   3.662   6.350   6.040 -0.0950 -0.0087 -0.1008
  477COC    COC  477   3.612   6.030   6.070 -0.0171 -0.2475 -0.0795
  478COC    COC  478   3.800   5.800   6.097  0.3164 -0.0306  0.2091
  479COC    COC  479   3.756   5.525   6.147  0.0022 -0.0064 -0.0804
  480COC    COC  480   3.806   5.342   5.894 -0.1027 -0.0855  0.3169
  481COC    COC  481   4.029   5.253   5.671  0.1826  0.0050 -0.0724
  482COC    COC  482   3.964   5.040   5.446 -0.0015 -0.1949  0.3308
  483COC    COC  483   3.696   4.896   5.470 -0.2417 -0.2213 -0.2277
  484COC    COC  484   3.566   4.880   5.184 -0.1471 -0.0550  0.0197
  485COC    COC  485   3.733   5.033   5.048 -0.0183  0.0034  0.0638
  486COC    COC  486   3.939   4.932   4.838  0.1210  0.4001  0.1929
  487COC    COC  487   4.016   4.640   4.739  0.2315  0.2051  0.2212
  488COC    COC  488   4.270   4.675   4.605 -0.0366 -0.3012  0.2612
  489COC    COC  489   4.361   4.376   4.535 -0.2646 -0.1708 -0.1972
  490COC    COC  490   4.287   4.218   4.257 -0.0172 -0.3726  0.1284
  491COC    COC  491   4.501   4.328   4.056 -0.2830 -0.0925  0.0009
  492COC    COC  492   4.617   4.134   3.898  0.0621 -0.2440 -0.2549
  493COC    COC  493   4.697   4.127   3.594 -0.1749 -0.2580  0.2476
  494COC    COC  494   5.013   4.180   3.601 -0.0108  0.1249  0.0060
  495COC    COC  495   5.044   3.904   3.753  0.0196  0.1048 -0.1296
  496COC    COC  496   5.372   3.895   3.730  0.2431  0.3790 -0.3542
  497COC    COC  497   5.615   4.040   3.792  0.0960 -0.1610 -0.6780
  498COC    COC  498   5.847   4.258   3.835 -0.1144  0.0613 -0.0953
  499COC    COC  499   6.061   4.315   3.647 -0.1515 -0.4507  0.0032
  500COC    COC  500   6.103   4.062   3.506 -0.0469 -0.1414  0.3182
  501COC    COC  501   6.417   4.083   3.441  0.3701 -0.0054  0.0313
  502COC    COC  502   6.522   4.222   3.691 -0.3655 -0.2823 -0.2480
  503COC    COC  503   6.682   4.071   3.883 -0.0154  0.1905  0.1179
  504COC    COC  504   6.821   3.910   4.095  0.0728  0.2035 -0.0727
  505COC    COC  505   7.047   4.002   4.265 -0.2484  0.1626  0.3445
  506COH    COH  506   7.282   4.160   4.269  0.4767 -0.0144 -0.0135
  507COH    COH  507   5.656   0.154   8.608 -0.1062 -0.3510 -0.1762
  508COC    COC  508   5.550  10.259   8.703 -0.2296 -0.5502  0.1643
  509COC    COC  509   5.588  10.050   8.877 -0.2285  0.3817  0.0774
  510COC    COC  510   5.532   9.791   8.723  0.0471  0.0777  0.5538
  511COC    COC  511   5.684   9.541   8.580  0.0949  0.2367 -0.0266
  512COC    COC  512   5.983   9.431   8.580  0.0908 -0.0616  0.2196
  513COC    COC  513   6.159   9.381   8.801 -0.2485 -0.2728 -0.4159
  514COC    COC  514   6.432   9.441   8.653  0.0100  0.0936  0.0559
  515COC    COC  515   6.644   9.455   8.412 -0.3787 -0.3261  0.1800
  516COC    COC  516   6.932   9.352   8.331  0.5479  0.0394 -0.1254
  517COC    COC  517   7.087   9.614   8.309 -0.0011  0.1651  0.3831
  518COC    COC  518   7.025   9.909   8.319 -0.2891 -0.1715  0.0068
  519COC    COC  519   6.815  10.101   8.204 -0.3021  0.0164 -0.1678
  520COC    COC  520   6.708  10.276   8.370 -0.1090 -0.0474 -0.4570
  521COC    COC  521   6.593   0.220   8.385 -0.2806 -0.2148 -0.4008
  522COC    COC  522   6.523   0.341   8.124  0.1672  0.2860 -0.3314
  523COC    COC  523   6.605   0.122   7.916 -0.3811 -0.0952 -0.2921
  524COC    COC  524   6.538   0.157   7.622 -0.2048 -0.1087 -0.3329
  525COC    COC  525   6.387   0.385   7.495 -0.1159  0.1071  0.1657
  526COC    COC  526   6.344   0.292   7.195 -0.1923  0.1782 -0.0970
  527COC    COC  527   6.372   0.014   7.040  0.1776  0.1501  0.1980
  528COC    COC  528   6.598  10.285   7.231 -0.0071  0.0890  0.0724
  529COC    COC  529   6.660   9.983   7.301  0.2063 -0.0319 -0.2385
  530COC    COC  530   6.911   9.919   7.464 -0.0216  0.2686  0.1454
  531COC    COC  531   7.209   9.949   7.458 -0.1361  0.0610  0.1633
  532COC    COC  532   7.430   9.745   7.437 -0.0708 -0.0614  0.1065
  533COC    COC  533   7.509   9.604   7.146  0.0059  0.3661  0.2392
  534COC    COC  534   7.663   9.346   7.022  0.0168 -0.0431 -0.0365
  535COC    COC  535   7.611   9.265   6.726  0.1931  0.0902 -0.4555
  536COC    COC  536   7.493   8.996   6.685  0.0479  0.0164 -0.0483
  537COC    COC  537   7.183   8.980   6.654 -0.1385 -0.1918 -0.0477
  538COC    COC  538   7.158   9.128   6.907  0.0050  0.0465 -0.0558
  539COC    COC  539   6.843   9.162   6.854 -0.1873 -0.5173  0.0787
  540COC    COC  540   6.811   9.238   6.551 -0.0344  0.2514  0.1647
  541COC    COC  541   6.889   9.438   6.311  0.0387  0.1772  0.3434
  542COC    COC  542   7.120   9.509   6.129  0.3597 -0.1011 -0.3091
  543COC    COC  543   7.034   9.699   5.925 -0.3033 -0.0579 -0.0485
  544COC    COC  544   6.861   9.697   5.661  0.0161  0.0807  0.1505
  545COC    COC  545   6.930   9.881   5.409  0.3096 -0.3118 -0.3526
  546COC    COC  546   6.872   9.810   5.099  0.0758 -0.2560  0.0239
  547COC    COC  547   6.805   9.577   4.933 -0.0804 -0.0302 -0.1508
  548COC    COC  548   6.683   9.297   4.970 -0.3212 -0.0096  0.3198
  549COC    COC  549   6.470   9.256   4.786 -0.1740 -0.5029 -0.0645
  550COC    COC  550   6.564   9.006   4.623 -0.2893  0.0047 -0.2579
  551COC    COC  551   6.531   9.062   4.325 -0.3310 -0.1101 -0.0775
  552COH    COH  552   6.339   9.168   4.219  0.5793  0.3425 -0.2584
  553COH    COH  553   5.487   8.770   2.381 -0.3606  0.0276  0.6248
  554COC    COC  554   5.278   8.839   2.456 -0.0823  0.0807 -0.2385
  555COC    COC  555   5.297   8.862   2.762 -0.0527 -0.1735 -0.3631
  556COC    COC  556   5.547   8.974   2.919 -0.0146  0.4183 -0.0205
  557COC    COC  557   5.542   9.207   3.029  0.1296 -0.5300  0.1332
  558COC    COC  558   5.770   9.347   2.887 -0.2310  0.0259 -0.0202
  559COC    COC  559   5.794   9.657   2.907  0.1521  0.2175 -0.0450
  560COC    COC  560   5.575   9.749   2.689  0.2153 -0.2426 -0.4539
  561COC    COC  561   5.525   9.618   2.417 -0.2040 -0.1635 -0.0650
  562COC    COC  562   5.401   9.808   2.224 -0.3402 -0.4102 -0.0082
  563COC    COC  563   5.151   9.939   2.073  0.2782  0.5693 -0.2583
  564COC    COC  564   4.826   9.836   2.074  0.1470 -0.2543 -0.0254
  565COC    COC  565   4.738   9.561   1.978  0.3805 -0.0590 -0.1499
  566COC    COC  566   4.945   9.450   1.798 -0.1129 -0.1580  0.1661
  567COC    COC  567   4.982   9.144   1.799  0.1761  0.0264 -0.0053
  568COC    COC  568   4.858   8.865   1.757  0.2258  0.0051  0.1389
  569COC    COC  569   5.027   8.767   1.512 -0.1355 -0.1097 -0.1418
  570COC    COC  570   4.817   8.786   1.252  0.0030  0.4120 -0.1370
  571COC    COC  571   4.804   9.097   1.354  0.2182  0.1562 -0.1844
  572COC    COC  572   5.046   9.254   1.408  0.4844  0.1461 -0.1499
  573COC    COC  573   5.221   9.246   1.155  0.4932 -0.3521  0.0868
  574COC    COC  574   5.473   9.054   1.131  0.0203 -0.0585 -0.3267
  575COC    COC  575   5.749   9.040   0.976 -0.1717 -0.5031  0.2791
  576COC    COC  576   5.945   9.284   0.881  0.3846  0.2769 -0.0843
  577COC    COC  577   6.122   9.448   1.034  0.2840  0.1857  0.3779
  578COC    COC  578   6.410   9.538   1.037  0.1834  0.0602  0.0213
  579COC    COC  579   6.487   9.808   1.180 -0.1146 -0.2801  0.0702
  580COC    COC  580   6.624  10.013   1.051 -0.4602 -0.2815 -0.2207
  581COC    COC  581   6.685  10.262   1.188  0.1252  0.3274  0.4474
  582COC    COC  582   6.713   0.031   1.444  0.1153  0.2750 -0.1478
  583COC    COC  583   6.708   0.316   1.568 -0.3332  0.2220 -0.0427
  584COC    COC  584   6.611   0.607   1.452  0.4557  0.2374  0.2474
  585COC    COC  585   6.834   0.700   1.279 -0.2107  0.1398  0.6608
  586COC    COC  586   6.957   0.821   1.010  0.0963 -0.1171 -0.0187
  587COC    COC  587   7.076   0.961   0.827  0.1619  0.1700  0.2406
  588COC    COC  588   7.192   1.202   0.754 -0.2791 -0.1004 -0.4542
  589COC    COC  589   7.155   1.455   0.612  0.0793 -0.0480  0.2180
  590COC    COC  590   7.302   1.687   0.658  0.2586  0.0886 -0.1224
  591COC    COC  591   7.603   1.793   0.567  0.1347  0.3470  0.0462
  592COC    COC  592   7.553   1.756   0.250  0.1612  0.1966  0.2110
  593COC    COC  593   7.460   1.474   0.155 -0.4444  0.5189  0.0496
  594COC    COC  594   7.605   1.220   0.015  0.0923  0.1760 -0.1116
  595COC    COC  595   7.868   1.214  10.172  0.4626 -0.0615  0.0603
  596COC    COC  596   7.798   1.405   9.939 -0.6196  0.0760 -0.0642
  597COC    COC  597   7.801   1.702   9.961 -0.0930  0.1488  0.0899
  598COH    COH  598   7.524   1.671   9.947 -0.1909 -0.3937 -0.0820
  599COH    COH  599   0.741   6.741   5.058 -0.0592  0.0156 -0.1053
  600COC    COC  600   0.758   6.922   5.264  0.3253 -0.0924  0.0298
  601COC    COC  601   1.009   7.090   5.235  0.0418  0.3135 -0.0496
  602COC    COC  602   1.044   7.419   5.235  0.2513  0.4130 -0.1199
  603COC    COC  603   0.925   7.611   5.401 -0.2518  0.0001  0.3605
  604COC    COC  604   0.774   7.601   5.680 -0.1547 -0.0446 -0.3368
  605COC    COC  605   0.580   7.788   5.835 -0.0639 -0.0866  0.3467
  606COC    COC  606   0.562   7.881   6.113  0.1075  0.0265 -0.1144
  607COC    COC  607   0.405   7.748   6.325  0.2303 -0.2165  0.1338
  608COC    COC  608   0.587   7.630   6.535 -0.0552 -0.1133  0.1475
  609COC    COC  609   0.852   7.702   6.526  0.5616  0.0022 -0.1098
  610COC    COC  610   0.994   7.763   6.287 -0.2402  0.0580 -0.0870
  611COC    COC  611   1.331   7.789   6.246  0.1928 -0.0093 -0.4158
  612COC    COC  612   1.468   8.063   6.280  0.0412 -0.0693  0.0499
  613COC    COC  613   1.220   8.189   6.458 -0.3267  0.0331  0.0484
  614COC    COC  614   1.237   8.292   6.769 -0.0804  0.2376 -0.1088
  615COC    COC  615   0.986   8.424   6.916  0.0661  0.0165 -0.1693
  616COC    COC  616   0.670   8.413   6.889  0.2132 -0.1801  0.1412
  617COC    COC  617   0.397   8.349   6.982  0.3057  0.0183 -0.0894
  618COC    COC  618   0.112   8.350   6.819  0.0213 -0.0662  0.0754
  619COC    COC  619   0.112   8.186   6.535 -0.5466  0.0491  0.5292
  620COC    COC  620   0.305   8.225   6.254 -0.1764 -0.1120 -0.0014
  621COC    COC  621   0.253   8.262   5.957  0.3622  0.0886  0.3575
  622COC    COC  622   0.364   8.328   5.684 -0.0903 -0.2373 -0.2467
  623COC    COC  623   0.434   8.602   5.647  0.1219 -0.0052  0.2977
  624COC    COC  624   0.163   8.689   5.546  0.1714  0.3022 -0.1021
  625COC    COC  625  10.224   8.718   5.339  0.1544  0.0330 -0.0015
  626COC    COC  626  10.097   8.562   5.113 -0.0354  0.2278  0.3581
  627COC    COC  627   9.829   8.474   5.221  0.3797  0.0556 -0.2419
  628COC    COC  628   9.749   8.286   5.463 -0.0628 -0.1582 -0.1216
  629COC    COC  629   9.482   8.276   5.518 -0.0623 -0.0964  0.1850
  630COC    COC  630   9.313   8.178   5.736 -0.3145  0.1213 -0.1645
  631COC    COC  631   9.280   8.309   6.019 -0.3317  0.2677  0.2111
  632COC    COC  632   9.139   8.180   6.282 -0.0981  0.1043 -0.0186
  633COC    COC  633   8.862   8.300   6.182 -0.0525 -0.1289 -0.0806
  634COC    COC  634   8.696   8.188   6.438 -0.5612 -0.3155  0.2816
  635COC    COC  635   8.852   8.249   6.722  0.0218 -0.0802 -0.3145
  636COC    COC  636   9.101   8.397   6.779 -0.1224 -0.0886  0.0299
  637COC    COC  637   9.206   8.674   6.717  0.0621 -0.1724 -0.0769
  638COC    COC  638   9.454   8.816   6.640 -0.2778  0.2569 -0.1719
  639COC    COC  639   9.531   9.102   6.673  0.2286  0.0733  0.0051
  640COC    COC  640   9.739   9.229   6.460  0.1953  0.2088 -0.1486
  641COC    COC  641   9.815   9.510   6.393 -0.2400 -0.4708  0.0432
  642COC    COC  642   9.973   9.601   6.120 -0.1023 -0.1374  0.0629
  643COC    COC  643   9.953   9.910   6.069 -0.0241  0.1611  0.3770
  644COH    COH  644  10.141  10.001   5.878 -0.0018 -0.0201 -0.0608
  645COH    COH  645   9.678  10.101   0.435  0.0875 -0.6196  0.6857
  646COC    COC  646   9.951  10.166   0.367 -0.2025  0.0022 -0.2487
  647COC    COC  647  10.086   9.937   0.485 -0.0940  0.1354 -0.1217
  648COC    COC  648  10.145   9.644   0.477 -0.1038  0.0104  0.1600
  649COC    COC  649   9.984   9.417   0.617  0.1113  0.1017  0.2121
  650COC    COC  650  10.051   9.455   0.922  0.1360 -0.0197  0.2289
  651COC    COC  651  10.320   9.352   0.972  0.0963  0.0460 -0.0965
  652COC    COC  652   0.161   9.407   0.727 -0.1893  0.2559 -0.3958
  653COC    COC  653   0.087   9.257   0.473 -0.0425 -0.3745 -0.4171
  654COC    COC  654  10.326   9.021   0.445 -0.2115 -0.3152 -0.1083
  655COC    COC  655  10.227   8.796   0.307 -0.2841  0.3196  0.0550
  656COC    COC  656   0.078   8.524   0.362  0.1286 -0.0369  0.1479
  657COC    COC  657   0.176   8.555   0.616 -0.2599 -0.3764  0.3981
  658COC    COC  658   0.291   8.853   0.710  0.0806 -0.2037 -0.0517
  659COC    COC  659   0.127   8.931   0.953  0.3911  0.0696  0.0960
  660COC    COC  660  10.148   8.930   0.940 -0.4717 -0.0214  0.8206
  661COC    COC  661   9.967   8.795   0.733 -0.0674  0.1702 -0.3241
  662COC    COC  662   9.912   8.547   0.525 -0.2896 -0.5284  0.1149
  663COC    COC  663   9.780   8.634   0.275  0.1652  0.2756  0.6175
  664COC    COC  664   9.548   8.818   0.322  0.2314 -0.1052 -0.1255
  665COC    COC  665   9.456   8.830   0.605 -0.1727 -0.0405 -0.2523
  666COC    COC  666   9.354   9.034   0.809 -0.1099 -0.2246  0.1407
  667COC    COC  667   9.303   8.864   1.050 -0.3843  0.0365 -0.2848
  668COC    COC  668   9.227   8.683   1.337  0.1947  0.0386  0.1029
  669COC    COC  669   9.257   8.383   1.203  0.0819  0.0891 -0.2496
  670COC    COC  670   9.332   8.354   0.878  0.0872  0.4758 -0.0998
  671COC    COC  671   9.508   8.372   0.604 -0.3149 -0.1339 -0.0285
  672COC    COC  672   9.310   8.389   0.381 -0.0051  0.2055  0.0382
  673COC    COC  673   9.156   8.594   0.216  0.3826 -0.2562 -0.0170
  674COC    COC  674   9.094   8.442  10.256 -0.3281  0.3314  0.2720
  675COC    COC  675   9.073   8.465   9.926  0.1088  0.2767 -0.1991
  676COC    COC  676   9.307   8.591   9.819  0.2547  0.1461 -0.1336
  677COC    COC  677   9.545   8.524   9.622  0.3332 -0.3016  0.3320
  678COC    COC  678   9.497   8.408   9.334  0.2172 -0.2189 -0.0046
  679COC    COC  679   9.322   8.580   9.162  0.6072 -0.1484 -0.3699
  680COC    COC  680   9.076   8.456   9.084  0.0480  0.0703 -0.2709
  681COC    COC  681   9.117   8.483   8.760 -0.2874 -0.0166  0.7047
  682COC    COC  682   9.207   8.264   8.527  0.3971 -0.5171 -0.4073
  683COC    COC  683   9.059   8.029   8.410 -0.0770 -0.3182 -0.0063
  684COC    COC  684   9.098   7.758   8.557  0.1110  0.0614  0.4289
  685COC    COC  685   8.905   7.555   8.412 -0.5163 -0.1972 -0.1006
  686COC    COC  686   8.824   7.290   8.516  0.0233  0.3056 -0.0134
  687COC    COC  687   8.979   7.014   8.508 -0.4961 -0.2759  0.2099
  688COC    COC  688   8.962   6.734   8.517 -0.2923  0.3418  0.0851
  689COC    COC  689   9.240   6.642   8.507  0.0860  0.1644 -0.4360
  690COH    COH  690   9.456   6.558   8.373  0.2152 -0.4352  0.0239
  691COH    COH  691   4.820   9.842   8.555  0.6988 -0.2540 -0.4382
  692COC    COC  692   5.082   9.864   8.525  0.3585  0.1594  0.0541
  693COC    COC  693   5.135  10.100   8.699  0.1643 -0.1122  0.7901
  694COC    COC  694   4.876  10.250   8.724  0.0760 -0.0197 -0.3353
  695COC    COC  695   4.857  10.337   9.005  0.0290  0.1511  0.1076
  696COC    COC  696   4.673   0.223   9.063  0.2121 -0.7271  0.0067
  697COC    COC  697   4.466   0.181   8.836  0.1264  0.1033  0.1198
  698COC    COC  698   4.512   0.192   8.529  0.0808 -0.0564  0.0181
  699COC    COC  699   4.237   0.355   8.461  0.2144  0.1191  0.1441
  700COC    COC  700   4.216   0.643   8.309  0.0278  0.1530  0.4966
  701COC    COC  701   4.155   0.898   8.124  0.1098  0.0711  0.0092
  702COC    COC  702   4.417   0.897   7.954  0.3151  0.0658 -0.1880
  703COC    COC  703   4.554   0.979   8.218  0.2137  0.3422  0.3376
  704COC    COC  704   4.589   0.741   8.409 -0.2904 -0.1318  0.2872
  705COC    COC  705   4.820   0.512   8.414  0.0890  0.6564  0.1145
  706COC    COC  706   4.939   0.309   8.581 -0.5768  0.0428 -0.2470
  707COC    COC  707   5.235   0.195   8.554  0.0150  0.0972 -0.0271
  708COC    COC  708   5.327   0.082   8.294 -0.2559  0.0638  0.2452
  709COC    COC  709   5.621   0.042   8.172 -0.2296  0.1666  0.1015
  710COC    COC  710   5.833  10.288   8.329 -0.0083  0.1818 -0.4229
  711COC    COC  711   6.020   0.058   8.565  0.0295  0.1546 -0.2926
  712COC    COC  712   6.037  10.161   8.769 -0.0295  0.4146 -0.2396
  713COC    COC  713   5.979   9.864   8.752  0.3334 -0.1608  0.1135
  714COC    COC  714   5.889   9.699   8.982 -0.1497  0.2490  0.3680
  715COC    COC  715   6.078   9.568   9.201  0.1315 -0.6683 -0.0113
  716COC    COC  716   5.945   9.533   9.470  0.0607  0.0657 -0.0917
  717COC    COC  717   5.959   9.298   9.647 -0.0559 -0.1859 -0.0406
  718COC    COC  718   6.092   9.118   9.434  0.1990  0.2162 -0.1389
  719COC    COC  719   6.348   8.933   9.379 -0.0872  0.0797  0.1263
  720COC    COC  720   6.552   8.734   9.484  0.4505 -0.2649  0.2055
  721COC    COC  721   6.684   8.534   9.328 -0.0270  0.0719 -0.1011
  722COC    COC  722   6.727   8.506   9.058  0.3111  0.0634 -0.0275
  723COC    COC  723   6.448   8.493   8.905  0.1047  0.1611  0.2300
  724COC    COC  724   6.334   8.294   9.082  0.1044  0.2291 -0.2991
  725COC    COC  725   6.168   8.446   9.296 -0.5507  0.0836  0.2657
  726COC    COC  726   5.905   8.310   9.375 -0.1817 -0.3165 -0.0499
  727COC    COC  727   5.773   8.220   9.642  0.0415 -0.0618  0.4975
  728COC    COC  728   5.953   7.981   9.693 -0.0528  0.1155 -0.1228
  729COC    COC  729   6.241   7.891   9.571 -0.0036  0.0712  0.0219
  730COC    COC  730   6.301   7.962   9.306  0.2067 -0.0596 -0.1535
  731COC    COC  731   6.190   7.852   9.039 -0.1285  0.4799  0.3272
  732COC    COC  732   6.062   7.739   8.766  0.1310 -0.2674  0.3297
  733COC    COC  733   5.850   7.770   8.565  0.0257  0.2797 -0.2214
  734COC    COC  734   5.584   7.644   8.396 -0.0085  0.0161 -0.3090
  735COC    COC  735   5.455   7.691   8.663 -0.1550 -0.2918  0.2863
  736COH    COH  736   5.607   7.626   8.877 -0.4139  0.1429 -0.1968
  737COH    COH  737   9.638   5.271   6.303  0.1138 -0.0548 -0.1349
  738COC    COC  738   9.889   5.268   6.323 -0.0671  0.3130  0.3806
  739COC    COC  739   9.977   5.346   6.047  0.0222 -0.4784  0.2644
  740COC    COC  740  10.230   5.499   6.122 -0.0247  0.2338 -0.5612
  741COC    COC  741  10.045   5.705   6.242  0.0098 -0.1992 -0.7050
  742COC    COC  742   9.930   5.898   6.045 -0.1230 -0.0439 -0.1109
  743COC    COC  743   9.800   6.161   6.100  0.4164  0.1545  0.2271
  744COC    COC  744   9.961   6.417   6.210  0.0140  0.6099  0.2522
  745COC    COC  745  10.131   6.508   5.971  0.3307  0.3928  0.0638
  746COC    COC  746  10.153   6.232   5.821 -0.4399  0.1182 -0.1940
  747COC    COC  747  10.285   6.017   5.670  0.0519  0.1922  0.0437
  748COC    COC  748  10.322   5.818   5.875  0.1179  0.3065  0.0508
  749COC    COC  749  10.104   5.622   5.746  0.1054  0.3245 -0.6923
  750COC    COC  750  10.116   5.363   5.658 -0.2862  0.1561 -0.1134
  751COC    COC  751   9.985   5.343   5.376  0.2104 -0.1185  0.4351
  752COC    COC  752   9.721   5.390   5.200  0.1387  0.1270 -0.2550
  753COC    COC  753   9.616   5.707   5.126 -0.1800 -0.3852 -0.2347
  754COC    COC  754   9.364   5.697   4.972  0.2462 -0.2635  0.3026
  755COC    COC  755   9.305   5.576   4.708 -0.3196 -0.1036  0.2047
  756COC    COC  756   9.025   5.610   4.614 -0.1438 -0.2881  0.0521
  757COC    COC  757   8.937   5.584   4.903 -0.2588 -0.0578 -0.0654
  758COC    COC  758   8.692   5.449   4.966 -0.0564  0.0445  0.2909
  759COC    COC  759   8.626   5.315   5.238 -0.1837  0.0292 -0.0145
  760COC    COC  760   8.938   5.352   5.382 -0.0996 -0.1538 -0.0239
  761COC    COC  761   9.112   5.215   5.195  0.3208  0.1080 -0.2910
  762COC    COC  762   9.359   5.125   5.081  0.1544  0.1302 -0.0364
  763COC    COC  763   9.297   4.881   4.891 -0.1146  0.3312  0.3927
  764COC    COC  764   8.997   4.777   4.943 -0.0830  0.0266  0.2493
  765COC    COC  765   8.818   4.550   4.807  0.0006  0.3550  0.3510
  766COC    COC  766   8.557   4.408   4.868 -0.3590  0.0147  0.0519
  767COC    COC  767   8.318   4.418   4.689  0.3981 -0.0443  0.2478
  768COC    COC  768   8.245   4.360   4.377 -0.2771 -0.4055 -0.1164
  769COC    COC  769   8.111   4.587   4.214 -0.2209  0.1650  0.3503
  770COC    COC  770   8.247   4.665   3.955 -0.0637 -0.0033  0.0736
  771COC    COC  771   8.474   4.476   3.885 -0.1189  0.1400 -0.1847
  772COC    COC  772   8.776   4.488   3.988  0.0772 -0.0505 -0.0766
  773COC    COC  773   9.053   4.555   3.905 -0.3652  0.0431 -0.5963
  774COC    COC  774   9.090   4.840   3.708  0.1362  0.2229 -0.3378
  775COC    COC  775   9.136   5.006   3.436 -0.1027 -0.0165  0.1555
  776COC    COC  776   9.128   5.274   3.269  0.1480 -0.1999  0.0109
  777COC    COC  777   8.947   5.543   3.328 -0.1355  0.1263  0.3561
  778COC    COC  778   9.157   5.703   3.473  0.3343 -0.0054 -0.2161
  779COC    COC  779   9.208   6.016   3.363  0.3238  0.0880 -0.0408
  780COC    COC  780   9.035   6.183   3.603 -0.1518 -0.0456 -0.1643
  781COC    COC  781   8.864   6.299   3.362  0.2614 -0.1004 -0.2943
  782COH    COH  782   8.657   6.121   3.366 -0.0795  0.2160 -0.1096
  783COH    COH  783   2.200   8.221  10.256 -0.1094  0.0887  0.3587
  784COC    COC  784   1.985   8.182   0.088 -0.2496 -0.2671 -0.2373
  785COC    COC  785   1.753   8.289  10.311 -0.0930 -0.0780 -0.1550
  786COC    COC  786   1.571   8.275  10.066 -0.2383  0.0401 -0.4000
  787COC    COC  787   1.508   8.530   9.907 -0.1154  0.2452 -0.1165
  788COC    COC  788   1.731   8.756   9.894 -0.4667  0.3017 -0.5057
  789COC    COC  789   1.792   8.911   9.673  0.1437 -0.1731 -0.2777
  790COC    COC  790   2.030   8.978   9.502 -0.0438 -0.3394 -0.0609
  791COC    COC  791   2.200   8.809   9.277  0.1665 -0.3532 -0.2327
  792COC    COC  792   2.182   8.506   9.361  0.0422 -0.0378  0.0339
  793COC    COC  793   2.410   8.331   9.185 -0.2008  0.1793  0.2479
  794COC    COC  794   2.711   8.489   9.206 -0.0821  0.1436 -0.0107
  795COC    COC  795   2.984   8.611   9.217 -0.5859  0.0346  0.1141
  796COC    COC  796   2.965   8.747   9.495  0.0408 -0.1217 -0.2246
  797COC    COC  797   3.117   8.712   9.775  0.2514 -0.4973  0.1265
  798COC    COC  798   3.041   8.494   9.983  0.2300 -0.0210 -0.0838
  799COC    COC  799   3.276   8.587  10.141 -0.2235 -0.3638  0.1234
  800COC    COC  800   3.426   8.323  10.300  0.3339 -0.0423 -0.0464
  801COC    COC  801   3.369   8.201   0.238 -0.1599  0.0589  0.0518
  802COC    COC  802   3.367   7.900   0.225  0.0594 -0.0057  0.0069
  803COC    COC  803   3.653   7.893   0.152 -0.4124  0.4147 -0.1267
  804COC    COC  804   3.857   8.098  10.328 -0.4272  0.0876  0.4265
  805COC    COC  805   4.050   8.329   0.118  0.1408  0.4131 -0.0778
  806COC    COC  806   4.280   8.332   0.311 -0.3220  0.1395  0.0126
  807COC    COC  807   4.551   8.173   0.351  0.1430 -0.0554 -0.2230
  808COC    COC  808   4.755   8.217   0.140  0.3181 -0.1138 -0.3764
  809COC    COC  809   4.816   7.917   0.053  0.0304  0.2373  0.1038
  810COC    COC  810   4.855   7.606   0.065  0.2967 -0.1298  0.0728
  811COC    COC  811   4.680   7.567   0.319 -0.2558  0.0740 -0.2056
  812COC    COC  812   4.728   7.246   0.315 -0.2158  0.3197 -0.0041
  813COC    COC  813   4.599   7.014   0.439 -0.0032  0.0007  0.0146
  814COC    COC  814   4.380   7.144   0.576 -0.1056 -0.4739 -0.1552
  815COC    COC  815   4.229   7.280   0.312  0.2581 -0.1006 -0.0280
  816COC    COC  816   4.300   7.116   0.065  0.2766 -0.1961 -0.1502
  817COC    COC  817   4.187   7.103  10.118  0.0885 -0.0174 -0.1342
  818COC    COC  818   3.919   7.188   9.991  0.3794 -0.2840 -0.1937
  819COC    COC  819   3.851   7.461   9.880 -0.1029 -0.1895  0.2378
  820COC    COC  820   3.656   7.506   9.671 -0.5448  0.1825  0.2682
  821COC    COC  821   3.451   7.754   9.648  0.0524  0.0987 -0.2306
  822COC    COC  822   3.148   7.679   9.524  0.0317  0.0492  0.1114
  823COC    COC  823   2.918   7.755   9.312  0.0867 -0.3067 -0.1241
  824COC    COC  824   2.634   7.884   9.400 -0.0012  0.3567  0.2662
  825COC    COC  825   2.507   8.015   9.681 -0.1223 -0.2888  0.0877
  826COC    COC  826   2.245   8.078   9.614  0.0520  0.2018  0.0218
  827COC    COC  827   2.021   7.825   9.615  0.2429 -0.2930 -0.0833
  828COH    COH  828   1.757   7.903   9.646 -0.0493  0.0188  0.0743
  829COH    COH  829   7.876   9.858   3.952  0.2400  0.3782 -0.1536
  830COC    COC  830   7.818   9.887   3.735  0.1871  0.2972  0.1611
  831COC    COC  831   7.838  10.099   3.529 -0.1477 -0.3551 -0.2884
  832COC    COC  832   7.925  10.103   3.240 -0.3342  0.3138  0.0892
  833COC    COC  833   8.006  10.189   2.960  0.0179 -0.0818  0.0704
  834COC    COC  834   8.024   0.147   2.914 -0.2741  0.1614  0.2630
  835COC    COC  835   8.017   0.396   3.097 -0.1912  0.4231 -0.3241
  836COC    COC  836   7.765   0.587   3.144  0.0318  0.5397  0.0750
  837COC    COC  837   7.782   0.873   3.213 -0.0907 -0.0258 -0.1905
  838COC    COC  838   7.889   1.070   2.994 -0.5359  0.0550 -0.2118
  839COC    COC  839   7.829   0.884   2.781  0.1516 -0.2844 -0.2693
  840COC    COC  840   7.684   1.024   2.605  0.0481  0.5948  0.0889
  841COC    COC  841   7.666   0.801   2.393  0.0431  0.5006 -0.6479
  842COC    COC  842   7.637   0.873   2.084 -0.0624 -0.0009 -0.1362
  843COC    COC  843   7.890   0.899   1.988  0.1420  0.1255  0.4263
  844COC    COC  844   8.161   0.976   2.139 -0.7254  0.1651 -0.0628
  845COC    COC  845   8.114   0.783   2.398  0.0220 -0.2710  0.1575
  846COC    COC  846   8.259   0.873   2.650  0.1112 -0.1902 -0.0720
  847COC    COC  847   8.519   1.059   2.631  0.0071  0.2018  0.2404
  848COC    COC  848   8.799   0.957   2.690 -0.1616 -0.2643  0.0328
  849COC    COC  849   8.976   1.209   2.601 -0.2546  0.1940  0.0016
  850COC    COC  850   8.771   1.416   2.640 -0.1516 -0.4180 -0.1462
  851COC    COC  851   8.500   1.465   2.541 -0.3283 -0.0055  0.1248
  852COC    COC  852   8.391   1.602   2.328  0.0926 -0.1956 -0.2479
  853COC    COC  853   8.159   1.788   2.237 -0.2515 -0.4730  0.5120
  854COC    COC  854   7.828   1.749   2.199  0.3409  0.1927  0.1776
  855COC    COC  855   7.662   2.010   2.140  0.0818 -0.1006  0.0007
  856COC    COC  856   7.547   2.301   2.244 -0.0830  0.0416 -0.4152
  857COC    COC  857   7.301   2.456   2.157 -0.1602  0.3828 -0.1386
  858COC    COC  858   7.272   2.644   1.930  0.2409 -0.1382 -0.3122
  859COC    COC  859   7.179   2.495   1.704  0.0925  0.0291 -0.1292
  860COC    COC  860   6.922   2.345   1.747  0.0918  0.2439  0.5263
  861COC    COC  861   6.780   2.074   1.660  0.1028 -0.0718 -0.1928
  862COC    COC  862   6.760   2.043   1.335 -0.0980 -0.4960 -0.1641
  863COC    COC  863   6.646   1.863   1.124 -0.3097 -0.2339  0.2551
  864COC    COC  864   6.484   1.939   0.915  0.1198 -0.7112  0.0823
  865COC    COC  865   6.436   2.041   0.625  0.5443  0.2207 -0.3213
  866COC    COC  866   6.294   2.285   0.598 -0.1423  0.1488  0.0703
  867COC    COC  867   6.376   2.371   0.296 -0.0672 -0.1144 -0.1626
  868COC    COC  868   6.455   2.642   0.129  0.1389  0.0998  0.3286
  869COC    COC  869   6.622   2.756  10.264 -0.2375  0.0977  0.1754
  870COC    COC  870   6.930   2.719  10.269  0.2766  0.1489  0.2069
  871COC    COC  871   7.049   2.690   9.945 -0.2078 -0.0352 -0.4092
  872COC    COC  872   6.963   2.435   9.816  0.2293 -0.1036 -0.1313
  873COC    COC  873   6.778   2.349   9.596 -0.2417  0.0573  0.2799
  874COH    COH  874   6.797   2.360   9.343 -0.2859 -0.0283  0.0789
  875COH    COH  875   9.011   3.903   3.341 -0.0180 -0.2010 -0.4792
  876COC    COC  876   9.044   4.156   3.242  0.2192  0.3077  0.3020
  877COC    COC  877   9.327   4.227   3.231 -0.1522 -0.0326  0.3391
  878COC    COC  878   9.454   4.414   3.468 -0.1120 -0.0710  0.2327
  879COC    COC  879   9.420   4.349   3.783  0.0158  0.2419  0.1846
  880COC    COC  880   9.692   4.364   3.896 -0.1331 -0.0605  0.0322
  881COC    COC  881   9.955   4.242   3.940  0.1702  0.2731 -0.0793
  882COC    COC  882  10.026   4.064   4.167  0.1050 -0.2523 -0.1720
  883COC    COC  883  10.315   3.987   4.294 -0.2557 -0.2284  0.3688
  884COC    COC  884   0.101   3.707   4.206 -0.4700 -0.1477 -0.0204
  885COC    COC  885   0.379   3.704   4.295 -0.2589  0.1459  0.1179
  886COC    COC  886   0.550   3.946   4.164  0.1651  0.7216 -0.0100
  887COC    COC  887   0.663   3.994   3.930 -0.1177 -0.1964 -0.1083
  888COC    COC  888   0.668   4.263   3.732  0.2725 -0.1689 -0.1707
  889COC    COC  889   0.456   4.223   3.513 -0.0858  0.0224 -0.1193
  890COC    COC  890   0.395   4.540   3.530 -0.3873  0.0056  0.7462
  891COC    COC  891   0.391   4.612   3.814  0.0150 -0.3329  0.2435
  892COC    COC  892   0.361   4.378   4.035  0.0598  0.2909 -0.1105
  893COC    COC  893   0.224   4.116   3.912  0.1015  0.3066  0.0881
  894COC    COC  894   0.005   4.252   3.744  0.1351 -0.1243  0.0299
  895COC    COC  895  10.317   4.543   3.704 -0.1171 -0.3147  0.0212
  896COC    COC  896  10.277   4.680   3.421 -0.1448 -0.0526 -0.2063
  897COC    COC  897  10.276   4.545   3.138 -0.0551  0.0146  0.2580
  898COC    COC  898   0.187   4.433   3.026  0.0999  0.2373 -0.0840
  899COC    COC  899   0.476   4.361   3.093  0.2684  0.0490 -0.2523
  900COC    COC  900   0.636   4.564   2.934 -0.1510  0.0980  0.1294
  901COC    COC  901   0.405   4.666   2.739 -0.1258 -0.1115  0.0977
  902COC    COC  902   0.231   4.484   2.581  0.2371  0.1303  0.1239
  903COC    COC  903   0.188   4.184   2.678 -0.3401  0.1753 -0.4442
  904COC    COC  904   0.029   3.925   2.832 -0.3555  0.3275 -0.2044
  905COC    COC  905  10.275   3.697   2.670 -0.0354  0.2042 -0.0844
  906COC    COC  906  10.321   3.751   2.360 -0.4179 -0.2436  0.0273
  907COC    COC  907  10.227   3.492   2.202 -0.1439 -0.1959 -0.0421
  908COC    COC  908  10.184   3.319   2.417 -0.1898  0.4382 -0.3781
  909COC    COC  909   0.062   3.165   2.557  0.5896  0.0145 -0.2365
  910COC    COC  910   0.318   3.301   2.691 -0.0553  0.2347 -0.1356
  911COC    COC  911   0.282   3.335   3.000  0.0130 -0.4837  0.0972
  912COC    COC  912   0.006   3.386   3.122  0.0122  0.2803 -0.0340
  913COC    COC  913  10.278   3.612   3.340 -0.0072 -0.1165 -0.1913
  914COC    COC  914  10.246   3.403   3.556 -0.0541  0.0818  0.0277
  915COC    COC  915  10.213   3.331   3.862  0.2881  0.1905  0.2487
  916COC    COC  916  10.013   3.423   4.036 -0.0924  0.4538  0.1502
  917COC    COC  917   9.783   3.440   3.849 -0.0338 -0.1748 -0.0764
  918COC    COC  918   9.795   3.565   3.559 -0.1457 -0.2729 -0.0751
  919COC    COC  919   9.858   3.889   3.607  0.3512  0.1626  0.3197
  920COH    COH  920   9.723   4.005   3.418 -0.0406  0.2313 -0.1153
  921COH    COH  921   0.417   4.521   1.443  0.1208 -0.2374  0.2634
  922COC    COC  922   0.206   4.655   1.345  0.0155  0.4295 -0.0805
  923COC    COC  923   0.173   4.908   1.524  0.2610 -0.1791 -0.0416
  924COC    COC  924   0.353   5.172   1.594 -0.0210 -0.5596  0.0554
  925COC    COC  925   0.344   5.268   1.352 -0.1336 -0.4229  0.2242
  926COC    COC  926   0.095   5.181   1.195 -0.0938 -0.2457 -0.1566
  927COC    COC  927  10.157   5.092   1.105 -0.0803 -0.2079  0.1214
  928COC    COC  928   9.988   5.291   0.942  0.1544  0.1705 -0.2937
  929COC    COC  929   9.690   5.329   0.904  0.1287 -0.1602  0.0308
  930COC    COC  930   9.373   5.365   0.833  0.1208 -0.0202 -0.2058
  931COC    COC  931   9.345   5.548   0.587  0.1454  0.0300 -0.1211
  932COC    COC  932   9.547   5.400   0.418  0.4300 -0.1306 -0.2551
  933COC    COC  933   9.552   5.130   0.476 -0.1952  0.0726 -0.1534
  934COC    COC  934   9.365   4.934   0.286 -0.3406  0.0066 -0.0394
  935COC    COC  935   9.261   5.174   0.137 -0.4746 -0.2061  0.1981
  936COC    COC  936   9.140   5.471   0.132 -0.2280  0.1093 -0.3083
  937COC    COC  937   8.868   5.517   0.060  0.4935  0.0555  0.0534
  938COC    COC  938   8.605   5.688   0.024 -0.4033  0.2739  0.3024
  939COC    COC  939   8.476   5.754   0.220  0.1667 -0.3161 -0.2832
  940COC    COC  940   8.146   5.773   0.250 -0.2612  0.1050 -0.1061
  941COC    COC  941   7.945   5.916   0.071 -0.1398 -0.3905  0.0953
  942COC    COC  942   7.978   6.214   0.130  0.0068  0.1122 -0.3230
  943COC    COC  943   7.999   6.436  10.247 -0.2054  0.2018  0.2504
  944COC    COC  944   8.235   6.502  10.131 -0.4992 -0.1251  0.0815
  945COC    COC  945   8.356   6.751  10.285  0.1940  0.3331 -0.1592
  946COC    COC  946   8.355   6.935   0.132  0.0800 -0.2001 -0.1644
  947COC    COC  947   8.329   7.224   0.091 -0.0122  0.4801  0.1499
  948COC    COC  948   8.436   7.338   0.366  0.1027 -0.0974 -0.1286
  949COC    COC  949   8.610   7.526   0.498 -0.1426  0.0369  0.1107
  950COC    COC  950   8.706   7.802   0.418  0.2428  0.0654 -0.0372
  951COC    COC  951   8.557   8.029   0.606  0.3906 -0.2981 -0.4256
  952COC    COC  952   8.310   7.845   0.695  0.0365 -0.0251 -0.1361
  953COC    COC  953   8.199   7.714   0.450  0.0458 -0.0392 -0.0726
  954COC    COC  954   8.054   7.945   0.233 -0.2911  0.0357  0.0607
  955COC    COC  955   7.826   8.149   0.396  0.0908  0.3703  0.5559
  956COC    COC  956   7.494   8.146   0.325 -0.0035 -0.4589 -0.2786
  957COC    COC  957   7.374   7.948   0.588  0.0402  0.0240  0.2510
  958COC    COC  958   7.451   7.806   0.821  0.0003  0.2397 -0.1041
  959COC    COC  959   7.681   7.656   0.967  0.0039 -0.0649  0.3577
  960COC    COC  960   7.931   7.551   0.837  0.2952  0.2335 -0.1137
  961COC    COC  961   8.072   7.396   0.609  0.0400  0.4139 -0.0182
  962COC    COC  962   8.063   7.129   0.443  0.1452 -0.2127  0.0616
  963COC    COC  963   7.932   6.879   0.551 -0.1884 -0.3671  0.2659
  964COC    COC  964   7.649   6.778   0.423  0.1666 -0.4267  0.0049
  965COC    COC  965   7.402   6.944   0.337 -0.1168 -0.4883 -0.2331
  966COH    COH  966   7.510   7.044   0.118  0.5234  0.2097 -0.4129
  967COH    COH  967   3.008   8.170   7.309  0.0894 -0.2937  0.1447
  968COC    COC  968   3.092   8.147   7.531  0.3752 -0.4201 -0.0882
  969COC    COC  969   2.828   8.030   7.666 -0.1456  0.1273 -0.4216
  970COC    COC  970   2.587   7.988   7.488 -0.0105 -0.0807  0.1194
  971COC    COC  971   2.687   7.823   7.209  0.2001  0.0604 -0.2788
  972COC    COC  972   2.999   7.756   7.289  0.1328  0.0832 -0.2965
  973COC    COC  973   3.107   7.629   7.530  0.6065 -0.1040  0.0819
  974COC    COC  974   2.872   7.515   7.645  0.1219  0.4021  0.5439
  975COC    COC  975   2.583   7.444   7.538  0.2198  0.5106 -0.1402
  976COC    COC  976   2.370   7.499   7.313  0.0123  0.2977  0.2294
  977COC    COC  977   2.226   7.751   7.248  0.0757 -0.1859  0.1456
  978COC    COC  978   2.157   7.952   7.015  0.1485 -0.0330  0.2381
  979COC    COC  979   1.862   8.051   7.078 -0.0985 -0.0622 -0.1773
  980COC    COC  980   1.632   8.139   6.895 -0.0264 -0.1217 -0.3201
  981COC    COC  981   1.598   8.455   6.974 -0.2122 -0.2741  0.1550
  982COC    COC  982   1.809   8.624   6.861 -0.1986 -0.1887  0.3893
  983COC    COC  983   1.890   8.835   7.015  0.1386  0.0317 -0.1081
  984COC    COC  984   2.087   8.901   7.266  0.3934  0.4341 -0.1421
  985COC    COC  985   2.354   8.756   7.297  0.0616  0.0614 -0.0178
  986COC    COC  986   2.427   8.585   7.514 -0.2135  0.1736  0.0830
  987COC    COC  987   2.562   8.387   7.698  0.0654  0.2928  0.0419
  988COC    COC  988   2.432   8.399   7.944  0.0413  0.2325 -0.2374
  989COC    COC  989   2.127   8.307   8.018  0.3360  0.1000 -0.3224
  990COC    COC  990   1.839   8.418   7.969  0.3075 -0.6463 -0.5784
  991COC    COC  991   1.632   8.231   8.090  0.3465  0.4695  0.1933
  992COC    COC  992   1.692   8.001   8.316  0.0078  0.5426 -0.1912
  993COC    COC  993   1.937   8.031   8.468 -0.4417 -0.3000 -0.1758
  994COC    COC  994   1.793   8.096   8.730  0.2416 -0.1660 -0.2247
  995COC    COC  995   1.502   8.116   8.820  0.1334  0.3297  0.4837
  996COC    COC  996   1.414   8.187   9.109  0.1500 -0.0453  0.0959
  997COC    COC  997   1.655   8.056   9.285  0.2110 -0.1348 -0.5096
  998COC    COC  998   1.869   7.951   9.138 -0.0888  0.1005  0.0395
  999COC    COC  999   2.166   7.900   9.221 -0.1039  0.4037 -0.3704
 1000COC    COC 1000   2.269   7.646   9.092  0.0494 -0.0172 -0.3658
 1001COC    COC 1001   2.553   7.563   9.068 -0.3614  0.0776 -0.0296
 1002COC    COC 1002   2.688   7.839   8.985  0.1638 -0.2449  0.0838
 1003COC    COC 1003   2.798   8.093   9.084 -0.0693 -0.0402 -0.0309
 1004COC    COC 1004   2.997   8.275   8.930 -0.1171  0.4213  0.5289
 1005COC    COC 1005   3.179   8.113   8.733 -0.0271 -0.4521  0.2063
 1006COC    COC 1006   3.283   8.305   8.524 -0.2254  0.1952  0.1820
 1007COC    COC 1007   3.221   8.575   8.383  0.0242 -0.3062  0.0527
 1008COC    COC 1008   3.032   8.666   8.614  0.0458 -0.4147 -0.0119
 1009COC    COC 1009   2.762   8.666   8.675 -0.3786  0.2400  0.3942
 1010COC    COC 1010   2.586   8.850   8.538 -0.0914 -0.3506 -0.5673
 1011COC    COC 1011   2.452   8.798   8.276  0.2366  0.0442  0.4526
 1012COH    COH 1012   2.529   8.541   8.250  0.1918  0.1569 -0.1265
 1013COH    COH 1013   7.897   5.342   9.797 -0.1038 -0.3552  0.1165
 1014COC    COC 1014   7.749   5.552   9.768  0.1797 -0.1706 -0.2635
 1015COC    COC 1015   7.772   5.793   9.645 -0.5776  0.0209  0.2626
 1016COC    COC 1016   7.599   6.000   9.790 -0.3202 -0.5937 -0.0427
 1017COC    COC 1017   7.818   6.113   9.955 -0.2582  0.1081  0.3039
 1018COC    COC 1018   8.117   6.117   9.864  0.1609 -0.1040 -0.1174
 1019COC    COC 1019   8.292   6.026  10.132  0.0417 -0.0755  0.1868
 1020COC    COC 1020   8.385   6.220   0.044 -0.0072  0.1304 -0.1500
 1021COC    COC 1021   8.395   6.120   0.345  0.0285  0.1780 -0.2149
 1022COC    COC 1022   8.613   6.267   0.521  0.5437 -0.1047  0.1827
 1023COC    COC 1023   8.737   6.050   0.703 -0.2028  0.0897  0.2192
 1024COC    COC 1024   8.879   6.149   0.937  0.2056  0.3283 -0.0665
 1025COC    COC 1025   9.162   6.285   1.002  0.1810 -0.2119  0.3469
 1026COC    COC 1026   9.120   6.574   1.109 -0.0842 -0.2484 -0.1876
 1027COC    COC 1027   9.143   6.773   1.354  0.1350  0.2849 -0.0872
 1028COC    COC 1028   9.248   7.059   1.442  0.1756 -0.1483 -0.1332
 1029COC    COC 1029   9.535   7.078   1.324  0.1919 -0.3934 -0.2948
 1030COC    COC 1030   9.688   6.801   1.348 -0.2321 -0.1183 -0.1384
 1031COC    COC 1031   9.579   6.546   1.220 -0.2440  0.0594  0.3892
 1032COC    COC 1032   9.443   6.313   1.346 -0.1439 -0.0466 -0.1408
 1033COC    COC 1033   9.335   6.364   1.604 -0.1932  0.2335  0.0859
 1034COC    COC 1034   9.030   6.386   1.599  0.0853 -0.2606 -0.4488
 1035COC    COC 1035   8.899   6.603   1.780  0.0355 -0.2483 -0.0327
 1036COC    COC 1036   8.821   6.541   2.060 -0.3746 -0.1973 -0.0775
 1037COC    COC 1037   9.004   6.354   2.200 -0.0341 -0.0723  0.1014
 1038COC    COC 1038   8.882   6.173   2.384  0.0704 -0.1153  0.3391
 1039COC    COC 1039   8.835   5.939   2.556 -0.1475  0.3640  0.2909
 1040COC    COC 1040   9.072   5.750   2.628 -0.3088  0.3191 -0.0799
 1041COC    COC 1041   9.121   5.469   2.471 -0.4115 -0.2205 -0.0773
 1042COC    COC 1042   9.322   5.310   2.632 -0.3600  0.0372  0.2291
 1043COC    COC 1043   9.346   5.166   2.868 -0.1050 -0.1629 -0.1040
 1044COC    COC 1044   9.586   5.144   3.078  0.0607  0.1242  0.1556
 1045COC    COC 1045   9.818   5.087   2.925 -0.4432 -0.1816  0.3228
 1046COC    COC 1046   9.959   4.834   3.027 -0.1315 -0.0412  0.1363
 1047COC    COC 1047   9.760   4.725   3.202 -0.1438  0.1863  0.0206
 1048COC    COC 1048   9.474   4.673   3.130 -0.1121 -0.0906  0.2860
 1049COC    COC 1049   9.326   4.637   2.903 -0.1075 -0.2588  0.2194
 1050COC    COC 1050   9.344   4.386   2.706  0.2010 -0.0564  0.3571
 1051COC    COC 1051   9.461   4.384   2.408 -0.2146 -0.1645 -0.0034
 1052COC    COC 1052   9.387   4.599   2.243  0.0549  0.3841 -0.2209
 1053COC    COC 1053   9.592   4.716   2.114 -0.1937  0.2187  0.0305
 1054COC    COC 1054   9.461   4.949   1.990 -0.0964  0.1395  0.1650
 1055COC    COC 1055   9.434   4.983   1.702 -0.0501  0.2769  0.1777
 1056COC    COC 1056   9.692   5.122   1.605  0.1154  0.3884  0.0144
 1057COC    COC 1057   9.914   4.906   1.699  0.0574  0.1278  0.0434
 1058COH    COH 1058  10.153   4.954   1.730 -0.3613 -0.4026  0.1337
 1059COH    COH 1059   1.296   6.911   1.897  0.1421 -0.1908  0.3816
 1060COC    COC 1060   1.206   6.928   1.652 -0.1675  0.1913  0.0595
 1061COC    COC 1061   0.969   6.909   1.467  0.0324  0.3283  0.0477
 1062COC    COC 1062   1.070   6.793   1.192 -0.1374 -0.0539 -0.3680
 1063COC    COC 1063   1.348   6.759   1.073 -0.0798  0.1582  0.0144
 1064COC    COC 1064   1.541   6.580   1.239 -0.1238 -0.2346 -0.1650
 1065COC    COC 1065   1.821   6.685   1.378 -0.0325  0.2901  0.4872
 1066COC    COC 1066   2.095   6.768   1.354 -0.1149  0.1087  0.0392
 1067COC    COC 1067   2.404   6.733   1.220  0.1363  0.0692 -0.1411
 1068COC    COC 1068   2.551   6.500   1.329 -0.1287  0.1144 -0.1193
 1069COC    COC 1069   2.589   6.343   1.592 -0.9396 -0.6900  0.1558
 1070COC    COC 1070   2.449   6.373   1.846  0.1682  0.2283 -0.0150
 1071COC    COC 1071   2.513   6.158   1.975 -0.1545  0.3945 -0.4017
 1072COC    COC 1072   2.599   6.208   2.249 -0.1226 -0.1287 -0.5216
 1073COC    COC 1073   2.636   6.364   2.513  0.0449  0.2339  0.0758
 1074COC    COC 1074   2.907   6.491   2.469 -0.1578 -0.0168 -0.3393
 1075COC    COC 1075   3.108   6.691   2.564  0.2321  0.4624  0.0072
 1076COC    COC 1076   3.366   6.585   2.571  0.0872 -0.0460 -0.4068
 1077COC    COC 1077   3.574   6.442   2.344  0.1234  0.2536 -0.1826
 1078COC    COC 1078   3.428   6.359   2.081 -0.2328 -0.0636 -0.0880
 1079COC    COC 1079   3.255   6.068   2.002  0.0748 -0.3432 -0.0694
 1080COC    COC 1080   3.537   5.951   1.923  0.1930  0.2147 -0.1282
 1081COC    COC 1081   3.563   5.638   2.013 -0.1488  0.0989 -0.3119
 1082COC    COC 1082   3.678   5.400   1.875  0.5609 -0.0796  0.3731
 1083COC    COC 1083   3.893   5.209   1.779 -0.2601  0.1443 -0.1634
 1084COC    COC 1084   3.974   4.984   1.552  0.1441  0.1366 -0.0216
 1085COC    COC 1085   3.984   4.912   1.269 -0.1433  0.0253 -0.1559
 1086COC    COC 1086   3.736   4.768   1.322 -0.0646  0.4743  0.0961
 1087COC    COC 1087   3.533   4.743   1.117 -0.0904 -0.0616  0.2235
 1088COC    COC 1088   3.364   4.955   0.930  0.1615  0.2972 -0.1153
 1089COC    COC 1089   3.140   5.069   1.061  0.0844 -0.2304 -0.0463
 1090COC    COC 1090   3.147   5.341   0.887  0.4201 -0.1692 -0.2787
 1091COC    COC 1091   2.973   5.563   0.786 -0.0025  0.2475 -0.1049
 1092COC    COC 1092   2.779   5.756   0.905 -0.3757  0.3895 -0.3700
 1093COC    COC 1093   2.748   5.802   1.193 -0.1008  0.0437 -0.1509
 1094COC    COC 1094   2.582   5.569   1.339  0.2679  0.1559 -0.3273
 1095COC    COC 1095   2.343   5.680   1.155 -0.2076 -0.0863 -0.0506
 1096COC    COC 1096   2.163   5.480   1.055  0.0642 -0.2582 -0.3431
 1097COC    COC 1097   2.375   5.247   1.052 -0.1397  0.0750 -0.0272
 1098COC    COC 1098   2.615   5.369   0.880 -0.4302 -0.0685 -0.0073
 1099COC    COC 1099   2.623   5.354   0.556  0.5449 -0.4056  0.2160
 1100COC    COC 1100   2.313   5.367   0.486 -0.0372 -0.4045 -0.1101
 1101COC    COC 1101   2.140   5.395   0.220  0.1519 -0.0226  0.4017
 1102COC    COC 1102   1.868   5.225   0.198  0.3156 -0.0882  0.0460
 1103COC    COC 1103   1.587   5.415   0.273 -0.3896  0.0755  0.1576
 1104COH    COH 1104   1.567   5.504   0.501  0.1559 -0.0138  0.1329
 1105COH    COH 1105   1.308   7.645  10.008  0.1422 -0.3853 -0.4193
 1106COC    COC 1106   1.417   7.897   9.882  0.1783  0.0410 -0.2505
 1107COC    COC 1107   1.376   7.815   9.584  0.2806  0.0927  0.1132
 1108COC    COC 1108   1.108   7.631   9.534  0.0098  0.0781 -0.0774
 1109COC    COC 1109   0.929   7.571   9.783  0.0716 -0.2696  0.1696
 1110COC    COC 1110   0.619   7.557   9.780  0.3384  0.2865 -0.0564
 1111COC    COC 1111   0.491   7.841   9.871 -0.1996 -0.0377  0.4358
 1112COC    COC 1112   0.470   8.145   9.912 -0.1937  0.0287 -0.0413
 1113COC    COC 1113   0.471   8.138  10.262  0.2136 -0.0121 -0.1040
 1114COC    COC 1114   0.181   8.176   0.056 -0.2734  0.5670 -0.3400
 1115COC    COC 1115   0.090   7.874   0.076  0.1391 -0.4002  0.2914
 1116COC    COC 1116  10.332   7.567  10.327 -0.3633 -0.3147 -0.2352
 1117COC    COC 1117  10.271   7.443  10.054  0.2633  0.0507  0.1500
 1118COC    COC 1118   0.064   7.189   9.977  0.1594 -0.5233  0.1018
 1119COC    COC 1119   0.197   7.004  10.159 -0.2037  0.1205  0.0614
 1120COC    COC 1120   0.108   6.707  10.143 -0.3047 -0.1453  0.4896
 1121COC    COC 1121  10.128   6.686  10.125  0.1036 -0.0353  0.3076
 1122COC    COC 1122  10.143   6.857   9.856  0.4547 -0.2093 -0.1823
 1123COC    COC 1123   9.973   6.865   9.612 -0.0429 -0.1850  0.1697
 1124COC    COC 1124   9.899   6.641   9.437  0.0403 -0.1225 -0.3021
 1125COC    COC 1125   9.631   6.510   9.453 -0.2528  0.1079  0.0696
 1126COC    COC 1126   9.446   6.686   9.300 -0.3215  0.1218  0.0700
 1127COC    COC 1127   9.155   6.665   9.321 -0.5450 -0.2187 -0.4067
 1128COC    COC 1128   8.947   6.846   9.324 -0.1535 -0.3484 -0.3667
 1129COC    COC 1129   8.640   6.856   9.432 -0.4357  0.0737  0.0827
 1130COC    COC 1130   8.500   6.632   9.302 -0.0768 -0.1097  0.1392
 1131COC    COC 1131   8.664   6.480   9.106  0.3965  0.2394  0.0540
 1132COC    COC 1132   8.823   6.213   9.218  0.2270  0.0616  0.0998
 1133COC    COC 1133   8.727   6.019   9.444 -0.0696  0.2420 -0.0496
 1134COC    COC 1134   8.682   5.916   9.745  0.0756  0.1949  0.0939
 1135COC    COC 1135   8.783   6.039  10.013  0.2213 -0.3715 -0.1922
 1136COC    COC 1136   9.061   6.149  10.036 -0.1337  0.1841 -0.0595
 1137COC    COC 1137   9.204   5.916   9.872 -0.0110 -0.0641  0.0945
 1138COC    COC 1138   9.114   5.791   9.623 -0.0432 -0.0719  0.3839
 1139COC    COC 1139   9.313   5.753   9.388  0.0911 -0.0493  0.2817
 1140COC    COC 1140   9.507   5.934   9.523  0.2144 -0.1580 -0.0656
 1141COC    COC 1141   9.735   5.986   9.715 -0.3945  0.0099 -0.0253
 1142COC    COC 1142   9.993   5.857   9.662 -0.1838  0.1464  0.0719
 1143COC    COC 1143  10.206   5.878   9.839 -0.1078 -0.2213  0.0419
 1144COC    COC 1144  10.244   5.699  10.052 -0.1808 -0.0570  0.4478
 1145COC    COC 1145   0.068   5.439  10.120 -0.0897 -0.1984 -0.1017
 1146COC    COC 1146   0.120   5.211  10.344  0.0488  0.1579 -0.1277
 1147COC    COC 1147   0.172   5.300   0.269 -0.1492 -0.3765 -0.0934
 1148COC    COC 1148  10.323   5.521   0.272  0.1899 -0.2684 -0.0048
 1149COC    COC 1149  10.191   5.780   0.127 -0.0322 -0.3148 -0.3948
 1150COH    COH 1150  10.260   6.011   0.186 -0.1171  0.3427  0.4666
 1151COH    COH 1151   1.602   7.675   4.979 -0.3284  0.3036  0.0882
 1152COC    COC 1152   1.675   7.519   4.758 -0.0850  0.0742  0.0112
 1153COC    COC 1153   1.725   7.227   4.824 -0.2384  0.1090 -0.3305
 1154COC    COC 1154   1.591   7.100   4.603 -0.4668  0.3123  0.1633
 1155COC    COC 1155   1.678   6.857   4.469  0.0617  0.3107 -0.0017
 1156COC    COC 1156   1.920   6.737   4.455 -0.1625  0.0447 -0.0366
 1157COC    COC 1157   2.075   7.035   4.392 -0.2219 -0.1438 -0.1348
 1158COC    COC 1158   2.035   7.310   4.514 -0.1064 -0.0049 -0.3806
 1159COC    COC 1159   2.166   7.312   4.776  0.1278  0.0877  0.0552
 1160COC    COC 1160   2.263   7.115   4.984 -0.3841  0.1528 -0.3099
 1161COC    COC 1161   2.211   6.866   4.847  0.2752  0.2062 -0.0449
 1162COC    COC 1162   1.939   6.779   4.939  0.2353  0.0855  0.3896
 1163COC    COC 1163   1.746   6.733   5.194 -0.0338 -0.0099 -0.0655
 1164COC    COC 1164   1.608   6.530   5.367  0.0234 -0.1412  0.3314
 1165COC    COC 1165   1.515   6.527   5.661  0.1811 -0.2589  0.0792
 1166COC    COC 1166   1.249   6.361   5.596  0.2224  0.1466 -0.2203
 1167COC    COC 1167   1.328   6.172   5.389 -0.1703  0.1761  0.2941
 1168COC    COC 1168   1.243   6.162   5.076  0.1923  0.0081 -0.4303
 1169COC    COC 1169   1.325   6.009   4.826  0.1938  0.2073  0.0654
 1170COC    COC 1170   1.431   6.212   4.636  0.2674  0.4817  0.0671
 1171COC    COC 1171   1.319   6.449   4.459 -0.0697  0.0040 -0.1900
 1172COC    COC 1172   1.350   6.695   4.294  0.0171 -0.2444  0.0227
 1173COC    COC 1173   1.256   6.984   4.387  0.4512 -0.4220 -0.1605
 1174COC    COC 1174   1.297   7.230   4.167 -0.0007 -0.0180 -0.3171
 1175COC    COC 1175   1.415   7.478   4.311 -0.3467 -0.0040  0.1155
 1176COC    COC 1176   1.681   7.605   4.209 -0.4318 -0.0144  0.2663
 1177COC    COC 1177   1.727   7.710   3.956  0.1536  0.1202  0.0860
 1178COC    COC 1178   1.836   7.604   3.688 -0.0341 -0.1666 -0.1027
 1179COC    COC 1179   1.777   7.295   3.590 -0.2241  0.0155 -0.0198
 1180COC    COC 1180   2.021   7.190   3.714 -0.1269 -0.2882 -0.0602
 1181COC    COC 1181   2.333   7.314   3.664 -0.0707  0.1524 -0.2526
 1182COC    COC 1182   2.602   7.403   3.753  0.1123 -0.2033  0.0744
 1183COC    COC 1183   2.720   7.456   4.030 -0.7230 -0.2062  0.3173
 1184COC    COC 1184   2.695   7.440   4.322  0.0038  0.2276  0.2794
 1185COC    COC 1185   2.955   7.504   4.486 -0.2161 -0.2564  0.3917
 1186COC    COC 1186   3.184   7.363   4.390 -0.4122  0.2357  0.1172
 1187COC    COC 1187   3.078   7.121   4.208 -0.6151 -0.2557 -0.2672
 1188COC    COC 1188   2.919   7.070   3.961  0.2289  0.1571  0.3918
 1189COC    COC 1189   2.789   6.780   4.010  0.2705  0.1545  0.2341
 1190COC    COC 1190   2.679   6.747   4.270  0.6002  0.2907  0.1920
 1191COC    COC 1191   2.411   6.648   4.130  0.1657  0.0052  0.1315
 1192COC    COC 1192   2.286   6.509   4.358  0.2673  0.4122  0.0956
 1193COC    COC 1193   2.416   6.528   4.670  0.1741  0.1193 -0.3556
 1194COC    COC 1194   2.714   6.608   4.751  0.4553  0.0594  0.0176
 1195COC    COC 1195   2.668   6.837   4.986 -0.0451  0.0129 -0.4050
 1196COH    COH 1196   2.754   6.761   5.254  0.1243 -0.1342 -0.3251
 1197COH    COH 1197   5.882   8.607   5.536  0.4743  0.0857 -0.3953
 1198COC    COC 1198   5.734   8.811   5.556  0.0630  0.2093 -0.2024
 1199COC    COC 1199   5.807   9.077   5.531  0.0549 -0.2075  0.5178
 1200COC    COC 1200   5.659   9.275   5.366  0.1533 -0.3291 -0.1255
 1201COC    COC 1201   5.752   9.570   5.297  0.2384  0.0092  0.1678
 1202COC    COC 1202   5.993   9.699   5.462  0.1429  0.2781  0.0601
 1203COC    COC 1203   5.917   9.994   5.419 -0.0452  0.2220  0.1504
 1204COC    COC 1204   5.661   9.981   5.243 -0.2469 -0.1665  0.1041
 1205COC    COC 1205   5.591  10.164   5.031 -0.3443 -0.2608 -0.1831
 1206COC    COC 1206   5.684  10.215   4.742 -0.4511 -0.1015 -0.6284
 1207COC    COC 1207   5.849  10.179   4.519  0.2241  0.0829 -0.3133
 1208COC    COC 1208   5.703  10.013   4.295 -0.0771  0.3003  0.2953
 1209COC    COC 1209   5.859   9.736   4.415  0.0305 -0.0319  0.0916
 1210COC    COC 1210   5.966   9.815   4.667 -0.2839  0.3918  0.0900
 1211COC    COC 1211   6.202   9.975   4.697  0.5481  0.4030 -0.0391
 1212COC    COC 1212   6.481  10.016   4.571 -0.1627 -0.0932 -0.0987
 1213COC    COC 1213   6.616   9.872   4.344  0.1654 -0.2092 -0.0836
 1214COC    COC 1214   6.913   9.841   4.234  0.2141  0.2486 -0.3582
 1215COC    COC 1215   6.955   9.710   3.995 -0.1829 -0.2291  0.2832
 1216COC    COC 1216   7.150   9.511   4.122 -0.5072 -0.1173 -0.1131
 1217COC    COC 1217   7.271   9.603   4.367 -0.2783  0.3145 -0.0410
 1218COC    COC 1218   7.320   9.890   4.410  0.1186  0.1176  0.2990
 1219COC    COC 1219   7.594   9.900   4.258 -0.0900  0.0516 -0.0093
 1220COC    COC 1220   7.657  10.148   4.094 -0.1425 -0.0464  0.0832
 1221COC    COC 1221   7.534  10.312   3.856 -0.0071  0.0477 -0.1259
 1222COC    COC 1222   7.295   0.163   3.847  0.0531 -0.3829  0.0411
 1223COC    COC 1223   7.297   0.326   4.106 -0.2854 -0.3074  0.0956
 1224COC    COC 1224   7.090   0.402   4.286  0.3724  0.0856 -0.2439
 1225COC    COC 1225   7.204   0.405   4.586 -0.1303 -0.2560  0.1055
 1226COC    COC 1226   7.282   0.626   4.811 -0.4662 -0.1201 -0.2888
 1227COC    COC 1227   7.165   0.901   4.776  0.1310  0.3195  0.1474
 1228COC    COC 1228   7.110   1.023   5.055 -0.0287 -0.0531 -0.2070
 1229COC    COC 1229   7.110   1.303   4.924 -0.3272 -0.0691 -0.3313
 1230COC    COC 1230   7.370   1.386   5.003 -0.2097 -0.2480  0.2302
 1231COC    COC 1231   7.513   1.559   4.783  0.0901  0.3635  0.2552
 1232COC    COC 1232   7.326   1.685   4.563  0.0492 -0.1046  0.2950
 1233COC    COC 1233   7.042   1.672   4.611 -0.4963 -0.1069 -0.0240
 1234COC    COC 1234   6.893   1.714   4.899  0.0496 -0.1929 -0.0460
 1235COC    COC 1235   6.629   1.616   4.878  0.3897 -0.0903  0.2731
 1236COC    COC 1236   6.670   1.469   5.144  0.1180 -0.0905  0.1964
 1237COC    COC 1237   6.868   1.481   5.380 -0.1180 -0.4905 -0.1165
 1238COC    COC 1238   7.182   1.491   5.351 -0.1099 -0.0635 -0.2036
 1239COC    COC 1239   7.204   1.716   5.576 -0.3950 -0.0013 -0.2869
 1240COC    COC 1240   7.306   1.591   5.838 -0.1036 -0.0378 -0.3710
 1241COC    COC 1241   7.397   1.672   6.130 -0.1659  0.3403 -0.3019
 1242COH    COH 1242   7.684   1.664   6.078 -0.1075 -0.1924 -0.2237
 1243COH    COH 1243   7.360   5.131   4.329  0.3624 -0.3245  0.0066
 1244COC    COC 1244   7.135   4.952   4.328 -0.2342 -0.0461 -0.2565
 1245COC    COC 1245   6.997   4.708   4.428 -0.3384  0.2459 -0.0028
 1246COC    COC 1246   6.897   4.728   4.706 -0.2714 -0.1799  0.0158
 1247COC    COC 1247   6.606   4.812   4.637 -0.0576  0.1203  0.6894
 1248COC    COC 1248   6.382   4.753   4.844  0.0939  0.0950  0.1056
 1249COC    COC 1249   6.291   4.775   5.141 -0.0738 -0.0228  0.3984
 1250COC    COC 1250   6.483   4.639   5.314 -0.2471 -0.1095 -0.2115
 1251COC    COC 1251   6.497   4.776   5.569  0.2498 -0.0240  0.0607
 1252COC    COC 1252   6.727   4.926   5.557 -0.1051 -0.1171  0.1262
 1253COC    COC 1253   6.909   4.690   5.523 -0.2803  0.2584  0.0381
 1254COC    COC 1254   7.197   4.600   5.392  0.2575  0.3756  0.0877
 1255COC    COC 1255   7.345   4.855   5.267  0.3689 -0.0771  0.5513
 1256COC    COC 1256   7.155   5.100   5.305 -0.7440 -0.0541 -0.1222
 1257COC    COC 1257   7.355   5.245   5.490  0.1801 -0.2575  0.0988
 1258COC    COC 1258   7.438   5.544   5.364  0.4362  0.3796 -0.2891
 1259COC    COC 1259   7.426   5.510   5.052 -0.0221 -0.0476 -0.0249
 1260COC    COC 1260   7.324   5.267   4.845  0.0059 -0.6460 -0.1225
 1261COC    COC 1261   7.040   5.146   4.880  0.2587  0.1507  0.3512
 1262COC    COC 1262   6.913   5.356   5.075 -0.1486  0.1227  0.0162
 1263COC    COC 1263   6.660   5.460   5.123 -0.2264 -0.1531  0.0770
 1264COC    COC 1264   6.415   5.484   4.996  0.1966  0.0864 -0.5682
 1265COC    COC 1265   6.234   5.715   4.938  0.4716  0.3458 -0.0012
 1266COC    COC 1266   6.178   5.915   5.160 -0.2565 -0.0125 -0.2574
 1267COC    COC 1267   5.945   6.104   5.130 -0.1732 -0.1227 -0.1285
 1268COC    COC 1268   5.807   6.102   4.831 -0.1937 -0.2266 -0.0663
 1269COC    COC 1269   5.676   6.402   4.757  0.0363  0.0862  0.0775
 1270COC    COC 1270   5.710   6.463   4.464  0.3145 -0.1419  0.2508
 1271COC    COC 1271   5.489   6.337   4.266 -0.6385 -0.0047 -0.1770
 1272COC    COC 1272   5.569   6.113   4.058 -0.0202 -0.3309 -0.1430
 1273COC    COC 1273   5.473   5.906   3.895 -0.0747  0.0877  0.0839
 1274COC    COC 1274   5.539   5.757   3.639 -0.0111  0.0520 -0.1608
 1275COC    COC 1275   5.781   5.715   3.464  0.2662 -0.0382  0.0787
 1276COC    COC 1276   5.732   5.437   3.321  0.5335  0.1979 -0.2718
 1277COC    COC 1277   5.704   5.146   3.526 -0.2238 -0.3407  0.1137
 1278COC    COC 1278   5.526   5.272   3.784 -0.0726 -0.0817 -0.4270
 1279COC    COC 1279   5.288   5.467   3.796  0.6485  0.2082  0.1250
 1280COC    COC 1280   5.135   5.477   3.539  0.2072 -0.2807 -0.0112
 1281COC    COC 1281   4.982   5.748   3.550  0.0442  0.0298 -0.0167
 1282COC    COC 1282   5.064   5.994   3.432  0.0140 -0.1218  0.3824
 1283COC    COC 1283   5.127   6.075   3.115  0.3687 -0.2376  0.2064
 1284COC    COC 1284   4.942   6.231   2.948 -0.0894  0.2960  0.2859
 1285COC    COC 1285   4.845   6.494   3.031 -0.5411 -0.3208 -0.1360
 1286COC    COC 1286   5.028   6.722   3.069  0.1188  0.1750 -0.0074
 1287COC    COC 1287   4.911   6.997   3.073  0.1064  0.2209  0.1094
 1288COH    COH 1288   5.028   7.192   2.954  0.5377  0.2299 -0.5427
 1289COH    COH 1289   2.375   7.355   8.223  0.0575 -0.6638 -0.2729
 1290COC    COC 1290   2.239   7.382   8.018  0.3260  0.8999  0.1747
 1291COC    COC 1291   2.275   7.150   7.778 -0.0914 -0.1872  0.3963
 1292COC    COC 1292   2.378   6.906   7.927  0.0939  0.3746  0.1303
 1293COC    COC 1293   2.370   6.619   8.053 -0.2400 -0.2831 -0.2734
 1294COC    COC 1294   2.257   6.595   8.341 -0.6019 -0.0753 -0.0704
 1295COC    COC 1295   2.022   6.438   8.254  0.1970  0.0492  0.0494
 1296COC    COC 1296   1.887   6.166   8.308  0.3530  0.1273 -0.0854
 1297COC    COC 1297   2.140   5.971   8.293  0.2758 -0.3951  0.0331
 1298COC    COC 1298   2.362   5.964   8.060 -0.2241  0.3445 -0.1080
 1299COC    COC 1299   2.475   6.249   7.995 -0.0596  0.1927  0.0183
 1300COC    COC 1300   2.637   6.318   8.253 -0.0629  0.0018 -0.1620
 1301COC    COC 1301   2.694   6.591   8.374 -0.3614  0.1297  0.2713
 1302COC    COC 1302   2.903   6.771   8.253  0.0871  0.2876 -0.0223
 1303COC    COC 1303   3.088   6.519   8.211  0.5298  0.1579  0.2502
 1304COC    COC 1304   3.134   6.347   8.461  0.0171  0.6127  0.0971
 1305COC    COC 1305   3.245   6.298   8.723  0.1912  0.1270  0.0329
 1306COC    COC 1306   3.188   6.132   8.999  0.2098  0.1285 -0.1159
 1307COC    COC 1307   3.296   5.858   9.085  0.2431  0.2204 -0.1167
 1308COC    COC 1308   3.582   5.868   9.135 -0.3519  0.1705  0.0277
 1309COC    COC 1309   3.779   5.679   9.028  0.1113  0.4884 -0.5050
 1310COC    COC 1310   3.783   5.442   8.785 -0.3171  0.1615 -0.0452
 1311COC    COC 1311   3.895   5.570   8.564  0.2927  0.1802 -0.5121
 1312COC    COC 1312   3.972   5.856   8.698  0.0345  0.0715  0.2806
 1313COC    COC 1313   4.102   6.001   8.938 -0.1825 -0.2368 -0.3564
 1314COC    COC 1314   4.274   6.270   8.939  0.0040 -0.2685  0.0133
 1315COC    COC 1315   4.079   6.485   8.797 -0.0090 -0.0057 -0.0629
 1316COC    COC 1316   4.147   6.790   8.666 -0.0838  0.3117  0.3997
 1317COC    COC 1317   3.957   7.022   8.588 -0.4563 -0.0322  0.3974
 1318COC    COC 1318   3.672   7.073   8.441  0.4406  0.2941 -0.1691
 1319COC    COC 1319   3.421   6.888   8.320 -0.1611  0.1031  0.2236
 1320COC    COC 1320   3.254   6.779   8.564 -0.2705  0.1388 -0.0996
 1321COC    COC 1321   3.088   6.891   8.772  0.0660 -0.1115  0.3868
 1322COC    COC 1322   2.834   7.075   8.765 -0.1063 -0.5071  0.1717
 1323COC    COC 1323   2.881   7.375   8.767 -0.0300  0.0172 -0.0613
 1324COC    COC 1324   2.975   7.607   8.595  0.4727 -0.1785  0.0002
 1325COC    COC 1325   2.843   7.808   8.378  0.1284 -0.3203 -0.4553
 1326COC    COC 1326   2.701   8.064   8.539 -0.5955  0.0749  0.1899
 1327COC    COC 1327   2.866   8.295   8.400  0.0962  0.3602 -0.0867
 1328COC    COC 1328   2.800   8.273   8.107 -0.2598  0.1262 -0.2724
 1329COC    COC 1329   3.058   8.334   7.931  0.2021 -0.2168  0.0075
 1330COC    COC 1330   3.036   8.541   7.721  0.1188  0.1275 -0.2222
 1331COC    COC 1331   3.276   8.706   7.591  0.0524 -0.0146  0.3017
 1332COC    COC 1332   3.263   8.946   7.403 -0.0898  0.1066  0.2060
 1333COC    COC 1333   3.399   9.211   7.500 -0.2242  0.1002  0.0529
 1334COH    COH 1334   3.638   9.203   7.651 -0.1021  0.1641 -0.1791
 1335COH    COH 1335   5.973   1.704   9.594 -0.1442 -0.2510 -0.0474
 1336COC    COC 1336   5.854   1.706   9.822 -0.8024 -0.0910  0.1049
 1337COC    COC 1337   5.953   1.964   9.979 -0.4077 -0.8983  0.0332
 1338COC    COC 1338   5.826   2.205   9.852  0.3245 -0.3126  0.1698
 1339COC    COC 1339   5.950   2.478   9.822 -0.3686  0.2140 -0.0487
 1340COC    COC 1340   6.179   2.613   9.685 -0.1847 -0.0550 -0.3758
 1341COC    COC 1341   6.212   2.754   9.442  0.2194 -0.1491 -0.2278
 1342COC    COC 1342   6.385   2.855   9.192  0.1682 -0.1213  0.1070
 1343COC    COC 1343   6.303   2.830   8.884  0.0914 -0.1890  0.0325
 1344COC    COC 1344   6.410   2.691   8.629 -0.0607 -0.4759 -0.0242
 1345COC    COC 1345   6.611   2.875   8.440 -0.1717  0.3112 -0.2634
 1346COC    COC 1346   6.694   3.185   8.480  0.2211 -0.0125  0.0467
 1347COC    COC 1347   6.868   3.375   8.368 -0.0006  0.3252  0.7124
 1348COC    COC 1348   7.048   3.467   8.511 -0.2151 -0.5072 -0.0322
 1349COC    COC 1349   7.096   3.235   8.696  0.1609  0.0400 -0.2899
 1350COC    COC 1350   7.254   3.020   8.546 -0.0865  0.2839 -0.2526
 1351COC    COC 1351   7.049   2.775   8.589  0.1805  0.3707  0.0559
 1352COC    COC 1352   6.951   2.501   8.542 -0.0365  0.2280 -0.4654
 1353COC    COC 1353   7.021   2.197   8.570 -0.1278  0.4681  0.0665
 1354COC    COC 1354   7.227   1.974   8.509 -0.0615 -0.0939 -0.4772
 1355COC    COC 1355   7.169   1.710   8.465  0.1700  0.0659 -0.0881
 1356COC    COC 1356   6.866   1.596   8.499  0.0314 -0.2173  0.2064
 1357COC    COC 1357   6.797   1.343   8.393 -0.1624  0.5145 -0.0959
 1358COC    COC 1358   6.763   1.272   8.105 -0.1020 -0.4014  0.0454
 1359COC    COC 1359   6.545   1.042   8.122 -0.1073 -0.1214  0.0805
 1360COC    COC 1360   6.265   1.177   8.186  0.2323 -0.0610 -0.3351
 1361COC    COC 1361   6.112   1.315   8.419 -0.2548 -0.3000 -0.1607
 1362COC    COC 1362   5.802   1.306   8.406  0.0107 -0.0084  0.2789
 1363COC    COC 1363   5.561   1.276   8.571 -0.0020 -0.1195 -0.0722
 1364COC    COC 1364   5.298   1.368   8.736 -0.0349  0.0316 -0.0879
 1365COC    COC 1365   5.387   1.633   8.777 -0.2580  0.0263 -0.1130
 1366COC    COC 1366   5.703   1.689   8.702 -0.1712 -0.2167 -0.1029
 1367COC    COC 1367   5.782   1.741   8.396  0.0639  0.2225 -0.4485
 1368COC    COC 1368   6.021   1.698   8.223 -0.3427 -0.3800  0.1937
 1369COC    COC 1369   6.301   1.820   8.135  0.2291 -0.3208  0.3300
 1370COC    COC 1370   6.366   1.635   7.905 -0.2963  0.3460 -0.0253
 1371COC    COC 1371   6.362   1.358   7.782 -0.5382 -0.0797 -0.3092
 1372COC    COC 1372   6.182   1.067   7.751 -0.1187 -0.0624 -0.1176
 1373COC    COC 1373   6.202   0.796   7.929  0.2744  0.0512 -0.2837
 1374COC    COC 1374   6.463   0.608   7.856 -0.1179  0.1358  0.1581
 1375COC    COC 1375   6.755   0.713   7.812  0.3350 -0.3205  0.1795
 1376COC    COC 1376   6.888   0.461   7.748 -0.2383 -0.2455 -0.0730
 1377COC    COC 1377   7.087   0.377   7.956 -0.3893  0.3021  0.1832
 1378COC    COC 1378   7.300   0.428   8.105 -0.2605 -0.1962  0.1906
 1379COC    COC 1379   7.556   0.589   8.153  0.0685 -0.3492  0.0562
 1380COH    COH 1380   7.377   0.789   8.241 -0.3808 -0.2557  0.3155
 1381COH    COH 1381   2.293   1.020   7.724  0.1068 -0.0355 -0.5937
 1382COC    COC 1382   2.124   1.249   7.820 -0.1662  0.2386 -0.0445
 1383COC    COC 1383   2.234   1.266   8.081 -0.3746 -0.0117 -0.2611
 1384COC    COC 1384   2.142   1.582   8.152 -0.3802 -0.1249  0.1334
 1385COC    COC 1385   2.389   1.764   8.008 -0.3309  0.0665  0.2990
 1386COC    COC 1386   2.537   1.559   7.834  0.0155 -0.2415  0.1904
 1387COC    COC 1387   2.588   1.259   7.818 -0.0786  0.0924  0.0388
 1388COC    COC 1388   2.744   1.136   7.573  0.2258 -0.0285  0.1713
 1389COC    COC 1389   2.718   0.824   7.599  0.3391 -0.3150 -0.1650
 1390COC    COC 1390   2.465   0.708   7.585 -0.1930 -0.4387  0.1123
 1391COC    COC 1391   2.263   0.855   7.412 -0.2942 -0.1025  0.0676
 1392COC    COC 1392   1.953   0.833   7.517 -0.0765 -0.0768  0.0022
 1393COC    COC 1393   1.690   0.945   7.415  0.1340 -0.0014 -0.3611
 1394COC    COC 1394   1.681   1.211   7.280  0.3045  0.1924 -0.4280
 1395COC    COC 1395   1.413   1.356   7.359 -0.1413 -0.1749 -0.0507
 1396COC    COC 1396   1.098   1.268   7.368  0.0957 -0.1348  0.1597
 1397COC    COC 1397   0.773   1.312   7.305 -0.1761  0.6190  0.1264
 1398COC    COC 1398   0.736   1.383   7.013  0.1589 -0.0964 -0.1306
 1399COC    COC 1399   0.558   1.639   7.038 -0.3623 -0.0238  0.3909
 1400COC    COC 1400   0.260   1.663   7.031  0.1136 -0.0288 -0.1027
 1401COC    COC 1401   0.119   1.609   6.791 -0.3980  0.2711 -0.0321
 1402COC    COC 1402  10.161   1.583   6.779 -0.5265  0.3384 -0.1452
 1403COC    COC 1403   9.849   1.521   6.824 -0.2714 -0.4148 -0.1776
 1404COC    COC 1404   9.824   1.218   6.850 -0.1860  0.1130 -0.0563
 1405COC    COC 1405   9.874   1.070   7.119 -0.1514 -0.6060  0.0732
 1406COC    COC 1406   9.679   1.172   7.354  0.2255  0.3863 -0.1972
 1407COC    COC 1407   9.724   1.415   7.549 -0.3257  0.2326  0.2015
 1408COC    COC 1408   9.564   1.465   7.820 -0.0478  0.0671  0.1532
 1409COC    COC 1409   9.339   1.627   7.832  0.2726  0.1555  0.2435
 1410COC    COC 1410   9.232   1.761   7.548  0.2758 -0.3661 -0.1905
 1411COC    COC 1411   8.921   1.831   7.466 -0.1073  0.0160 -0.1651
 1412COC    COC 1412   8.833   1.561   7.299 -0.2776  0.1142  0.0386
 1413COC    COC 1413   8.525   1.562   7.238 -0.1833  0.1283  0.2958
 1414COC    COC 1414   8.344   1.338   7.102  0.1980 -0.2252  0.0527
 1415COC    COC 1415   8.202   1.212   7.309  0.4286 -0.2962 -0.1038
 1416COC    COC 1416   8.100   0.901   7.323 -0.1912 -0.0192 -0.0884
 1417COC    COC 1417   8.265   0.726   7.531  0.3015 -0.1771 -0.1489
 1418COC    COC 1418   8.537   0.581   7.519  0.1432 -0.0531 -0.4642
 1419COC    COC 1419   8.640   0.648   7.779  0.2613 -0.7695 -0.1492
 1420COC    COC 1420   8.445   0.836   7.958 -0.4108 -0.3958 -0.0331
 1421COC    COC 1421   8.149   0.792   8.130 -0.0345 -0.0538 -0.0683
 1422COC    COC 1422   7.981   0.553   8.251 -0.1086  0.0002  0.2129
 1423COC    COC 1423   8.083   0.307   8.368  0.0792 -0.3525 -0.4092
 1424COC    COC 1424   8.182   0.079   8.206 -0.0521 -0.3726  0.4257
 1425COC    COC 1425   8.402   0.003   8.026  0.1953 -0.1639  0.1647
 1426COH    COH 1426   8.598   0.155   7.944  0.2234  0.3540  0.4940
 1427COH    COH 1427   4.372   2.607   4.940 -0.3212 -0.2366  0.3418
 1428COC    COC 1428   4.449   2.761   5.115 -0.3011  0.0797 -0.1134
 1429COC    COC 1429   4.703   2.789   5.313 -0.4763  0.1907  0.1944
 1430COC    COC 1430   4.901   3.006   5.303  0.0948 -0.0514  0.2924
 1431COC    COC 1431   5.004   3.261   5.477 -0.2181  0.0654  0.0770
 1432COC    COC 1432   5.286   3.397   5.421  0.2782  0.1974 -0.2102
 1433COC    COC 1433   5.601   3.334   5.361  0.1766  0.0705 -0.0701
 1434COC    COC 1434   5.837   3.111   5.466  0.4939  0.1329 -0.3013
 1435COC    COC 1435   5.710   2.868   5.624  0.1120 -0.3675 -0.1744
 1436COC    COC 1436   5.980   2.739   5.739 -0.3713 -0.1571  0.1823
 1437COC    COC 1437   6.091   2.734   6.034 -0.3453 -0.3543  0.4227
 1438COC    COC 1438   6.338   2.858   6.217 -0.0726  0.3820 -0.4207
 1439COC    COC 1439   6.157   3.008   6.445 -0.2409  0.0868  0.4788
 1440COC    COC 1440   5.879   2.939   6.394 -0.0517 -0.2371  0.1154
 1441COC    COC 1441   5.792   2.697   6.560 -0.0760 -0.1335  0.2217
 1442COC    COC 1442   5.621   2.749   6.837 -0.0042  0.1541  0.2489
 1443COC    COC 1443   5.643   2.831   7.116  0.1794 -0.4192 -0.1408
 1444COC    COC 1444   5.641   3.135   7.111  0.0868  0.2138 -0.2693
 1445COC    COC 1445   5.407   3.349   7.095 -0.0377 -0.2521  0.2980
 1446COC    COC 1446   5.158   3.236   7.127 -0.0096 -0.1394 -0.1345
 1447COC    COC 1447   4.922   3.381   7.024  0.0964 -0.1671 -0.3355
 1448COC    COC 1448   4.603   3.379   6.988  0.2024 -0.2665 -0.0054
 1449COC    COC 1449   4.333   3.287   6.848  0.1534  0.2505  0.2291
 1450COC    COC 1450   4.201   3.101   6.625 -0.3963 -0.0136  0.0266
 1451COC    COC 1451   3.979   2.985   6.519 -0.3528  0.0176  0.0212
 1452COC    COC 1452   3.712   2.888   6.439  0.2400 -0.0859 -0.4712
 1453COC    COC 1453   3.433   2.886   6.320 -0.0140 -0.6151  0.4700
 1454COC    COC 1454   3.332   2.987   6.067 -0.2837 -0.0750  0.3892
 1455COC    COC 1455   3.152   3.208   6.149  0.3581 -0.1026  0.3507
 1456COC    COC 1456   2.856   3.244   6.180  0.1589 -0.3036 -0.0596
 1457COC    COC 1457   2.660   3.190   6.399 -0.1462 -0.1255 -0.1280
 1458COC    COC 1458   2.686   3.120   6.689  0.0731  0.2970 -0.2416
 1459COC    COC 1459   2.499   3.014   6.877  0.3995 -0.1891  0.1415
 1460COC    COC 1460   2.443   2.711   6.943  0.0472  0.2776 -0.0822
 1461COC    COC 1461   2.608   2.448   6.848 -0.0026  0.8686  0.0979
 1462COC    COC 1462   2.582   2.502   6.575 -0.4251  0.3686  0.0573
 1463COC    COC 1463   2.719   2.700   6.417 -0.3500 -0.1112  0.0427
 1464COC    COC 1464   2.995   2.877   6.427  0.1902  0.1847 -0.2423
 1465COC    COC 1465   3.146   3.118   6.575 -0.4098  0.1146 -0.6349
 1466COC    COC 1466   3.053   3.384   6.591  0.3641 -0.2741  0.0720
 1467COC    COC 1467   3.053   3.584   6.362  0.1499  0.3858 -0.0342
 1468COC    COC 1468   2.813   3.748   6.262  0.1940  0.2183  0.2273
 1469COC    COC 1469   2.676   3.982   6.403 -0.5519  0.0162 -0.1677
 1470COC    COC 1470   2.563   4.221   6.308  0.4099 -0.4609  0.3475
 1471COC    COC 1471   2.280   4.164   6.405 -0.2510 -0.2129  0.0855
 1472COH    COH 1472   2.126   4.085   6.622  0.4265 -0.3619 -0.1014
 1473COH    COH 1473   6.683   4.381  10.057 -0.0816  0.2358 -0.1361
 1474COC    COC 1474   6.611   4.368   9.826  0.2116 -0.0816 -0.0213
 1475COC    COC 1475   6.776   4.275   9.563  0.1321  0.1666  0.0908
 1476COC    COC 1476   6.951   4.043   9.659 -0.4730  0.5356 -0.1543
 1477COC    COC 1477   7.157   3.848   9.575 -0.2114 -0.3025 -0.6063
 1478COC    COC 1478   7.113   3.589   9.474 -0.2061  0.1282 -0.0237
 1479COC    COC 1479   7.144   3.326   9.622  0.2181  0.5242  0.0164
 1480COC    COC 1480   7.061   3.043   9.623 -0.0858  0.0534 -0.2020
 1481COC    COC 1481   7.282   2.841   9.469  0.3968 -0.1276 -0.0152
 1482COC    COC 1482   7.246   2.834   9.144 -0.3407  0.6037 -0.0718
 1483COC    COC 1483   7.192   2.653   8.927 -0.1175 -0.0882 -0.1352
 1484COC    COC 1484   7.352   2.446   8.746 -0.3756  0.1406 -0.0880
 1485COC    COC 1485   7.483   2.181   8.843 -0.5205 -0.2207  0.0692
 1486COC    COC 1486   7.505   2.070   9.124  0.1659 -0.0064 -0.0770
 1487COC    COC 1487   7.422   1.780   9.126 -0.5508 -0.0036  0.1126
 1488COC    COC 1488   7.299   1.704   8.847  0.2642 -0.1799 -0.1986
 1489COC    COC 1489   7.213   1.406   8.803 -0.0630 -0.0286 -0.0741
 1490COC    COC 1490   7.505   1.375   8.680  0.0124 -0.0058  0.1720
 1491COC    COC 1491   7.542   1.088   8.585 -0.1380 -0.6917  0.1150
 1492COC    COC 1492   7.774   0.906   8.702 -0.4194  0.0350 -0.0088
 1493COC    COC 1493   7.946   1.008   8.964  0.2978 -0.4827  0.0257
 1494COC    COC 1494   7.891   1.030   9.273  0.2625  0.1089  0.0012
 1495COC    COC 1495   7.702   0.914   9.459 -0.2267  0.4590 -0.1033
 1496COC    COC 1496   7.631   0.648   9.565  0.2300 -0.2079  0.0975
 1497COC    COC 1497   7.919   0.548   9.607 -0.3274 -0.0515  0.4543
 1498COC    COC 1498   7.893   0.284   9.771  0.0062  0.0231 -0.1233
 1499COC    COC 1499   7.682   0.088   9.715 -0.0082  0.1122  0.1808
 1500COC    COC 1500   7.459  10.256   9.844  0.0076 -0.1076 -0.0559
 1501COC    COC 1501   7.159  10.308   9.790  0.4008 -0.2394 -0.1648
 1502COC    COC 1502   7.189  10.091   9.530 -0.3551  0.0772 -0.3359
 1503COC    COC 1503   7.280  10.128   9.262  0.0861  0.1498  0.0156
 1504COC    COC 1504   7.042   9.958   9.098  0.0845  0.0130 -0.3342
 1505COC    COC 1505   6.741  10.100   9.082  0.3786 -0.0628 -0.2745
 1506COC    COC 1506   6.865   0.023   9.081  0.1685  0.1794 -0.5542
 1507COC    COC 1507   7.002   0.146   9.341 -0.3881  0.1556 -0.0419
 1508COC    COC 1508   6.828   0.077   9.555  0.0177 -0.1538  0.0381
 1509COC    COC 1509   6.729   0.284   9.773 -0.2679  0.7169 -0.3802
 1510COC    COC 1510   6.890   0.514   9.879  0.0587 -0.1579  0.0313
 1511COC    COC 1511   7.091   0.544   9.663 -0.5472  0.1236  0.2636
 1512COC    COC 1512   7.269   0.794   9.677  0.2253  0.0926 -0.0953
 1513COC    COC 1513   7.317   0.988   9.482  0.1735 -0.2818 -0.2589
 1514COC    COC 1514   7.042   1.051   9.356  0.0943  0.1359  0.1239
 1515COC    COC 1515   6.931   1.008   9.049 -0.1815  0.1881  0.2753
 1516COC    COC 1516   6.703   0.853   8.956 -0.2915 -0.2200 -0.0836
 1517COC    COC 1517   6.649   0.678   8.710 -0.0232 -0.4179 -0.1921
 1518COH    COH 1518   6.713   0.408   8.759  0.2237 -0.1815  0.1186
 1519COH    COH 1519   9.058   2.602   5.984  0.0333 -0.2891  0.1793
 1520COC    COC 1520   8.789   2.557   5.889 -0.0404  0.0290  0.0763
 1521COC    COC 1521   8.735   2.267   5.908 -0.2117 -0.2780 -0.0429
 1522COC    COC 1522   8.447   2.258   5.925  0.3223  0.1876  0.0335
 1523COC    COC 1523   8.324   2.220   6.197 -0.1155  0.2649 -0.0842
 1524COC    COC 1524   8.129   2.111   6.389 -0.0307  0.2410  0.0809
 1525COC    COC 1525   8.216   1.937   6.598 -0.0004  0.2067 -0.4801
 1526COC    COC 1526   8.419   1.712   6.630 -0.1735 -0.4307 -0.3644
 1527COC    COC 1527   8.573   1.785   6.910  0.2429  0.3516 -0.0659
 1528COC    COC 1528   8.858   1.890   6.915 -0.1101 -0.0924  0.1227
 1529COC    COC 1529   8.828   2.168   6.945 -0.0840 -0.2743  0.0425
 1530COC    COC 1530   8.617   2.319   7.101  0.5634  0.1601 -0.3546
 1531COC    COC 1531   8.341   2.311   6.967  0.2707 -0.1921  0.0515
 1532COC    COC 1532   8.310   2.490   6.708 -0.4986  0.2581 -0.0958
 1533COC    COC 1533   8.266   2.550   6.451  0.2404 -0.0971 -0.0391
 1534COC    COC 1534   8.067   2.794   6.405  0.0964  0.4012  0.0702
 1535COC    COC 1535   7.815   2.840   6.592  0.1602 -0.0580  0.2608
 1536COC    COC 1536   7.499   2.904   6.585 -0.2469  0.1951  0.1057
 1537COC    COC 1537   7.518   3.225   6.559  0.3702 -0.0832  0.2547
 1538COC    COC 1538   7.564   3.289   6.855  0.4201 -0.1923 -0.0993
 1539COC    COC 1539   7.704   3.057   7.002  0.1209 -0.5068  0.2131
 1540COC    COC 1540   7.464   2.849   7.050  0.0422 -0.1088 -0.1383
 1541COC    COC 1541   7.529   2.741   7.327  0.2805 -0.3934 -0.0478
 1542COC    COC 1542   7.567   2.432   7.242 -0.3736  0.1346 -0.2589
 1543COC    COC 1543   7.291   2.322   7.292 -0.0407  0.2437 -0.0603
 1544COC    COC 1544   7.262   2.028   7.274 -0.3634 -0.3385 -0.0142
 1545COC    COC 1545   7.220   1.824   7.525 -0.0346  0.1607 -0.2938
 1546COC    COC 1546   7.224   1.534   7.496 -0.4046 -0.0448  0.1301
 1547COC    COC 1547   7.256   1.294   7.233 -0.0194  0.1145 -0.0444
 1548COC    COC 1548   7.221   0.973   7.300  0.0776 -0.2345  0.0700
 1549COC    COC 1549   6.929   0.896   7.193  0.3483  0.1954 -0.3347
 1550COC    COC 1550   6.764   0.748   7.413 -0.4564 -0.0680  0.1272
 1551COC    COC 1551   6.514   0.871   7.502 -0.0416 -0.0092  0.0189
 1552COC    COC 1552   6.336   1.053   7.350 -0.2771 -0.1164  0.2426
 1553COC    COC 1553   6.042   1.108   7.279 -0.3503 -0.0244 -0.0410
 1554COC    COC 1554   6.012   1.380   7.497 -0.4241  0.0391 -0.2167
 1555COC    COC 1555   5.830   1.571   7.353  0.3350  0.0633 -0.1680
 1556COC    COC 1556   5.677   1.625   7.094 -0.1186 -0.0698 -0.3889
 1557COC    COC 1557   5.836   1.849   6.884  0.2771  0.2239 -0.1056
 1558COC    COC 1558   6.047   2.014   6.997 -0.0295 -0.0724  0.4718
 1559COC    COC 1559   6.060   1.935   7.279  0.2330 -0.2153 -0.4430
 1560COC    COC 1560   6.324   2.109   7.385 -0.2747  0.0810  0.2124
 1561COC    COC 1561   6.355   2.409   7.462 -0.3152 -0.1742  0.0695
 1562COC    COC 1562   6.149   2.568   7.530 -0.0565  0.0294  0.0475
 1563COC    COC 1563   5.862   2.679   7.434 -0.3642  0.1759  0.2425
 1564COH    COH 1564   5.639   2.596   7.578  0.2913  0.3311  0.3110
 1565COH    COH 1565   8.349   5.622   4.389 -0.1908  0.1224  0.0271
 1566COC    COC 1566   8.602   5.694   4.384  0.3195  0.0017  0.2943
 1567COC    COC 1567   8.720   5.728   4.116 -0.2942  0.1474 -0.0208
 1568COC    COC 1568   8.721   6.075   4.045  0.2558  0.1465 -0.2281
 1569COC    COC 1569   8.485   6.233   3.964  0.0966 -0.0119 -0.0887
 1570COC    COC 1570   8.262   6.399   3.775 -0.4481  0.2066  0.2001
 1571COC    COC 1571   8.247   6.677   3.815  0.2783  0.0754  0.0438
 1572COC    COC 1572   8.257   6.970   3.780 -0.3460 -0.0581  0.0762
 1573COC    COC 1573   8.392   6.966   3.503  0.0775  0.0513 -0.1254
 1574COC    COC 1574   8.178   7.034   3.298  0.4941  0.4423 -0.0759
 1575COC    COC 1575   7.956   6.941   3.097 -0.0502  0.4127  0.2486
 1576COC    COC 1576   7.748   7.161   3.004 -0.1217  0.0684 -0.1591
 1577COC    COC 1577   7.739   7.276   2.729 -0.0906 -0.1612  0.1473
 1578COC    COC 1578   7.563   7.193   2.519 -0.1818 -0.0536  0.2827
 1579COC    COC 1579   7.281   7.333   2.563 -0.1249  0.0799 -0.0657
 1580COC    COC 1580   7.022   7.485   2.526 -0.0253  0.0540 -0.3855
 1581COC    COC 1581   6.913   7.579   2.787  0.2685 -0.1766 -0.0188
 1582COC    COC 1582   6.966   7.274   2.907  0.3839 -0.5651  0.1154
 1583COC    COC 1583   7.190   7.089   3.018  0.3358 -0.0654 -0.3187
 1584COC    COC 1584   7.225   6.947   2.766  0.3213 -0.2259  0.2051
 1585COC    COC 1585   7.171   6.651   2.747 -0.3356 -0.3793  0.2489
 1586COC    COC 1586   7.195   6.410   2.887  0.0571  0.1451 -0.0603
 1587COC    COC 1587   7.358   6.164   2.787 -0.2460 -0.3106 -0.2170
 1588COC    COC 1588   7.409   5.942   2.967  0.3428 -0.0426 -0.2926
 1589COC    COC 1589   7.378   5.633   3.005 -0.4066  0.2654 -0.1535
 1590COC    COC 1590   7.094   5.533   2.943  0.0776 -0.2655  0.4924
 1591COC    COC 1591   7.026   5.398   3.208 -0.1097  0.2719  0.0875
 1592COC    COC 1592   6.855   5.198   3.350  0.0111  0.4692 -0.2623
 1593COC    COC 1593   6.905   4.954   3.581 -0.0754  0.0255 -0.2775
 1594COC    COC 1594   6.843   4.839   3.832  0.0310 -0.2725 -0.1580
 1595COC    COC 1595   6.665   4.643   3.804  0.0350  0.4097  0.1484
 1596COC    COC 1596   6.383   4.589   3.900 -0.0404 -0.4151  0.0290
 1597COC    COC 1597   6.190   4.432   4.034  0.1561 -0.1002 -0.0659
 1598COC    COC 1598   6.163   4.435   4.301  0.4977 -0.0838 -0.4476
 1599COC    COC 1599   6.245   4.445   4.559 -0.4416 -0.0893 -0.0389
 1600COC    COC 1600   6.504   4.373   4.722  0.0018 -0.1138  0.4534
 1601COC    COC 1601   6.373   4.339   4.967  0.0528 -0.0456  0.0499
 1602COC    COC 1602   6.269   4.069   5.051  0.4340 -0.4954 -0.0145
 1603COC    COC 1603   6.175   4.090   5.341 -0.2130  0.2587  0.2197
 1604COC    COC 1604   6.201   3.841   5.570  0.1906  0.1749  0.1720
 1605COC    COC 1605   6.444   3.631   5.478  0.5264  0.0440  0.0279
 1606COC    COC 1606   6.535   3.554   5.161 -0.1089  0.0319 -0.1650
 1607COC    COC 1607   6.660   3.270   5.023  0.2131 -0.0816 -0.0101
 1608COC    COC 1608   6.950   3.224   5.119 -0.0990  0.0876 -0.2791
 1609COC    COC 1609   7.167   3.396   5.105  0.3135 -0.1977 -0.1059
 1610COH    COH 1610   7.273   3.312   4.884 -0.1394 -0.0991 -0.2561
 1611COH    COH 1611  10.290   0.431   8.683 -0.3952  0.5386 -0.1835
 1612COC    COC 1612  10.323   0.745   8.701 -0.3580  0.2265 -0.0857
 1613COC    COC 1613  10.032   0.807   8.708 -0.0435 -0.2860 -0.2960
 1614COC    COC 1614   9.910   1.055   8.723  0.0986  0.1305 -0.1122
 1615COC    COC 1615   9.961   1.334   8.598  0.1275  0.0746  0.4776
 1616COC    COC 1616   9.709   1.402   8.396 -0.3263 -0.0149 -0.2113
 1617COC    COC 1617   9.699   1.678   8.268  0.1535 -0.1047  0.1754
 1618COC    COC 1618   9.876   1.725   8.016 -0.4008  0.0140  0.2752
 1619COC    COC 1619  10.001   1.973   7.959  0.0486 -0.0084 -0.0093
 1620COC    COC 1620   9.907   2.212   7.817  0.1902 -0.1662 -0.1594
 1621COC    COC 1621   9.679   2.422   7.840  0.0053 -0.1777 -0.6089
 1622COC    COC 1622   9.518   2.658   7.881  0.0057 -0.0832  0.1913
 1623COC    COC 1623   9.692   2.899   7.881 -0.0667  0.0183 -0.1354
 1624COC    COC 1624   9.915   2.800   8.067  0.0601 -0.0296 -0.1218
 1625COC    COC 1625   9.967   2.540   8.246 -0.0644 -0.0450 -0.0222
 1626COC    COC 1626   9.941   2.694   8.499 -0.3185 -0.4002  0.1359
 1627COC    COC 1627   9.687   2.806   8.560 -0.2505 -0.0897  0.4498
 1628COC    COC 1628   9.632   3.007   8.316 -0.2188  0.0790 -0.0461
 1629COC    COC 1629   9.476   3.283   8.354 -0.0701 -0.1638  0.1179
 1630COC    COC 1630   9.226   3.382   8.378 -0.1706 -0.1134  0.7184
 1631COC    COC 1631   9.142   3.676   8.334  0.2012 -0.2232  0.0908
 1632COC    COC 1632   9.162   3.911   8.601 -0.1542 -0.0327  0.4146
 1633COC    COC 1633   8.999   3.975   8.822 -0.5032  0.1754 -0.2172
 1634COC    COC 1634   8.752   4.179   8.856  0.4085  0.1867  0.0992
 1635COC    COC 1635   8.525   3.998   8.787 -0.2778 -0.1022  0.2192
 1636COC    COC 1636   8.319   4.145   8.581 -0.1464  0.0702  0.5126
 1637COC    COC 1637   8.356   4.110   8.259 -0.2941  0.2961 -0.1781
 1638COC    COC 1638   8.586   4.172   8.018 -0.3681  0.1941 -0.0828
 1639COC    COC 1639   8.899   4.221   7.984  0.3947 -0.3172  0.0155
 1640COC    COC 1640   9.117   4.451   7.869  0.2043  0.0563  0.0679
 1641COC    COC 1641   9.281   4.475   7.587  0.0118  0.2559 -0.1261
 1642COC    COC 1642   9.272   4.534   7.290 -0.0497 -0.1281 -0.1660
 1643COC    COC 1643   9.289   4.221   7.199 -0.0494 -0.0165 -0.1166
 1644COC    COC 1644   9.416   3.992   7.311 -0.1009  0.6339  0.3378
 1645COC    COC 1645   9.350   3.902   7.590 -0.3180 -0.1732 -0.0623
 1646COC    COC 1646   9.405   4.067   7.839  0.0942  0.2097 -0.0423
 1647COC    COC 1647   9.415   3.844   8.045  0.1498 -0.1899  0.3716
 1648COC    COC 1648   9.585   3.849   8.280 -0.0947 -0.0341 -0.0135
 1649COC    COC 1649   9.534   3.679   8.536 -0.4784  0.0465 -0.0322
 1650COC    COC 1650   9.478   3.536   8.809  0.0985 -0.1696  0.1641
 1651COC    COC 1651   9.252   3.614   9.013 -0.2022 -0.1849  0.0335
 1652COC    COC 1652   9.271   3.795   9.231  0.0529 -0.0163 -0.1418
 1653COC    COC 1653   9.358   3.925   9.499  0.0400 -0.1641 -0.0184
 1654COC    COC 1654   9.533   4.180   9.454 -0.2398  0.0953  0.1677
 1655COC    COC 1655   9.694   4.276   9.673 -0.3573 -0.3060  0.2711
 1656COH    COH 1656   9.765   4.466   9.532  0.0027  0.0382  0.1954
 1657COH    COH 1657   3.361   8.095   3.986  0.1628  0.0166  0.0561
 1658COC    COC 1658   3.514   7.891   3.907  0.1128 -0.1791  0.2458
 1659COC    COC 1659   3.787   7.755   3.984 -0.2036 -0.3286  0.2627
 1660COC    COC 1660   3.998   7.759   4.227 -0.1590 -0.0179 -0.1422
 1661COC    COC 1661   4.107   7.473   4.288 -0.2000  0.1268  0.1722
 1662COC    COC 1662   4.358   7.301   4.147 -0.0810  0.1322 -0.6279
 1663COC    COC 1663   4.684   7.150   4.225 -0.2251 -0.6166  0.7094
 1664COC    COC 1664   4.953   7.064   4.092 -0.0469  0.1183 -0.0399
 1665COC    COC 1665   5.149   7.064   3.865  0.0804 -0.2786  0.0978
 1666COC    COC 1666   5.440   6.975   3.763  0.3237  0.2250 -0.2022
 1667COC    COC 1667   5.483   6.688   3.681 -0.5265  0.0251 -0.1195
 1668COC    COC 1668   5.411   6.467   3.883  0.3921 -0.0977  0.2214
 1669COC    COC 1669   5.112   6.512   4.021 -0.0052 -0.0813  0.2449
 1670COC    COC 1670   5.076   6.679   4.240 -0.2376  0.1739  0.2491
 1671COC    COC 1671   4.754   6.713   4.280 -0.3886 -0.1651  0.0821
 1672COC    COC 1672   4.612   6.459   4.311 -0.1254  0.2012  0.0613
 1673COC    COC 1673   4.699   6.199   4.181  0.0120  0.0919 -0.1508
 1674COC    COC 1674   4.748   5.931   4.332  0.1306 -0.1107 -0.5073
 1675COC    COC 1675   4.620   5.688   4.166  0.3486 -0.0847  0.1054
 1676COC    COC 1676   4.286   5.706   4.161  0.0760 -0.0073  0.1523
 1677COC    COC 1677   4.001   5.567   4.030 -0.2974  0.3031  0.0202
 1678COC    COC 1678   4.203   5.403   3.867  0.3791  0.2716  0.1161
 1679COC    COC 1679   4.424   5.592   3.743 -0.0043 -0.2214 -0.0949
 1680COC    COC 1680   4.562   5.881   3.672 -0.0336  0.2674 -0.0397
 1681COC    COC 1681   4.490   6.063   3.859 -0.0019 -0.3563  0.1966
 1682COC    COC 1682   4.233   6.211   3.965  0.1754 -0.2179 -0.1788
 1683COC    COC 1683   4.063   6.029   4.140  0.1763  0.2250  0.1023
 1684COC    COC 1684   4.282   6.032   4.410 -0.4427  0.2416 -0.1024
 1685COC    COC 1685   4.160   6.139   4.664  0.3055 -0.1259  0.4737
 1686COC    COC 1686   4.064   6.436   4.683 -0.1045  0.1217  0.5493
 1687COC    COC 1687   4.298   6.637   4.758  0.3994  0.0420 -0.3595
 1688COC    COC 1688   4.393   6.832   4.537  0.1132  0.4759  0.2691
 1689COC    COC 1689   4.285   6.796   4.252  0.4252 -0.3185 -0.3417
 1690COC    COC 1690   4.015   6.645   4.318 -0.4216  0.3313  0.1128
 1691COC    COC 1691   3.780   6.788   4.177 -0.5896  0.1374  0.0982
 1692COC    COC 1692   3.801   7.082   4.168 -0.2899  0.3029  0.0009
 1693COC    COC 1693   3.965   7.232   3.920  0.1554  0.0095 -0.0180
 1694COC    COC 1694   3.960   7.471   3.686 -0.2197  0.0713 -0.5950
 1695COC    COC 1695   4.186   7.597   3.589 -0.1701  0.3482 -0.1582
 1696COC    COC 1696   4.294   7.656   3.356  0.4616  0.2031 -0.0641
 1697COC    COC 1697   4.510   7.825   3.457 -0.0703  0.0406 -0.2966
 1698COC    COC 1698   4.524   8.019   3.245  0.0536  0.1705  0.1164
 1699COC    COC 1699   4.477   8.294   3.341 -0.2529  0.0159 -0.1832
 1700COC    COC 1700   4.433   8.600   3.261 -0.2873 -0.0082 -0.2054
 1701COC    COC 1701   4.448   8.497   2.985 -0.0806 -0.4939  0.0012
 1702COH    COH 1702   4.630   8.287   2.948  0.0950 -0.5420 -0.2228
 1703COH    COH 1703  10.043   4.213   2.450  0.1059 -0.0907 -0.0955
 1704COC    COC 1704  10.034   4.056   2.662 -0.0442 -0.4444 -0.2317
 1705COC    COC 1705   9.769   3.936   2.535  0.2110  0.2576 -0.6700
 1706COC    COC 1706   9.660   3.632   2.595 -0.0018  0.1092 -0.1206
 1707COC    COC 1707   9.850   3.429   2.754 -0.1355  0.1954  0.3059
 1708COC    COC 1708  10.036   3.259   2.925 -0.1315 -0.1584  0.5369
 1709COC    COC 1709  10.161   3.008   2.868 -0.3386  0.0852  0.0151
 1710COC    COC 1710   0.065   2.943   3.052 -0.2400 -0.2123 -0.2973
 1711COC    COC 1711   0.342   2.845   3.096  0.5649  0.0412  0.0150
 1712COC    COC 1712   0.564   2.757   2.926  0.2762  0.1594 -0.1346
 1713COC    COC 1713   0.439   2.512   2.768 -0.0582 -0.1459 -0.0239
 1714COC    COC 1714   0.145   2.563   2.704 -0.1387  0.0712  0.5445
 1715COC    COC 1715   0.001   2.476   2.940 -0.0367 -0.0608  0.2115
 1716COC    COC 1716   0.172   2.439   3.225 -0.0784 -0.0477  0.4713
 1717COC    COC 1717   0.071   2.653   3.427 -0.2184  0.0916  0.1406
 1718COC    COC 1718   0.147   2.973   3.471 -0.3252 -0.0192  0.0408
 1719COC    COC 1719   0.310   3.026   3.693 -0.0823  0.4343 -0.0628
 1720COC    COC 1720   0.564   3.217   3.719 -0.1780 -0.1280 -0.4651
 1721COC    COC 1721   0.716   3.069   3.962  0.0689  0.0794 -0.1417
 1722COC    COC 1722   0.698   2.750   4.055 -0.0407 -0.4737 -0.0051
 1723COC    COC 1723   0.440   2.639   3.995 -0.1235 -0.1578  0.1888
 1724COC    COC 1724   0.201   2.563   4.179  0.0516  0.3498  0.2530
 1725COC    COC 1725  10.291   2.622   4.319  0.1736  0.2640 -0.1248
 1726COC    COC 1726  10.121   2.879   4.386  0.1491 -0.0579 -0.3364
 1727COC    COC 1727  10.206   3.117   4.242  0.1787 -0.1267 -0.2206
 1728COC    COC 1728  10.215   3.361   4.451  0.2721  0.5078  0.0022
 1729COC    COC 1729  10.016   3.345   4.687 -0.3629 -0.3043  0.1018
 1730COC    COC 1730  10.119   3.177   4.901  0.3589  0.0402 -0.3192
 1731COC    COC 1731  10.139   3.221   5.189 -0.1067  0.0949  0.0833
 1732COC    COC 1732   0.088   3.141   5.301  0.1173  0.1882 -0.1582
 1733COC    COC 1733   0.245   3.160   5.036 -0.1087 -0.5017  0.1538
 1734COC    COC 1734   0.135   3.301   4.782 -0.5689  0.2240 -0.1920
 1735COC    COC 1735   0.314   3.318   4.575 -0.1497 -0.2941 -0.0458
 1736COC    COC 1736   0.618   3.359   4.535  0.1882  0.2204 -0.2474
 1737COC    COC 1737   0.752   3.442   4.824  0.2644  0.4098 -0.1196
 1738COC    COC 1738   0.667   3.364   5.072  0.0608  0.0512 -0.0584
 1739COC    COC 1739   0.520   3.341   5.349 -0.0040  0.1265  0.0715
 1740COC    COC 1740   0.514   3.212   5.616  0.1913 -0.0904 -0.3451
 1741COC    COC 1741   0.675   3.272   5.888  0.0428  0.1441  0.0895
 1742COC    COC 1742   0.793   3.131   6.121  0.0388  0.1571 -0.1282
 1743COC    COC 1743   0.792   3.117   6.438 -0.1329 -0.1641 -0.2190
 1744COC    COC 1744   0.900   2.834   6.565  0.0236 -0.4117  0.1961
 1745COC    COC 1745   0.771   2.590   6.534 -0.0615 -0.0709 -0.1914
 1746COC    COC 1746   0.551   2.512   6.770  0.0250  0.0420  0.2119
 1747COC    COC 1747   0.273   2.536   6.882  0.1079 -0.0916  0.0530
 1748COH    COH 1748   0.309   2.348   7.070  0.0760 -0.1144 -0.1381
 1749COH    COH 1749   1.297   6.197   2.878  0.0570 -0.2030 -0.2919
 1750COC    COC 1750   1.518   6.318   2.970  0.2809  0.0860  0.3376
 1751COC    COC 1751   1.667   6.131   3.162 -0.4141  0.3164 -0.4951
 1752COC    COC 1752   1.421   5.937   3.164 -0.3382 -0.1078  0.0185
 1753COC    COC 1753   1.426   5.623   3.160  0.0787 -0.2317 -0.2628
 1754COC    COC 1754   1.417   5.471   3.445  0.3829  0.1565  0.3178
 1755COC    COC 1755   1.197   5.283   3.565 -0.4462  0.0926 -0.2060
 1756COC    COC 1756   1.102   5.036   3.460 -0.0618 -0.1304 -0.3878
 1757COC    COC 1757   0.959   4.868   3.674 -0.2879  0.2849  0.1147
 1758COC    COC 1758   0.687   4.942   3.681 -0.4560 -0.0397  0.3619
 1759COC    COC 1759   0.637   5.047   3.382  0.3112  0.0985  0.2449
 1760COC    COC 1760   0.490   4.805   3.247  0.2654  0.0042  0.0251
 1761COC    COC 1761   0.251   4.898   3.110  0.2768 -0.2035  0.0586
 1762COC    COC 1762   0.059   5.062   3.299 -0.4046 -0.1877 -0.3549
 1763COC    COC 1763   0.061   5.340   3.409  0.0524  0.3612 -0.0485
 1764COC    COC 1764   0.272   5.568   3.315 -0.0934  0.2903  0.0369
 1765COC    COC 1765   0.509   5.487   3.511 -0.1549 -0.0035 -0.0077
 1766COC    COC 1766   0.825   5.503   3.436 -0.2673 -0.0181 -0.1853
 1767COC    COC 1767   1.015   5.583   3.281 -0.0948 -0.1632  0.3102
 1768COC    COC 1768   1.040   5.719   2.998 -0.3353 -0.0497  0.2564
 1769COC    COC 1769   0.951   5.961   2.816 -0.2505  0.0512 -0.4077
 1770COC    COC 1770   0.714   6.110   2.815 -0.0907  0.0963 -0.0092
 1771COC    COC 1771   0.443   6.001   2.718  0.2143 -0.1172  0.1414
 1772COC    COC 1772   0.178   6.096   2.761  0.4052 -0.0028  0.1122
 1773COC    COC 1773   0.193   6.362   2.812  0.1768  0.0219  0.1125
 1774COC    COC 1774   0.160   6.654   2.940 -0.3107 -0.2849  0.4564
 1775COC    COC 1775  10.311   6.838   3.108 -0.1990 -0.1625 -0.1663
 1776COC    COC 1776   0.191   7.067   3.158 -0.0357 -0.3174  0.1557
 1777COC    COC 1777   0.103   7.212   3.427 -0.0128 -0.5122  0.4486
 1778COC    COC 1778  10.214   7.045   3.559 -0.0730 -0.2929 -0.1205
 1779COC    COC 1779   9.936   6.942   3.464 -0.2279 -0.0357  0.0643
 1780COC    COC 1780   9.723   7.028   3.680 -0.0146  0.2297  0.0522
 1781COC    COC 1781   9.625   6.869   3.914 -0.1055  0.0274  0.3010
 1782COC    COC 1782   9.604   6.540   3.838  0.0349 -0.1469  0.1983
 1783COC    COC 1783   9.774   6.548   3.595  0.2361 -0.1691  0.0154
 1784COC    COC 1784  10.087   6.462   3.536  0.0178 -0.3620  0.2179
 1785COC    COC 1785  10.214   6.399   3.235  0.2300 -0.1253 -0.1421
 1786COC    COC 1786  10.227   6.134   3.090  0.0081 -0.1121  0.3155
 1787COC    COC 1787  10.261   5.847   3.195 -0.0670 -0.1325  0.1093
 1788COC    COC 1788   0.025   5.680   2.952  0.4190 -0.0684 -0.1424
 1789COC    COC 1789  10.275   5.613   2.661 -0.0451 -0.1115  0.5285
 1790COC    COC 1790  10.183   5.833   2.433 -0.1972 -0.2696 -0.2230
 1791COC    COC 1791  10.315   6.107   2.402  0.0773 -0.1600  0.2486
 1792COC    COC 1792   0.118   6.366   2.295  0.1480  0.2709 -0.3218
 1793COC    COC 1793   0.397   6.292   2.365 -0.0148  0.1322 -0.0086
 1794COH    COH 1794   0.472   6.063   2.272 -0.0644  0.0375 -0.0563
 1795COH    COH 1795   8.974   7.375   5.611  0.3377 -0.0382 -0.1648
 1796COC    COC 1796   9.090   7.326   5.845  0.0867  0.0130  0.0275
 1797COC    COC 1797   9.040   7.079   5.991  0.0285 -0.2259  0.2514
 1798COC    COC 1798   8.997   6.922   6.254  0.2320  0.3716  0.0221
 1799COC    COC 1799   9.059   6.860   6.574 -0.0056 -0.3668  0.2606
 1800COC    COC 1800   8.958   6.622   6.699  0.1720  0.4498  0.4566
 1801COC    COC 1801   8.778   6.490   6.511  0.1759  0.0254  0.1147
 1802COC    COC 1802   8.808   6.220   6.403  0.2205 -0.3066  0.4267
 1803COC    COC 1803   8.959   6.069   6.595 -0.0369 -0.4033  0.2356
 1804COC    COC 1804   9.199   5.927   6.469 -0.1493  0.0323 -0.0438
 1805COC    COC 1805   9.361   6.144   6.377  0.1720 -0.5290  0.2276
 1806COC    COC 1806   9.265   6.136   6.086  0.1908 -0.1689  0.1068
 1807COC    COC 1807   8.994   6.134   5.983  0.1856  0.5626  0.1375
 1808COC    COC 1808   8.934   6.253   5.700  0.4068 -0.2810  0.1665
 1809COC    COC 1809   9.122   6.402   5.518  0.2829 -0.2198 -0.4254
 1810COC    COC 1810   9.084   6.669   5.689 -0.1899  0.2617 -0.4956
 1811COC    COC 1811   8.987   6.940   5.601  0.3081  0.0945  0.0400
 1812COC    COC 1812   8.970   6.987   5.325 -0.0776  0.1332 -0.1866
 1813COC    COC 1813   8.889   7.119   5.054  0.0921 -0.0484  0.2634
 1814COC    COC 1814   8.927   6.842   4.919  0.1847 -0.1715 -0.1270
 1815COC    COC 1815   8.799   6.753   4.604 -0.2781 -0.3370  0.0885
 1816COC    COC 1816   8.600   6.631   4.754  0.0884 -0.0373 -0.1177
 1817COC    COC 1817   8.492   6.372   4.777  0.3103  0.4531  0.3488
 1818COC    COC 1818   8.641   6.155   4.686  0.2284  0.0968  0.3080
 1819COC    COC 1819   8.591   5.859   4.804 -0.0599 -0.5209 -0.0239
 1820COC    COC 1820   8.342   5.715   4.768 -0.1794  0.0594 -0.1002
 1821COC    COC 1821   8.084   5.787   4.890 -0.2255  0.4956 -0.1805
 1822COC    COC 1822   7.793   5.784   4.869  0.2498 -0.0875  0.2693
 1823COC    COC 1823   7.652   5.893   5.121  0.0601  0.3089  0.0755
 1824COC    COC 1824   7.361   5.946   5.212  0.5753 -0.0513  0.0107
 1825COC    COC 1825   7.253   6.203   5.335 -0.3920 -0.0239  0.2545
 1826COC    COC 1826   7.355   6.479   5.378 -0.0747 -0.1409  0.1184
 1827COC    COC 1827   7.210   6.664   5.576  0.3198 -0.0890  0.0997
 1828COC    COC 1828   6.919   6.808   5.478 -0.2323  0.0475 -0.0305
 1829COC    COC 1829   6.812   7.086   5.405  0.2336  0.0364 -0.0749
 1830COC    COC 1830   6.923   7.121   5.158 -0.0231 -0.0465 -0.0305
 1831COC    COC 1831   7.227   7.188   5.132 -0.0990  0.4577 -0.4522
 1832COC    COC 1832   7.472   7.016   5.315  0.1000 -0.2339  0.1095
 1833COC    COC 1833   7.692   7.245   5.352 -0.0919 -0.3966 -0.0963
 1834COC    COC 1834   7.829   7.507   5.337  0.4148  0.0861  0.0554
 1835COC    COC 1835   7.793   7.807   5.289 -0.2624 -0.4169 -0.0935
 1836COC    COC 1836   7.962   8.025   5.216 -0.0312 -0.2573 -0.0803
 1837COC    COC 1837   7.960   8.141   4.924 -0.1020  0.3180 -0.0106
 1838COC    COC 1838   8.076   7.988   4.663  0.2201 -0.1329  0.1182
 1839COC    COC 1839   8.059   8.119   4.409 -0.2433 -0.1855 -0.3167
 1840COH    COH 1840   7.882   8.285   4.394  0.3215 -0.2682 -0.6891
 1841COH    COH 1841   7.960   7.816   6.294  0.0592 -0.0592 -0.4890
 1842COC    COC 1842   7.950   8.076   6.275 -0.6033  0.0490 -0.2381
 1843COC    COC 1843   7.824   8.276   6.113 -0.2494 -0.0454 -0.1974
 1844COC    COC 1844   7.986   8.307   5.879 -0.1645  0.2131  0.1398
 1845COC    COC 1845   8.098   8.545   5.902 -0.0648  0.0307  0.1882
 1846COC    COC 1846   8.290   8.645   5.702 -0.0020  0.1341 -0.0454
 1847COC    COC 1847   8.092   8.850   5.578 -0.1380 -0.0274 -0.0523
 1848COC    COC 1848   8.004   8.884   5.297  0.0313 -0.0876  0.1813
 1849COC    COC 1849   7.736   9.017   5.295  0.2763  0.2524 -0.2952
 1850COC    COC 1850   7.568   9.098   5.542  0.2645  0.0265  0.0094
 1851COC    COC 1851   7.646   9.094   5.827  0.6061  0.0730 -0.0932
 1852COC    COC 1852   7.892   9.109   5.971 -0.0016 -0.8338 -0.1073
 1853COC    COC 1853   8.160   8.982   6.055 -0.1094  0.2330  0.5145
 1854COC    COC 1854   8.358   9.179   6.154 -0.2747 -0.1677 -0.7383
 1855COC    COC 1855   8.618   9.001   6.199  0.2666  0.2587  0.2813
 1856COC    COC 1856   8.879   8.934   6.036  0.0917  0.2113 -0.4006
 1857COC    COC 1857   9.132   8.718   6.091  0.3840  0.1252 -0.0724
 1858COC    COC 1858   9.385   8.874   6.153  0.0480  0.0569 -0.2692
 1859COC    COC 1859   9.558   8.906   5.898 -0.0252 -0.1183 -0.1480
 1860COC    COC 1860   9.617   8.796   5.640 -0.0756  0.2499 -0.0670
 1861COC    COC 1861   9.883   8.741   5.559 -0.0472  0.0166 -0.0013
 1862COC    COC 1862  10.092   8.682   5.791 -0.4783 -0.1605 -0.0272
 1863COC    COC 1863  10.279   8.775   6.050  0.1049  0.0876  0.2773
 1864COC    COC 1864   0.240   8.756   6.064  0.3139 -0.0556 -0.2937
 1865COC    COC 1865   0.491   8.867   6.103 -0.4200 -0.1119 -0.0325
 1866COC    COC 1866   0.633   9.061   6.286 -0.2300 -0.1103  0.1444
 1867COC    COC 1867   0.864   9.008   6.510 -0.0359  0.1886  0.3529
 1868COC    COC 1868   0.726   8.951   6.751  0.4522 -0.1186  0.2396
 1869COC    COC 1869   0.850   9.016   7.029  0.0267  0.2167 -0.0449
 1870COC    COC 1870   0.894   8.741   7.166  0.0702 -0.1023 -0.3600
 1871COC    COC 1871   1.151   8.633   7.302  0.1904 -0.1878 -0.2666
 1872COC    COC 1872   1.435   8.681   7.329  0.1404 -0.1937  0.1225
 1873COC    COC 1873   1.557   8.890   7.551 -0.0772 -0.1533 -0.0912
 1874COC    COC 1874   1.681   8.798   7.857 -0.2843  0.0277  0.2283
 1875COC    COC 1875   1.846   8.838   8.122 -0.4008 -0.0113 -0.0979
 1876COC    COC 1876   2.005   9.023   8.268  0.0458  0.0957  0.0042
 1877COC    COC 1877   1.794   9.211   8.337  0.2803 -0.0417  0.3472
 1878COC    COC 1878   1.569   9.368   8.194  0.0442  0.3193  0.0154
 1879COC    COC 1879   1.464   9.190   7.949 -0.0272 -0.0510 -0.1272
 1880COC    COC 1880   1.284   8.980   7.979  0.2578  0.2203 -0.2458
 1881COC    COC 1881   1.164   8.862   7.720  0.0669  0.0248 -0.0977
 1882COC    COC 1882   0.905   8.746   7.723  0.2679  0.2728 -0.1480
 1883COC    COC 1883   0.886   8.452   7.668 -0.3715  0.2445  0.3737
 1884COC    COC 1884   0.984   8.213   7.800  0.1845 -0.0791  0.1054
 1885COC    COC 1885   1.215   8.277   8.006  0.0461  0.4378  0.1693
 1886COH    COH 1886   1.207   8.524   7.934 -0.0581 -0.2038  0.1289
 1887COH    COH 1887   4.692   7.377   4.973 -0.0118 -0.3784  0.0563
 1888COC    COC 1888   4.576   7.471   5.167  0.2156 -0.1975 -0.1241
 1889COC    COC 1889   4.473   7.285   5.380 -0.1296  0.2829 -0.2806
 1890COC    COC 1890   4.623   7.121   5.602  0.1313 -0.0341 -0.2960
 1891COC    COC 1891   4.659   7.309   5.861 -0.0442  0.1080  0.2205
 1892COC    COC 1892   4.546   7.198   6.135 -0.0014 -0.1334  0.0241
 1893COC    COC 1893   4.552   7.426   6.369 -0.3598 -0.1193 -0.1232
 1894COC    COC 1894   4.363   7.454   6.584  0.4076 -0.2694  0.3367
 1895COC    COC 1895   4.076   7.595   6.595  0.1104  0.1521 -0.0260
 1896COC    COC 1896   3.781   7.505   6.555 -0.3700  0.5508  0.1371
 1897COC    COC 1897   3.853   7.271   6.792 -0.2109  0.1810  0.1532
 1898COC    COC 1898   3.973   7.425   7.003 -0.2175 -0.0769 -0.0405
 1899COC    COC 1899   3.881   7.275   7.263 -0.0005 -0.5307  0.3730
 1900COC    COC 1900   4.057   7.141   7.400 -0.0032 -0.5018  0.2032
 1901COC    COC 1901   4.279   7.066   7.586  0.3412  0.1641 -0.1909
 1902COC    COC 1902   4.255   6.767   7.659 -0.0450  0.0491  0.3612
 1903COC    COC 1903   4.121   6.543   7.446  0.3033 -0.3472 -0.1365
 1904COC    COC 1904   4.164   6.260   7.484 -0.0812  0.3438 -0.1248
 1905COC    COC 1905   4.376   6.119   7.642  0.1948  0.2878 -0.2907
 1906COC    COC 1906   4.363   6.024   7.940  0.0519 -0.0785 -0.0849
 1907COC    COC 1907   4.160   5.951   8.130 -0.0788 -0.1929 -0.0689
 1908COC    COC 1908   3.961   5.699   8.212 -0.0008  0.0620  0.3211
 1909COC    COC 1909   3.768   5.452   8.072  0.0743 -0.5695 -0.1180
 1910COC    COC 1910   3.869   5.195   8.183  0.0102 -0.0642  0.0980
 1911COC    COC 1911   3.843   5.142   8.471 -0.3174  0.4021 -0.2985
 1912COC    COC 1912   4.009   4.967   8.681  0.1105 -0.4830 -0.0518
 1913COC    COC 1913   4.212   4.732   8.726 -0.0328  0.1180  0.1248
 1914COC    COC 1914   4.239   4.523   8.518  0.6021 -0.2989  0.2997
 1915COC    COC 1915   4.111   4.272   8.385  0.5370 -0.4105  0.2608
 1916COC    COC 1916   4.056   3.970   8.517 -0.3802  0.1015 -0.2070
 1917COC    COC 1917   4.207   3.899   8.794 -0.2852 -0.1722 -0.1543
 1918COC    COC 1918   4.441   3.795   8.913  0.2696 -0.0238 -0.6408
 1919COC    COC 1919   4.582   3.651   8.693 -0.0366 -0.4143 -0.2752
 1920COC    COC 1920   4.823   3.455   8.802  0.4255 -0.0917  0.2659
 1921COC    COC 1921   4.864   3.161   8.759 -0.3181  0.1549 -0.0185
 1922COC    COC 1922   4.686   2.894   8.802 -0.1368  0.2011  0.0092
 1923COC    COC 1923   4.693   2.869   9.118 -0.1749  0.0791 -0.0539
 1924COC    COC 1924   4.493   2.773   9.335 -0.4537  0.2496 -0.3172
 1925COC    COC 1925   4.539   2.694   9.627  0.2941  0.3125 -0.0387
 1926COC    COC 1926   4.569   2.383   9.668  0.5460  0.3478  0.0010
 1927COC    COC 1927   4.570   2.148   9.437  0.0435  0.2020 -0.2797
 1928COC    COC 1928   4.331   1.976   9.380 -0.0117 -0.0839 -0.0135
 1929COC    COC 1929   4.171   2.165   9.213  0.0605 -0.1778 -0.2438
 1930COC    COC 1930   4.274   2.452   9.157  0.0881 -0.0863  0.1142
 1931COC    COC 1931   4.587   2.421   9.071 -0.2070  0.1805  0.3297
 1932COH    COH 1932   4.662   2.156   9.046  0.0141  0.5178 -0.4116
 1933COH    COH 1933   1.212   3.881   8.113  0.0383  0.0273  0.4615
 1934COC    COC 1934   1.203   3.870   8.356  0.1635  0.0125 -0.0436
 1935COC    COC 1935   0.949   3.840   8.550 -0.0945 -0.4255 -0.0655
 1936COC    COC 1936   0.740   3.654   8.732 -0.1297  0.2728  0.4224
 1937COC    COC 1937   0.464   3.801   8.783  0.1292 -0.1660 -0.2029
 1938COC    COC 1938   0.274   4.031   8.703 -0.1382 -0.0154  0.3142
 1939COC    COC 1939  10.287   4.090   8.714  0.0086 -0.2886  0.0133
 1940COC    COC 1940  10.240   4.392   8.603  0.0539 -0.0397  0.2682
 1941COC    COC 1941   9.992   4.475   8.788  0.1300 -0.4095  0.5559
 1942COC    COC 1942   9.988   4.773   8.876 -0.2747 -0.3478  0.5742
 1943COC    COC 1943   9.737   4.952   8.777 -0.1171  0.0305 -0.1172
 1944COC    COC 1944   9.814   5.143   8.572 -0.0133  0.2538  0.1442
 1945COC    COC 1945  10.085   5.235   8.435  0.0393 -0.0759 -0.3490
 1946COC    COC 1946  10.333   5.201   8.566 -0.1296  0.1482  0.1066
 1947COC    COC 1947   0.179   5.447   8.692 -0.0504 -0.1467 -0.0421
 1948COC    COC 1948   0.501   5.401   8.707  0.6346 -0.1064  0.1846
 1949COC    COC 1949   0.499   5.103   8.789  0.5110  0.2594  0.3035
 1950COC    COC 1950   0.547   4.930   8.543  0.2004 -0.1355  0.1718
 1951COC    COC 1951   0.300   4.905   8.335  0.2018 -0.3544 -0.3227
 1952COC    COC 1952   0.201   4.616   8.336 -0.1875 -0.0284 -0.4224
 1953COC    COC 1953   0.364   4.427   8.520  0.1871  0.1210  0.1196
 1954COC    COC 1954   0.655   4.465   8.496  0.0001  0.1304  0.1487
 1955COC    COC 1955   0.921   4.370   8.591 -0.1356  0.0896 -0.1131
 1956COC    COC 1956   1.216   4.293   8.508  0.0115  0.2788  0.5318
 1957COC    COC 1957   1.473   4.427   8.580 -0.2653  0.2657 -0.2190
 1958COC    COC 1958   1.812   4.328   8.469 -0.0173  0.1392 -0.4262
 1959COC    COC 1959   2.064   4.488   8.567 -0.3077 -0.1681  0.1956
 1960COC    COC 1960   2.264   4.266   8.623 -0.2215  0.0383  0.1038
 1961COC    COC 1961   2.531   4.293   8.538  0.0374 -0.1281  0.2675
 1962COC    COC 1962   2.730   4.516   8.596  0.3385  0.2264 -0.1251
 1963COC    COC 1963   2.753   4.753   8.475  0.1657 -0.0792 -0.2800
 1964COC    COC 1964   2.988   4.906   8.306  0.2100  0.2809 -0.4348
 1965COC    COC 1965   3.058   4.748   8.098 -0.4857  0.1855 -0.3092
 1966COC    COC 1966   3.223   4.773   7.843 -0.4552  0.2095 -0.0594
 1967COC    COC 1967   3.335   4.512   7.695 -0.1222  0.0611  0.0390
 1968COC    COC 1968   3.207   4.252   7.792  0.0931 -0.0403  0.3706
 1969COC    COC 1969   3.385   4.005   7.698  0.0203 -0.0571 -0.1262
 1970COC    COC 1970   3.687   3.876   7.697 -0.3376  0.3043 -0.3423
 1971COC    COC 1971   3.960   3.701   7.764 -0.2631 -0.0168  0.3569
 1972COC    COC 1972   3.956   3.404   7.678  0.6456 -0.0704  0.3416
 1973COC    COC 1973   3.839   3.153   7.771  0.0382 -0.2598 -0.3237
 1974COC    COC 1974   3.825   2.894   7.625  0.0298 -0.2143 -0.4595
 1975COC    COC 1975   3.563   2.768   7.504 -0.0265 -0.0649 -0.3303
 1976COC    COC 1976   3.518   2.466   7.626 -0.1549  0.0894  0.0172
 1977COC    COC 1977   3.652   2.206   7.551 -0.0951 -0.0578  0.1758
 1978COH    COH 1978   3.733   2.155   7.799 -0.1267  0.1742  0.0957
 1979COH    COH 1979   5.825   8.272   2.368 -0.1710 -0.3149  0.2248
 1980COC    COC 1980   6.068   8.251   2.373 -0.3265  0.1676 -0.0358
 1981COC    COC 1981   6.170   8.124   2.643 -0.1048  0.3052  0.0367
 1982COC    COC 1982   5.966   7.935   2.744  0.3045  0.0962 -0.2111
 1983COC    COC 1983   5.749   8.076   2.865 -0.3141 -0.1791  0.0465
 1984COC    COC 1984   5.853   8.323   3.060 -0.1045  0.1552  0.0063
 1985COC    COC 1985   5.928   8.637   3.042  0.1844 -0.0386  0.0125
 1986COC    COC 1986   6.115   8.800   2.848  0.0165 -0.1755  0.1926
 1987COC    COC 1987   6.166   9.077   2.698 -0.2559  0.2848  0.2036
 1988COC    COC 1988   6.399   9.180   2.613 -0.3821  0.1665 -0.0721
 1989COC    COC 1989   6.690   9.066   2.705 -0.1239  0.0690  0.1609
 1990COC    COC 1990   6.926   9.303   2.657  0.1039  0.4980  0.0713
 1991COC    COC 1991   7.183   9.299   2.790  0.1438 -0.3283 -0.2132
 1992COC    COC 1992   7.360   9.082   2.703 -0.1799  0.3595 -0.1194
 1993COC    COC 1993   7.568   8.992   2.871  0.4153 -0.1163  0.4698
 1994COC    COC 1994   7.682   9.205   3.100  0.2696 -0.6541  0.4848
 1995COC    COC 1995   7.960   9.227   3.191 -0.0476 -0.5170 -0.7033
 1996COC    COC 1996   8.144   9.455   3.282 -0.1739 -0.3990  0.4999
 1997COC    COC 1997   8.362   9.394   3.051 -0.2667  0.0395  0.0232
 1998COC    COC 1998   8.626   9.563   2.967  0.0437 -0.2562  0.1395
 1999COC    COC 1999   8.650   9.642   2.668  0.1128 -0.1516 -0.1655
 2000COC    COC 2000   8.506   9.920   2.637  0.0486  0.0362  0.1539
 2001COC    COC 2001   8.318   9.947   2.856 -0.3189  0.5709 -0.1103
 2002COC    COC 2002   8.176   9.671   2.796 -0.2258 -0.2401 -0.0398
 2003COC    COC 2003   7.941   9.687   2.966  0.4188  0.1061  0.2242
 2004COC    COC 2004   7.626   9.688   2.966 -0.3525  0.2396  0.0992
 2005COC    COC 2005   7.497   9.901   2.820  0.2015  0.0534  0.1856
 2006COC    COC 2006   7.400   9.848   2.520 -0.0942  0.1796  0.1428
 2007COC    COC 2007   7.511  10.064   2.335 -0.2968 -0.1969 -0.1000
 2008COC    COC 2008   7.618   9.953   2.066  0.2592  0.0681  0.6152
 2009COC    COC 2009   7.762  10.154   1.859 -0.0645 -0.0855  0.0991
 2010COC    COC 2010   8.047  10.307   1.838 -0.0575 -0.1109  0.1144
 2011COC    COC 2011   8.226  10.216   1.613 -0.0106  0.0181 -0.1104
 2012COC    COC 2012   8.399  10.286   1.365  0.4932 -0.3891  0.0819
 2013COC    COC 2013   8.342  10.178   1.073 -0.0046  0.0970 -0.2869
 2014COC    COC 2014   8.376  10.319   0.842  0.2128 -0.1084 -0.1450
 2015COC    COC 2015   8.287  10.157   0.566 -0.0491 -0.4930 -0.3509
 2016COC    COC 2016   8.365   9.925   0.396 -0.1489 -0.2434  0.1441
 2017COC    COC 2017   8.642   9.945   0.222 -0.0552  0.1534 -0.1676
 2018COC    COC 2018   8.838  10.185   0.285 -0.2562  0.1513  0.0173
 2019COC    COC 2019   9.040   0.088   0.205 -0.1515 -0.1942 -0.3064
 2020COC    COC 2020   9.244   0.200   0.395 -0.1427 -0.3001 -0.3406
 2021COC    COC 2021   9.469   0.286   0.165 -0.1511 -0.1791 -0.0536
 2022COC    COC 2022   9.610   0.025   0.038 -0.1776 -0.0412 -0.1606
 2023COC    COC 2023   9.517  10.096   0.090 -0.2733 -0.0413 -0.1814
 2024COH    COH 2024   9.275  10.145   0.137 -0.1169 -0.0858 -0.2159
 2025COH    COH 2025   4.636   0.674   9.718 -0.3557 -0.4398 -0.3618
 2026COC    COC 2026   4.893   0.648   9.813 -0.1569  0.2400 -0.1555
 2027COC    COC 2027   4.928   0.921   9.922 -0.0375 -0.1710  0.6645
 2028COC    COC 2028   4.703   1.150   9.843  0.5287  0.1509 -0.3027
 2029COC    COC 2029   4.683   1.037   9.547 -0.1557 -0.2180  0.0896
 2030COC    COC 2030   4.912   1.053   9.389 -0.4749 -0.0758  0.0086
 2031COC    COC 2031   5.135   0.881   9.501  0.1531 -0.1198 -0.2632
 2032COC    COC 2032   5.329   0.947   9.739 -0.1409 -0.3719 -0.0804
 2033COC    COC 2033   5.521   1.175   9.795  0.0725  0.2557  0.2551
 2034COC    COC 2034   5.824   1.201   9.929  0.1196 -0.0173  0.3766
 2035COC    COC 2035   5.896   0.956  10.024 -0.1038  0.1156 -0.1964
 2036COC    COC 2036   5.696   0.733   9.921 -0.1927 -0.2268 -0.2048
 2037COC    COC 2037   5.675   0.499  10.139  0.2517 -0.3840  0.1951
 2038COC    COC 2038   5.773   0.217  10.101  0.3274 -0.0051  0.0056
 2039COC    COC 2039   5.741   0.133   0.013  0.1228 -0.0003 -0.4975
 2040COC    COC 2040   5.642  10.203   0.098 -0.0482  0.0998 -0.5422
 2041COC    COC 2041   5.312  10.147   0.138 -0.2825 -0.0884  0.1793
 2042COC    COC 2042   5.254   9.877   0.028 -0.0031 -0.2794 -0.4589
 2043COC    COC 2043   5.030   9.683  10.334 -0.2009 -0.1099  0.1889
 2044COC    COC 2044   4.968   9.429   0.092  0.0303  0.0881  0.0149
 2045COC    COC 2045   4.808   9.362   0.368 -0.1406  0.2513  0.1615
 2046COC    COC 2046   4.731   9.584   0.545  0.2203  0.1894 -0.0680
 2047COC    COC 2047   4.562   9.804   0.413  0.2568  0.0298  0.1449
 2048COC    COC 2048   4.759   9.968   0.262 -0.1193  0.2941  0.0863
 2049COC    COC 2049   5.039   9.936   0.421 -0.1350  0.3540  0.2273
 2050COC    COC 2050   5.191  10.155   0.542  0.2910  0.2401 -0.5175
 2051COC    COC 2051   5.105   0.066   0.445  0.2847 -0.4935 -0.2392
 2052COC    COC 2052   4.803   0.078   0.280  0.0283 -0.0757 -0.2050
 2053COC    COC 2053   4.709   0.262   0.052  0.0537 -0.0980  0.5290
 2054COC    COC 2054   4.915   0.301  10.113  0.3026 -0.0753 -0.0736
 2055COC    COC 2055   4.917   0.192   9.834  0.0325 -0.0830  0.2942
 2056COC    COC 2056   5.011  10.243   9.736  0.2646  0.3057 -0.4651
 2057COC    COC 2057   5.166  10.000   9.588 -0.0749 -0.3301  0.3591
 2058COC    COC 2058   5.010   9.855   9.411 -0.2512  0.1363  0.1754
 2059COC    COC 2059   4.722   9.868   9.535 -0.0627  0.4248 -0.0635
 2060COC    COC 2060   4.444   9.824   9.426  0.1076 -0.1938  0.2323
 2061COC    COC 2061   4.316   9.608   9.571  0.2072  0.3814  0.0504
 2062COC    COC 2062   4.282   9.322   9.432  0.2852 -0.1338  0.0383
 2063COC    COC 2063   4.047   9.298   9.241 -0.0683  0.0646 -0.0335
 2064COC    COC 2064   3.825   9.452   9.363  0.2443  0.2941 -0.0195
 2065COC    COC 2065   3.616   9.190   9.454 -0.5252 -0.2069 -0.0633
 2066COC    COC 2066   3.308   9.074   9.393 -0.1733 -0.0528  0.3665
 2067COC    COC 2067   3.062   9.247   9.358  0.0106 -0.1214 -0.0682
 2068COC    COC 2068   3.160   9.530   9.258 -0.2444 -0.1707 -0.2138
 2069COC    COC 2069   3.010   9.737   9.043 -0.1406 -0.1808  0.0350
 2070COH    COH 2070   2.757   9.700   9.029  0.2155 -0.3240 -0.0765
 2071COH    COH 2071   7.184   3.345   4.287 -0.0588  0.4843 -0.4447
 2072COC    COC 2072   7.337   3.292   4.497  0.3036  0.1547 -0.2306
 2073COC    COC 2073   7.462   3.037   4.532 -0.4291 -0.0523  0.4857
 2074COC    COC 2074   7.273   2.806   4.646  0.1120  0.0900 -0.1989
 2075COC    COC 2075   7.436   2.573   4.634 -0.1506  0.1096 -0.0992
 2076COC    COC 2076   7.341   2.282   4.700  0.2846 -0.3872 -0.1425
 2077COC    COC 2077   7.343   2.084   4.435  0.2412  0.1132  0.2307
 2078COC    COC 2078   7.555   2.151   4.221  0.2317  0.0710 -0.1642
 2079COC    COC 2079   7.597   2.474   4.207 -0.1041 -0.2610  0.1593
 2080COC    COC 2080   7.783   2.735   4.175  0.0135  0.0057 -0.3423
 2081COC    COC 2081   8.077   2.650   4.280 -0.1979  0.2520 -0.0354
 2082COC    COC 2082   8.109   2.338   4.287 -0.0061  0.0925 -0.3339
 2083COC    COC 2083   8.315   2.255   4.484 -0.2537  0.1169  0.3007
 2084COC    COC 2084   8.476   2.528   4.552  0.2065 -0.0915 -0.1831
 2085COC    COC 2085   8.478   2.813   4.421 -0.8458  0.2769  0.2524
 2086COC    COC 2086   8.359   3.063   4.578  0.2942  0.1351 -0.0495
 2087COC    COC 2087   8.105   3.165   4.723 -0.5430 -0.0650 -0.4669
 2088COC    COC 2088   7.852   3.274   4.594  0.0215 -0.0343  0.0071
 2089COC    COC 2089   7.716   3.527   4.694  0.1452  0.1862 -0.0321
 2090COC    COC 2090   7.416   3.631   4.727  0.1124 -0.1753 -0.1238
 2091COC    COC 2091   7.271   3.872   4.888 -0.0331  0.0907  0.1690
 2092COC    COC 2092   6.998   3.803   4.970  0.3663 -0.2232 -0.0622
 2093COC    COC 2093   6.842   4.029   5.037  0.1598  0.0939  0.3356
 2094COC    COC 2094   6.607   3.954   5.209 -0.5767 -0.1181  0.4771
 2095COC    COC 2095   6.646   4.119   5.443 -0.5775  0.1812 -0.2655
 2096COC    COC 2096   6.596   3.954   5.673 -0.3974 -0.4847  0.0069
 2097COC    COC 2097   6.844   3.891   5.783  0.2011  0.0268  0.5384
 2098COC    COC 2098   6.826   3.702   6.039 -0.1639  0.3181 -0.0617
 2099COC    COC 2099   6.950   3.438   5.979 -0.0700  0.2692  0.5572
 2100COC    COC 2100   6.751   3.342   5.783 -0.1331 -0.0802 -0.0318
 2101COC    COC 2101   6.660   3.251   5.503  0.2482  0.1768 -0.3098
 2102COC    COC 2102   6.662   2.963   5.424  0.3591  0.1113 -0.1844
 2103COC    COC 2103   6.878   2.742   5.373  0.0503  0.2854  0.1800
 2104COC    COC 2104   6.957   2.529   5.539 -0.1497  0.1216 -0.2062
 2105COC    COC 2105   6.802   2.280   5.703  0.2017  0.0078  0.1235
 2106COC    COC 2106   6.711   2.320   5.956  0.2551 -0.0796 -0.0109
 2107COC    COC 2107   6.912   2.146   6.091  0.2513  0.0854 -0.0176
 2108COC    COC 2108   6.932   1.884   5.902 -0.0407  0.0692 -0.1714
 2109COC    COC 2109   6.793   1.818   5.681 -0.1244 -0.0127  0.0085
 2110COC    COC 2110   6.576   1.593   5.679  0.3368 -0.0303 -0.1013
 2111COC    COC 2111   6.536   1.321   5.589  0.4871  0.0549  0.5278
 2112COC    COC 2112   6.598   1.042   5.537  0.0247 -0.4441 -0.1833
 2113COC    COC 2113   6.799   0.993   5.346 -0.2326  0.0871  0.1125
 2114COC    COC 2114   7.007   0.789   5.407 -0.1931 -0.3184 -0.0732
 2115COC    COC 2115   6.957   0.504   5.545 -0.3090 -0.0558 -0.1378
 2116COH    COH 2116   7.191   0.559   5.677 -0.2637  0.6177  0.1564
 2117COH    COH 2117   9.089   1.291   8.813 -0.2560  0.2677  0.1486
 2118COC    COC 2118   9.295   1.077   8.815  0.2048 -0.0234  0.1881
 2119COC    COC 2119   9.553   1.221   8.880 -0.2193 -0.2616  0.5615
 2120COC    COC 2120   9.705   1.269   9.129  0.0010 -0.0913 -0.0820
 2121COC    COC 2121  10.015   1.364   9.186  0.3291  0.2856  0.0127
 2122COC    COC 2122  10.207   1.291   9.364  0.0899 -0.4622  0.1614
 2123COC    COC 2123  10.270   1.346   9.634  0.0762  0.1720  0.1852
 2124COC    COC 2124   0.215   1.489   9.583  0.0686 -0.1702 -0.2886
 2125COC    COC 2125   0.333   1.730   9.486 -0.2113  0.0124 -0.2264
 2126COC    COC 2126   0.639   1.757   9.421 -0.4892  0.0556  0.0825
 2127COC    COC 2127   0.838   1.912   9.232  0.4118  0.0406 -0.1468
 2128COC    COC 2128   0.579   1.936   9.054 -0.1557  0.0327 -0.0331
 2129COC    COC 2129   0.276   2.061   9.122 -0.0341  0.1737  0.2542
 2130COC    COC 2130   0.235   2.346   9.247  0.1069 -0.0053  0.1296
 2131COC    COC 2131   0.167   2.521   8.968  0.1595 -0.0792  0.2797
 2132COC    COC 2132   0.136   2.846   9.026 -0.1831 -0.1524  0.4988
 2133COC    COC 2133   0.145   2.981   9.279 -0.4583  0.0870 -0.4676
 2134COC    COC 2134   0.249   3.306   9.300  0.3304  0.1447  0.0284
 2135COC    COC 2135   0.309   3.442   9.036  0.1114  0.2223 -0.1441
 2136COC    COC 2136   0.255   3.242   8.842 -0.3221  0.2448  0.2566
 2137COC    COC 2137   0.342   3.381   8.584  0.2701 -0.2886  0.1206
 2138COC    COC 2138   0.271   3.563   8.361 -0.1731  0.3170  0.6236
 2139COC    COC 2139   0.461   3.586   8.073 -0.2215 -0.0390 -0.0740
 2140COC    COC 2140   0.350   3.839   7.960  0.1179 -0.1336  0.1122
 2141COC    COC 2141   0.495   3.960   7.723  0.2601  0.1243  0.1126
 2142COC    COC 2142   0.718   4.144   7.737 -0.3820  0.0579  0.0039
 2143COC    COC 2143   0.778   4.436   7.792  0.1546  0.8132  0.0742
 2144COC    COC 2144   0.940   4.524   7.550 -0.0376 -0.0975  0.3200
 2145COC    COC 2145   0.931   4.814   7.509  0.2504  0.0215  0.1580
 2146COC    COC 2146   0.662   4.841   7.635 -0.0140  0.3980  0.1644
 2147COC    COC 2147   0.400   4.649   7.591  0.2980 -0.1540  0.1517
 2148COC    COC 2148   0.300   4.542   7.326  0.5029  0.1221 -0.4118
 2149COC    COC 2149   0.071   4.349   7.299 -0.2433  0.4219  0.1140
 2150COC    COC 2150  10.206   4.254   7.101  0.1444 -0.0125  0.0249
 2151COC    COC 2151  10.150   3.984   7.182  0.2012  0.0305 -0.2097
 2152COC    COC 2152   9.910   3.801   7.228  0.3028 -0.2217 -0.1975
 2153COC    COC 2153   9.756   3.725   6.956  0.0411  0.0837  0.0481
 2154COC    COC 2154   9.788   3.824   6.653  0.0707 -0.0581 -0.5142
 2155COC    COC 2155   9.969   4.034   6.693 -0.0240 -0.2354 -0.1861
 2156COC    COC 2156  10.073   4.306   6.728 -0.1005  0.2259 -0.5989
 2157COC    COC 2157  10.072   4.587   6.609  0.2350  0.1563 -0.0454
 2158COC    COC 2158   9.828   4.712   6.668  0.2905  0.0859  0.2345
 2159COC    COC 2159   9.634   4.612   6.865 -0.0861  0.1391  0.2403
 2160COC    COC 2160   9.680   4.803   7.075  0.2507  0.0584 -0.0222
 2161COC    COC 2161   9.791   4.667   7.348 -0.4055  0.0254 -0.3276
 2162COH    COH 2162   9.697   4.567   7.554  0.4252 -0.4315 -0.1854
 2163COH    COH 2163   4.173   1.505   6.580 -0.2720  0.1307 -0.0573
 2164COC    COC 2164   4.174   1.728   6.443 -0.0468 -0.2762  0.1749
 2165COC    COC 2165   4.010   1.989   6.378 -0.1110  0.1331  0.0238
 2166COC    COC 2166   3.949   2.225   6.574  0.1892  0.2167  0.1318
 2167COC    COC 2167   4.089   2.236   6.859  0.1403 -0.0061 -0.2653
 2168COC    COC 2168   4.279   2.302   7.113  0.2688 -0.4139  0.1316
 2169COC    COC 2169   4.572   2.249   7.033  0.2480  0.0628 -0.0870
 2170COC    COC 2170   4.698   2.490   6.916  0.3397  0.3149 -0.2068
 2171COC    COC 2171   4.776   2.656   7.134 -0.3819  0.2046 -0.2760
 2172COC    COC 2172   4.825   2.969   7.110 -0.1103 -0.2970  0.2928
 2173COC    COC 2173   4.596   3.093   7.277 -0.3662 -0.1327 -0.1523
 2174COC    COC 2174   4.635   3.346   7.494  0.2349  0.1695  0.0713
 2175COC    COC 2175   4.846   3.536   7.466  0.0639 -0.3088 -0.2896
 2176COC    COC 2176   5.136   3.566   7.523  0.1826  0.2946 -0.3658
 2177COC    COC 2177   5.277   3.302   7.569  0.0242  0.2100  0.1420
 2178COC    COC 2178   5.276   3.206   7.846 -0.1008 -0.1975 -0.4773
 2179COC    COC 2179   5.408   2.930   7.901 -0.0145  0.2972  0.0680
 2180COC    COC 2180   5.666   2.975   8.006 -0.4215 -0.2079  0.1621
 2181COC    COC 2181   5.698   3.248   8.151  0.4218 -0.1270  0.0234
 2182COC    COC 2182   5.508   3.320   8.371  0.1931 -0.4491 -0.2541
 2183COC    COC 2183   5.280   3.118   8.319 -0.0960 -0.4278  0.0641
 2184COC    COC 2184   5.021   3.214   8.363 -0.0832 -0.1724 -0.1700
 2185COC    COC 2185   5.032   3.541   8.363 -0.3785  0.0487 -0.0751
 2186COC    COC 2186   4.963   3.785   8.544  0.3328 -0.1195 -0.5065
 2187COC    COC 2187   5.072   4.056   8.434  0.0222 -0.4954  0.2289
 2188COC    COC 2188   5.094   4.365   8.456  0.2126 -0.3903  0.0405
 2189COC    COC 2189   5.128   4.512   8.189  0.0847  0.0647  0.0036
 2190COC    COC 2190   5.034   4.738   7.981 -0.0078 -0.0480  0.2280
 2191COC    COC 2191   5.195   5.038   8.001  0.1907 -0.0092 -0.0515
 2192COC    COC 2192   5.000   5.248   8.072  0.2348  0.0376  0.1675
 2193COC    COC 2193   4.742   5.258   8.207  0.1177  0.1627 -0.2168
 2194COC    COC 2194   4.597   4.992   8.121  0.4327  0.1025  0.4761
 2195COC    COC 2195   4.529   4.865   7.828  0.1141  0.5281  0.3536
 2196COC    COC 2196   4.766   4.963   7.687  0.0839  0.0150  0.6753
 2197COC    COC 2197   4.993   5.076   7.591 -0.4995  0.3340  0.1313
 2198COC    COC 2198   4.971   5.286   7.387 -0.0358  0.0903  0.3804
 2199COC    COC 2199   5.159   5.539   7.455  0.3856  0.2775  0.1614
 2200COC    COC 2200   5.388   5.587   7.655  0.1202  0.1587  0.0249
 2201COC    COC 2201   5.465   5.882   7.732  0.1918 -0.2677  0.4047
 2202COC    COC 2202   5.647   5.883   8.004  0.3572 -0.4201  0.2390
 2203COC    COC 2203   5.847   6.105   7.925  0.1638  0.3402 -0.3719
 2204COC    COC 2204   6.131   5.960   7.989  0.0551 -0.1035 -0.0039
 2205COC    COC 2205   6.217   5.677   8.161  0.2095  0.0537 -0.2276
 2206COC    COC 2206   6.263   5.357   8.209 -0.1547  0.1007 -0.4271
 2207COC    COC 2207   6.553   5.422   8.310 -0.4752 -0.1202  0.0490
 2208COH    COH 2208   6.745   5.370   8.138  0.1997 -0.4291  0.4147
 2209COH    COH 2209   8.047   3.790   5.443 -0.0570 -0.1465  0.3271
 2210COC    COC 2210   7.855   3.979   5.348  0.0089  0.0325 -0.1955
 2211COC    COC 2211   7.713   3.927   5.098  0.1712  0.1372  0.1594
 2212COC    COC 2212   7.710   3.995   4.796 -0.1339  0.1439 -0.3500
 2213COC    COC 2213   7.938   3.852   4.635  0.0484 -0.1606  0.0833
 2214COC    COC 2214   8.180   3.956   4.475  0.0424  0.1274 -0.2632
 2215COC    COC 2215   8.469   3.964   4.547 -0.4285 -0.1530  0.1877
 2216COC    COC 2216   8.599   3.803   4.799  0.0706  0.1925  0.1993
 2217COC    COC 2217   8.895   3.700   4.779  0.5486 -0.0587 -0.2823
 2218COC    COC 2218   8.997   3.408   4.778  0.1045 -0.1544  0.0702
 2219COC    COC 2219   9.213   3.406   4.583 -0.3610  0.0859  0.1718
 2220COC    COC 2220   9.475   3.540   4.653 -0.5255 -0.0601  0.1560
 2221COC    COC 2221   9.529   3.665   4.382 -0.2071 -0.3587  0.3002
 2222COC    COC 2222   9.353   3.589   4.175  0.2921  0.1940  0.2884
 2223COC    COC 2223   9.376   3.475   3.879 -0.1011 -0.1470  0.4737
 2224COC    COC 2224   9.340   3.277   3.669 -0.0762 -0.0576  0.0323
 2225COC    COC 2225   9.176   3.060   3.598  0.2211  0.2342 -0.0036
 2226COC    COC 2226   8.977   2.879   3.766  0.0666 -0.1211  0.4232
 2227COC    COC 2227   9.212   2.775   3.911  0.0908  0.1148  0.0317
 2228COC    COC 2228   9.469   2.696   3.858 -0.0162 -0.1617 -0.1647
 2229COC    COC 2229   9.443   2.422   3.725  0.0456 -0.0873 -0.1892
 2230COC    COC 2230   9.252   2.158   3.642 -0.2649  0.1740 -0.0529
 2231COC    COC 2231   9.117   2.095   3.376 -0.1801  0.2779 -0.3209
 2232COC    COC 2232   9.251   1.950   3.174  0.2938 -0.4346 -0.2764
 2233COC    COC 2233   9.351   2.149   2.966 -0.1445  0.1453 -0.1680
 2234COC    COC 2234   9.296   2.076   2.697  0.1870 -0.0279 -0.0915
 2235COC    COC 2235   9.091   2.246   2.544 -0.1793  0.4186 -0.1850
 2236COC    COC 2236   9.207   2.462   2.331 -0.3499  0.2684  0.1173
 2237COC    COC 2237   9.486   2.453   2.210  0.0372  0.2339  0.2425
 2238COC    COC 2238   9.728   2.435   2.034 -0.0168  0.2737  0.3629
 2239COC    COC 2239   9.730   2.502   1.740  0.1589 -0.0089 -0.1318
 2240COC    COC 2240   9.515   2.728   1.697  0.4631  0.1656 -0.0377
 2241COC    COC 2241   9.323   2.902   1.553  0.5461 -0.1056  0.0026
 2242COC    COC 2242   9.448   3.158   1.408 -0.7876 -0.0969  0.0517
 2243COC    COC 2243   9.574   3.186   1.129  0.2644  0.3104  0.0333
 2244COC    COC 2244   9.464   3.393   0.968  0.0482  0.1433 -0.0764
 2245COC    COC 2245   9.722   3.545   0.863 -0.0295 -0.1576  0.0181
 2246COC    COC 2246   9.910   3.598   0.631 -0.0394 -0.0361 -0.1208
 2247COC    COC 2247   9.787   3.734   0.427  0.0548 -0.0838 -0.0042
 2248COC    COC 2248   9.598   3.838   0.251  0.0554 -0.1964  0.1139
 2249COC    COC 2249   9.293   3.773   0.201 -0.3225 -0.0283  0.3377
 2250COC    COC 2250   9.255   3.789  10.222  0.0822  0.0150 -0.5389
 2251COC    COC 2251   9.550   3.789  10.159  0.0738  0.0437 -0.3176
 2252COC    COC 2252   9.864   3.822  10.217 -0.1306  0.1911  0.1555
 2253COC    COC 2253   9.915   4.103  10.201 -0.4294 -0.0894  0.1020
 2254COH    COH 2254   9.702   4.216  10.130  0.1135  0.5670 -0.2906
 2255COH    COH 2255   7.208   6.671  10.283  0.2923 -0.4908  0.1977
 2256COC    COC 2256   7.105   6.891  10.247  0.3387 -0.2682 -0.2515
 2257COC    COC 2257   6.845   6.782  10.076  0.0203  0.0059  0.0128
 2258COC    COC 2258   6.834   6.535   9.875 -0.1455  0.1816  0.1810
 2259COC    COC 2259   6.889   6.514   9.567  0.3928 -0.0042  0.1672
 2260COC    COC 2260   7.043   6.587   9.302 -0.0079 -0.0408  0.1327
 2261COC    COC 2261   7.072   6.888   9.206 -0.0618 -0.2394  0.0842
 2262COC    COC 2262   7.287   7.068   9.312  0.2629  0.4324 -0.0045
 2263COC    COC 2263   7.467   7.193   9.107 -0.4777 -0.3369 -0.0869
 2264COC    COC 2264   7.450   7.071   8.869 -0.5006 -0.0387 -0.0448
 2265COC    COC 2265   7.515   6.786   8.697  0.1556 -0.1252 -0.1784
 2266COC    COC 2266   7.782   6.624   8.736  0.4485  0.0321  0.1368
 2267COC    COC 2267   7.891   6.509   8.461  0.0312  0.0720 -0.0641
 2268COC    COC 2268   8.103   6.668   8.403  0.0680  0.2293 -0.0525
 2269COC    COC 2269   8.127   6.952   8.412  0.2420 -0.1809 -0.5110
 2270COC    COC 2270   8.192   7.119   8.173 -0.1596 -0.0853  0.2450
 2271COC    COC 2271   8.383   7.114   7.930 -0.1513 -0.0012  0.4925
 2272COC    COC 2272   8.359   7.052   7.620  0.4832 -0.0259 -0.5158
 2273COC    COC 2273   8.090   7.127   7.467 -0.0693  0.3561 -0.2306
 2274COC    COC 2274   7.955   6.871   7.385  0.1442  0.0716 -0.0884
 2275COC    COC 2275   8.114   6.630   7.511 -0.0197 -0.0872  0.0382
 2276COC    COC 2276   8.417   6.648   7.503 -0.0740  0.3664 -0.0346
 2277COC    COC 2277   8.577   6.481   7.690 -0.0188 -0.3473  0.2736
 2278COC    COC 2278   8.428   6.243   7.821 -0.1220  0.1941 -0.1778
 2279COC    COC 2279   8.350   6.165   7.518 -0.1473 -0.2666 -0.0064
 2280COC    COC 2280   8.365   6.347   7.243  0.1419  0.2666 -0.3786
 2281COC    COC 2281   8.109   6.428   7.083 -0.2529 -0.2349  0.2000
 2282COC    COC 2282   8.148   6.556   6.829 -0.3046 -0.1911  0.1039
 2283COC    COC 2283   7.929   6.640   6.595  0.2286  0.3863 -0.5303
 2284COC    COC 2284   7.652   6.729   6.496 -0.0167 -0.0928 -0.1023
 2285COC    COC 2285   7.394   6.544   6.397 -0.1847  0.0520  0.1701
 2286COC    COC 2286   7.351   6.537   6.088  0.0824 -0.0551 -0.4155
 2287COC    COC 2287   7.285   6.822   6.023 -0.2971  0.2827  0.1543
 2288COC    COC 2288   7.347   7.033   6.180 -0.3120  0.1455  0.1258
 2289COC    COC 2289   7.262   7.011   6.496 -0.1214 -0.0760  0.0390
 2290COC    COC 2290   7.017   7.030   6.625  0.1212 -0.0981  0.0620
 2291COC    COC 2291   6.850   7.133   6.407  0.1814  0.1494  0.1819
 2292COC    COC 2292   6.861   7.375   6.237 -0.3000  0.0481  0.4100
 2293COC    COC 2293   6.582   7.387   6.117 -0.4683  0.0328  0.0385
 2294COC    COC 2294   6.465   7.588   6.354  0.4756  0.0320  0.1040
 2295COC    COC 2295   6.188   7.506   6.432  0.1525 -0.1935 -0.0509
 2296COC    COC 2296   5.931   7.657   6.411 -0.3663 -0.2674  0.0361
 2297COC    COC 2297   5.838   7.923   6.314  0.1479 -0.2439 -0.1727
 2298COC    COC 2298   5.696   7.936   6.049 -0.1668 -0.2127  0.0770
 2299COC    COC 2299   5.909   7.846   5.843  0.1901  0.2089  0.3110
 2300COH    COH 2300   5.705   7.705   5.740  0.1028  0.2144 -0.1161
 2301COH    COH 2301   0.281  10.087   7.677  0.3563 -0.2657 -0.0139
 2302COC    COC 2302   0.068  10.230   7.660  0.0401  0.3604  0.1796
 2303COC    COC 2303   0.025   0.012   7.897  0.3123  0.2023  0.1941
 2304COC    COC 2304  10.125   0.226   7.957 -0.1549  0.6575  0.1301
 2305COC    COC 2305   9.785   0.216   8.031 -0.0913  0.0546  0.1588
 2306COC    COC 2306   9.533   0.391   8.017 -0.1871 -0.4675  0.2297
 2307COC    COC 2307   9.641   0.621   8.185 -0.2349 -0.0975 -0.1547
 2308COC    COC 2308   9.925   0.693   8.285  0.3914 -0.3497  0.1465
 2309COC    COC 2309  10.121   0.476   8.313 -0.2567  0.1466 -0.0155
 2310COC    COC 2310  10.185   0.181   8.393  0.4500  0.3110  0.0374
 2311COC    COC 2311   0.143   0.209   8.408  0.0624  0.2411 -0.3004
 2312COC    COC 2312   0.365   0.289   8.599 -0.1367 -0.3185  0.1948
 2313COC    COC 2313   0.653   0.205   8.581 -0.1619 -0.1105 -0.0410
 2314COC    COC 2314   0.904   0.318   8.731  0.0593 -0.0463  0.0467
 2315COC    COC 2315   1.198   0.170   8.775 -0.2099 -0.3507  0.3191
 2316COC    COC 2316   1.233  10.262   8.611 -0.1661  0.3055  0.1384
 2317COC    COC 2317   1.480  10.147   8.543  0.2600 -0.0563  0.1959
 2318COC    COC 2318   1.767  10.127   8.628 -0.1865 -0.0927 -0.1841
 2319COC    COC 2319   1.885   0.034   8.715 -0.0181  0.1633  0.1673
 2320COC    COC 2320   2.034   0.305   8.706  0.2425 -0.0676  0.2768
 2321COC    COC 2321   2.222   0.480   8.557  0.3125 -0.3297  0.1909
 2322COC    COC 2322   2.490   0.595   8.663  0.2143  0.6735 -0.0952
 2323COC    COC 2323   2.459   0.817   8.850 -0.2482 -0.4798  0.3190
 2324COC    COC 2324   2.411   0.664   9.099  0.3723  0.0253  0.1619
 2325COC    COC 2325   2.387   0.359   9.124 -0.0161  0.0845  0.2247
 2326COC    COC 2326   2.086   0.351   9.161  0.0377  0.2120 -0.1010
 2327COC    COC 2327   1.908   0.102   9.159  0.1586  0.2189  0.2022
 2328COC    COC 2328   1.848  10.188   9.253  0.1744 -0.4097  0.2834
 2329COC    COC 2329   1.950   9.912   9.337 -0.4051  0.3375 -0.1097
 2330COC    COC 2330   1.905   9.590   9.336  0.2783  0.1484 -0.0689
 2331COC    COC 2331   1.591   9.569   9.301  0.0443  0.0315  0.0887
 2332COC    COC 2332   1.405   9.806   9.392 -0.2720  0.2236 -0.0097
 2333COC    COC 2333   1.091   9.813   9.510 -0.0906  0.0449 -0.1081
 2334COC    COC 2334   0.887   9.654   9.412  0.1710  0.1428  0.3134
 2335COC    COC 2335   0.806   9.666   9.107 -0.4684  0.1258  0.2377
 2336COC    COC 2336   0.943   9.659   8.798  0.3166  0.3088  0.0735
 2337COC    COC 2337   0.866   9.338   8.694  0.2438  0.2143 -0.1421
 2338COC    COC 2338   0.666   9.159   8.558  0.1726  0.2541  0.0630
 2339COC    COC 2339   0.858   9.028   8.345 -0.1587  0.3954 -0.2406
 2340COC    COC 2340   0.831   9.114   8.074  0.0733  0.1328  0.3655
 2341COC    COC 2341   0.634   8.941   7.973  0.2465  0.1498  0.3175
 2342COC    COC 2342   0.495   8.793   8.202  0.2683  0.0997  0.2758
 2343COC    COC 2343   0.620   8.533   8.124 -0.1041 -0.2375  0.4197
 2344COC    COC 2344   0.469   8.337   7.981  0.1368  0.4075 -0.3735
 2345COC    COC 2345   0.286   8.105   8.061  0.1547 -0.0648  0.1920
 2346COH    COH 2346   0.152   7.926   7.896 -0.2911 -0.0087 -0.1844
 2347COH    COH 2347   5.308   0.658   2.524  0.0486 -0.1757  0.5300
 2348COC    COC 2348   5.240   0.823   2.295  0.4678  0.0094 -0.3122
 2349COC    COC 2349   5.005   0.958   2.437 -0.5419 -0.1308  0.0195
 2350COC    COC 2350   4.750   0.827   2.479 -0.1712 -0.0687 -0.0245
 2351COC    COC 2351   4.686   0.537   2.566  0.0400  0.0497  0.2007
 2352COC    COC 2352   4.498   0.572   2.779  0.1499  0.0946 -0.2203
 2353COC    COC 2353   4.223   0.412   2.907 -0.3457  0.1542  0.1982
 2354COC    COC 2354   4.209   0.349   3.191 -0.0669 -0.3198  0.2377
 2355COC    COC 2355   3.924   0.170   3.221  0.2745 -0.1527 -0.1405
 2356COC    COC 2356   4.065  10.281   3.314  0.5423 -0.0102 -0.1494
 2357COC    COC 2357   4.241  10.171   3.105  0.1341  0.0677  0.2626
 2358COC    COC 2358   4.462   9.970   3.006  0.2166 -0.1883  0.0275
 2359COC    COC 2359   4.610   9.698   3.095 -0.0185  0.0424  0.3581
 2360COC    COC 2360   4.650   9.409   3.160  0.2438  0.2201  0.2107
 2361COC    COC 2361   4.789   9.209   3.362 -0.0289 -0.1510 -0.0031
 2362COC    COC 2362   5.047   9.145   3.473  0.2496  0.0987 -0.1798
 2363COC    COC 2363   5.342   9.287   3.481  0.1675 -0.0527  0.2321
 2364COC    COC 2364   5.599   9.333   3.628  0.2524 -0.3714 -0.0707
 2365COC    COC 2365   5.672   9.329   3.940 -0.0008 -0.1353 -0.0639
 2366COC    COC 2366   5.532   9.249   4.184 -0.1976  0.1925 -0.2613
 2367COC    COC 2367   5.630   9.341   4.495 -0.0041 -0.0728  0.2157
 2368COC    COC 2368   5.642   9.093   4.643 -0.4218  0.2088  0.1767
 2369COC    COC 2369   5.368   8.940   4.577 -0.3367  0.3339 -0.4318
 2370COC    COC 2370   5.130   8.953   4.790 -0.4010 -0.1614  0.4709
 2371COC    COC 2371   5.254   8.759   5.041  0.4523 -0.1085  0.1856
 2372COC    COC 2372   5.443   8.987   5.073  0.0522 -0.0300  0.1630
 2373COC    COC 2373   5.711   8.985   5.052 -0.3597 -0.0649 -0.2744
 2374COC    COC 2374   5.792   8.750   4.943  0.0700  0.1108 -0.0233
 2375COC    COC 2375   5.885   8.674   4.673 -0.1266  0.1338  0.1341
 2376COC    COC 2376   5.799   8.720   4.408  0.1827  0.1278 -0.2459
 2377COC    COC 2377   5.582   8.530   4.234 -0.0272 -0.1510 -0.0918
 2378COC    COC 2378   5.332   8.670   4.082  0.1032 -0.0095 -0.3901
 2379COC    COC 2379   5.278   8.936   4.130 -0.0737  0.0096 -0.1973
 2380COC    COC 2380   5.056   9.045   4.244 -0.2396  0.1574  0.3317
 2381COC    COC 2381   4.787   9.007   4.247 -0.1104 -0.0514  0.2509
 2382COC    COC 2382   4.535   9.064   4.109  0.3495  0.0135  0.0013
 2383COC    COC 2383   4.645   9.254   3.902 -0.1039  0.2743  0.1034
 2384COC    COC 2384   4.398   9.255   3.711  0.1318 -0.1921  0.3015
 2385COC    COC 2385   4.251   9.462   3.583  0.0478  0.0742 -0.0471
 2386COC    COC 2386   3.949   9.488   3.635  0.1927 -0.0352 -0.2746
 2387COC    COC 2387   3.899   9.319   3.867 -0.2334  0.1351  0.0394
 2388COC    COC 2388   4.105   9.375   4.132  0.0011 -0.0771  0.2075
 2389COC    COC 2389   4.408   9.490   4.150 -0.1667  0.2268 -0.0001
 2390COC    COC 2390   4.539   9.608   4.402 -0.3112  0.0101 -0.1845
 2391COC    COC 2391   4.726   9.463   4.552  0.0482  0.1721  0.1947
 2392COH    COH 2392   4.661   9.337   4.771 -0.1633  0.5210  0.1300
 2393COH    COH 2393   6.732   5.746   0.787 -0.0670 -0.0885 -0.7150
 2394COC    COC 2394   6.677   5.775   1.052 -0.2755  0.1566  0.0623
 2395COC    COC 2395   6.558   5.527   1.178 -0.2696  0.1116  0.1940
 2396COC    COC 2396   6.511   5.328   0.928 -0.2412  0.0484 -0.0204
 2397COC    COC 2397   6.523   5.075   0.870 -0.0798 -0.2562  0.2340
 2398COC    COC 2398   6.760   4.913   0.814 -0.0240 -0.1408 -0.2571
 2399COC    COC 2399   6.821   4.857   0.536 -0.6363  0.3228 -0.2027
 2400COC    COC 2400   6.589   4.691   0.458  0.1865 -0.0854 -0.0641
 2401COC    COC 2401   6.439   4.494   0.654  0.2404 -0.0598  0.1834
 2402COC    COC 2402   6.237   4.684   0.751 -0.1430  0.0727  0.2371
 2403COC    COC 2403   6.104   4.555   1.043 -0.2031  0.6687 -0.0185
 2404COC    COC 2404   5.937   4.401   1.234 -0.4589 -0.0864 -0.3125
 2405COC    COC 2405   6.158   4.284   1.430 -0.5564 -0.1414 -0.1211
 2406COC    COC 2406   6.117   4.267   1.748  0.0362 -0.2194 -0.4047
 2407COC    COC 2407   6.240   4.070   1.951 -0.2195 -0.0116  0.2843
 2408COC    COC 2408   6.103   3.889   2.164  0.1073 -0.0775 -0.4649
 2409COC    COC 2409   6.078   3.860   2.472 -0.2857  0.0465  0.1179
 2410COC    COC 2410   5.808   3.940   2.612 -0.3099  0.3280  0.0994
 2411COC    COC 2411   5.645   4.095   2.430  0.0706  0.3336  0.0679
 2412COC    COC 2412   5.411   4.280   2.397 -0.1294  0.0507  0.1094
 2413COC    COC 2413   5.410   4.572   2.521  0.1603  0.4261  0.1391
 2414COC    COC 2414   5.612   4.822   2.615  0.1198  0.1666 -0.0208
 2415COC    COC 2415   5.874   4.749   2.804 -0.0334  0.0625  0.2024
 2416COC    COC 2416   5.735   4.490   2.897 -0.0660  0.0955  0.2361
 2417COC    COC 2417   5.449   4.581   3.000  0.0220  0.1830  0.3781
 2418COC    COC 2418   5.180   4.697   2.919  0.1431 -0.2162 -0.0383
 2419COC    COC 2419   5.148   4.896   2.690  0.0520 -0.0502 -0.2653
 2420COC    COC 2420   5.075   4.879   2.397 -0.0987  0.3203  0.1070
 2421COC    COC 2421   5.199   5.022   2.110  0.3200  0.2548 -0.3248
 2422COC    COC 2422   5.216   5.307   2.094 -0.0722  0.2004  0.1031
 2423COC    COC 2423   5.442   5.398   1.921 -0.0019  0.0660  0.3838
 2424COC    COC 2424   5.320   5.467   1.627 -0.0759  0.2365  0.0996
 2425COC    COC 2425   5.044   5.349   1.545  0.1755 -0.2196  0.0129
 2426COC    COC 2426   5.002   5.128   1.741 -0.1066  0.0909 -0.0640
 2427COC    COC 2427   4.716   5.058   1.780  0.3286 -0.7060  0.0283
 2428COC    COC 2428   4.543   4.827   1.727  0.2010  0.1409 -0.1645
 2429COC    COC 2429   4.461   4.667   1.444  0.0691 -0.2214 -0.3217
 2430COC    COC 2430   4.758   4.633   1.384  0.5357  0.1619 -0.0832
 2431COC    COC 2431   4.896   4.819   1.212 -0.2092 -0.2031 -0.0947
 2432COC    COC 2432   5.149   4.932   1.302  0.0122 -0.0607 -0.0644
 2433COC    COC 2433   5.178   5.167   1.084 -0.0539 -0.6155 -0.1186
 2434COC    COC 2434   4.912   5.163   0.916  0.1378  0.0982 -0.0612
 2435COC    COC 2435   4.656   5.323   0.812 -0.1416  0.0164 -0.1998
 2436COC    COC 2436   4.704   5.228   0.505  0.2463 -0.1156  0.1524
 2437COC    COC 2437   4.853   4.945   0.518  0.3066  0.0307 -0.2661
 2438COH    COH 2438   4.616   4.861   0.447  0.2144  0.4312  0.2253
 2439COH    COH 2439   1.155   5.243   1.234  0.2470 -0.1197  0.3268
 2440COC    COC 2440   1.321   5.448   1.232 -0.0304 -0.2450 -0.0632
 2441COC    COC 2441   1.356   5.539   1.517 -0.3610  0.1083 -0.2782
 2442COC    COC 2442   1.075   5.596   1.597 -0.2621 -0.4105 -0.2031
 2443COC    COC 2443   1.034   5.514   1.878 -0.2121  0.2338 -0.4245
 2444COC    COC 2444   0.867   5.300   1.991 -0.4723 -0.2004 -0.3165
 2445COC    COC 2445   0.943   4.992   2.003  0.5287 -0.3322 -0.0866
 2446COC    COC 2446   1.013   4.739   2.181 -0.0748 -0.4133 -0.2517
 2447COC    COC 2447   1.303   4.709   2.359 -0.4245  0.2219 -0.3101
 2448COC    COC 2448   1.394   4.783   2.609 -0.1501 -0.0617 -0.0874
 2449COC    COC 2449   1.497   5.056   2.704 -0.2554  0.0205 -0.0771
 2450COC    COC 2450   1.742   5.140   2.535 -0.0161  0.1769  0.1229
 2451COC    COC 2451   1.725   5.261   2.235  0.4087 -0.1094  0.1930
 2452COC    COC 2452   1.589   5.537   2.142  0.1035 -0.2938 -0.1083
 2453COC    COC 2453   1.393   5.731   1.982  0.0358  0.2029 -0.2861
 2454COC    COC 2454   1.463   6.040   1.971 -0.0533 -0.1448 -0.0387
 2455COC    COC 2455   1.310   6.013   1.690 -0.1393  0.4466  0.3315
 2456COC    COC 2456   1.436   6.229   1.472 -0.1610 -0.2695  0.3495
 2457COC    COC 2457   1.219   6.299   1.286  0.0222 -0.0260 -0.1057
 2458COC    COC 2458   0.972   6.226   1.366  0.2672 -0.1764 -0.0401
 2459COC    COC 2459   0.775   6.129   1.513 -0.0688 -0.2880 -0.0823
 2460COC    COC 2460   0.745   5.850   1.363  0.0963 -0.1809 -0.2180
 2461COC    COC 2461   0.537   5.844   1.159 -0.1807 -0.4576  0.1640
 2462COC    COC 2462   0.277   5.792   1.280 -0.1301 -0.2431 -0.0944
 2463COC    COC 2463   0.289   5.698   1.593  0.0829 -0.1029  0.3273
 2464COC    COC 2464   0.104   5.518   1.751 -0.2890 -0.3767  0.1576
 2465COC    COC 2465  10.171   5.541   1.908 -0.0018 -0.2999 -0.1780
 2466COC    COC 2466   9.929   5.581   1.757 -0.0974 -0.5379  0.2612
 2467COC    COC 2467   9.660   5.619   1.852  0.0418 -0.1158  0.1273
 2468COC    COC 2468   9.414   5.501   1.691  0.2753 -0.4647 -0.3183
 2469COC    COC 2469   9.144   5.668   1.694  0.1194  0.0753  0.1225
 2470COC    COC 2470   9.133   5.972   1.578 -0.1942  0.0698  0.0368
 2471COC    COC 2471   8.957   6.071   1.339  0.4557 -0.1050  0.1731
 2472COC    COC 2472   8.857   5.819   1.241  0.0779 -0.1276 -0.2314
 2473COC    COC 2473   8.558   5.816   1.188 -0.0811 -0.1169  0.1360
 2474COC    COC 2474   8.485   6.042   1.326  0.0982 -0.1545 -0.2468
 2475COC    COC 2475   8.234   5.945   1.522 -0.2734  0.1453 -0.1035
 2476COC    COC 2476   8.240   5.861   1.783 -0.0277  0.1596 -0.3026
 2477COC    COC 2477   8.316   5.567   1.857  0.2725  0.0135 -0.2210
 2478COC    COC 2478   8.402   5.432   2.095 -0.0352  0.1428 -0.4535
 2479COC    COC 2479   8.183   5.437   2.278 -0.2970 -0.2014  0.1440
 2480COC    COC 2480   8.020   5.252   2.472  0.3013 -0.4242 -0.1933
 2481COC    COC 2481   7.744   5.244   2.355 -0.0739 -0.1467  0.1276
 2482COC    COC 2482   7.706   4.954   2.260 -0.3076 -0.0612 -0.0238
 2483COC    COC 2483   7.850   4.819   2.018  0.3663  0.2280 -0.4598
 2484COH    COH 2484   8.122   4.906   1.994  0.2676 -0.2319  0.4126
 2485COH    COH 2485   1.057   1.551   3.071 -0.0370  0.2137  0.4475
 2486COC    COC 2486   1.097   1.465   3.322  0.0776 -0.4372  0.2453
 2487COC    COC 2487   1.380   1.446   3.486  0.0873  0.2041  0.1010
 2488COC    COC 2488   1.584   1.246   3.376  0.0209 -0.0244 -0.0869
 2489COC    COC 2489   1.865   1.175   3.293 -0.1648 -0.1454 -0.4947
 2490COC    COC 2490   1.940   1.320   3.086  0.3522 -0.6601  0.3541
 2491COC    COC 2491   2.244   1.429   3.067 -0.0066 -0.0574  0.0599
 2492COC    COC 2492   2.327   1.356   3.346  0.2596  0.0476  0.1116
 2493COC    COC 2493   2.350   1.608   3.535  0.1451  0.0903 -0.2327
 2494COC    COC 2494   2.204   1.787   3.734  0.3048 -0.2647 -0.2257
 2495COC    COC 2495   2.000   1.950   3.934 -0.1539  0.1401  0.0734
 2496COC    COC 2496   1.711   1.900   3.878 -0.1057 -0.2186  0.0615
 2497COC    COC 2497   1.638   2.169   4.013  0.0143  0.1082  0.2320
 2498COC    COC 2498   1.329   2.198   4.035 -0.1034  0.5569  0.3826
 2499COC    COC 2499   1.219   2.066   3.763 -0.0972 -0.2645 -0.1093
 2500COC    COC 2500   1.400   1.838   3.679 -0.1712 -0.2967 -0.5392
 2501COC    COC 2501   1.586   1.890   3.414  0.1839  0.3769 -0.2127
 2502COC    COC 2502   1.637   2.077   3.193  0.3011  0.1716  0.0771
 2503COC    COC 2503   1.560   2.345   3.187 -0.2371  0.4259  0.1465
 2504COC    COC 2504   1.339   2.534   3.162  0.0875  0.0947  0.5278
 2505COC    COC 2505   1.129   2.471   3.307  0.0591 -0.1752 -0.0919
 2506COC    COC 2506   1.015   2.466   3.570  0.3323 -0.1099 -0.2288
 2507COC    COC 2507   0.992   2.692   3.723 -0.0018 -0.0714 -0.3810
 2508COC    COC 2508   0.909   2.975   3.602 -0.0339 -0.0399 -0.0043
 2509COC    COC 2509   1.077   3.151   3.808  0.0704 -0.0879 -0.3602
 2510COC    COC 2510   1.208   3.183   4.113 -0.1445 -0.2298  0.6476
 2511COC    COC 2511   1.470   3.026   4.052 -0.1559  0.1026  0.2143
 2512COC    COC 2512   1.615   2.886   3.827 -0.1561  0.0397 -0.1344
 2513COC    COC 2513   1.688   2.615   3.940  0.0228  0.1039  0.1589
 2514COC    COC 2514   1.932   2.552   3.792 -0.0343  0.4185  0.1563
 2515COC    COC 2515   2.222   2.488   3.728 -0.1083  0.1107  0.0015
 2516COC    COC 2516   2.503   2.465   3.866  0.1396 -0.0660  0.1887
 2517COC    COC 2517   2.666   2.309   4.071 -0.4466  0.1793  0.4533
 2518COC    COC 2518   2.614   2.368   4.383 -0.2462 -0.1343  0.3063
 2519COC    COC 2519   2.408   2.298   4.566  0.0445  0.1573  0.0938
 2520COC    COC 2520   2.134   2.332   4.665 -0.3232  0.2662 -0.0267
 2521COC    COC 2521   2.000   2.568   4.594 -0.1125  0.5254  0.0262
 2522COC    COC 2522   2.003   2.749   4.833 -0.1272  0.2046  0.3422
 2523COC    COC 2523   1.922   2.727   5.125 -0.5026 -0.1550  0.1496
 2524COC    COC 2524   2.052   2.878   5.391  0.1421  0.0263 -0.0252
 2525COC    COC 2525   2.075   3.183   5.344 -0.2048  0.0668 -0.1113
 2526COC    COC 2526   1.887   3.396   5.477  0.2979 -0.1290  0.0436
 2527COC    COC 2527   1.977   3.609   5.278 -0.0545 -0.0879 -0.2796
 2528COC    COC 2528   2.195   3.836   5.195  0.1823 -0.0695 -0.0310
 2529COC    COC 2529   2.426   3.879   4.990 -0.1487  0.0873  0.0276
 2530COH    COH 2530   2.457   3.769   4.716 -0.3387  0.0845  0.2406
 2531COH    COH 2531   2.083   6.902   2.934 -0.2344 -0.1275 -0.4425
 2532COC    COC 2532   2.331   6.897   2.932  0.1352 -0.1389 -0.0038
 2533COC    COC 2533   2.445   7.112   3.097  0.1134  0.2053  0.1811
 2534COC    COC 2534   2.678   7.110   3.264 -0.2589  0.1513  0.1748
 2535COC    COC 2535   2.942   7.183   3.169  0.0661 -0.2472 -0.0872
 2536COC    COC 2536   3.122   7.323   3.000  0.0993  0.1709 -0.0557
 2537COC    COC 2537   3.408   7.387   3.144 -0.0073 -0.1935  0.1537
 2538COC    COC 2538   3.403   7.146   3.320 -0.3607 -0.1582 -0.6048
 2539COC    COC 2539   3.612   6.921   3.248  0.2342 -0.2512  0.1633
 2540COC    COC 2540   3.779   6.866   3.437 -0.5312 -0.1132 -0.1622
 2541COC    COC 2541   3.887   6.862   3.720  0.1082  0.0957 -0.2715
 2542COC    COC 2542   4.150   6.734   3.741  0.1948 -0.1604 -0.0471
 2543COC    COC 2543   4.331   6.955   3.832 -0.0973 -0.2837  0.0085
 2544COC    COC 2544   4.596   7.093   3.800  0.0152 -0.3520  0.4322
 2545COC    COC 2545   4.691   7.266   3.585 -0.1672  0.1543 -0.0051
 2546COC    COC 2546   4.969   7.231   3.471  0.0072 -0.0453  0.5208
 2547COC    COC 2547   5.257   7.224   3.438  0.2830 -0.0007 -0.1021
 2548COC    COC 2548   5.365   7.378   3.718  0.1582  0.2225 -0.0474
 2549COC    COC 2549   5.487   7.656   3.687 -0.0364  0.1606  0.1782
 2550COC    COC 2550   5.326   7.898   3.758 -0.2049  0.0962  0.2049
 2551COC    COC 2551   5.359   7.813   4.071 -0.1149 -0.3034  0.5721
 2552COC    COC 2552   5.379   8.056   4.250 -0.3309 -0.0462 -0.3296
 2553COC    COC 2553   5.189   8.284   4.275  0.1810  0.1482 -0.4610
 2554COC    COC 2554   5.023   8.408   4.032  0.0447  0.1013  0.5109
 2555COC    COC 2555   4.787   8.640   3.967 -0.1457  0.1704 -0.0214
 2556COC    COC 2556   4.915   8.868   3.771 -0.0133  0.0514 -0.1474
 2557COC    COC 2557   4.776   8.774   3.541  0.1658  0.0729 -0.0246
 2558COC    COC 2558   4.467   8.885   3.554  0.1430 -0.2369  0.1242
 2559COC    COC 2559   4.327   9.033   3.346 -0.1500  0.1865 -0.2671
 2560COC    COC 2560   4.080   9.126   3.497  0.1393  0.2199 -0.0885
 2561COC    COC 2561   3.824   8.960   3.468  0.0811 -0.1397 -0.0341
 2562COC    COC 2562   3.959   8.670   3.539 -0.1536  0.0223  0.2373
 2563COC    COC 2563   3.898   8.490   3.324 -0.0162  0.1645 -0.0522
 2564COC    COC 2564   3.630   8.285   3.313  0.0694 -0.0961  0.0361
 2565COC    COC 2565   3.495   8.399   3.068  0.1120 -0.0125 -0.0073
 2566COC    COC 2566   3.223   8.213   2.984 -0.1084  0.2484  0.0994
 2567COC    COC 2567   3.427   7.991   2.841  0.4702 -0.2032  0.2359
 2568COC    COC 2568   3.651   7.890   3.028 -0.1009 -0.1592 -0.4288
 2569COC    COC 2569   3.914   7.958   3.010  0.1104  0.0087 -0.0713
 2570COC    COC 2570   4.219   7.912   2.920  0.1196 -0.4349  0.2147
 2571COC    COC 2571   4.410   7.668   2.895  0.3647  0.1811 -0.2386
 2572COC    COC 2572   4.528   7.619   2.664  0.1257 -0.2896 -0.1281
 2573COC    COC 2573   4.407   7.438   2.435  0.1391  0.0672 -0.0863
 2574COC    COC 2574   4.476   7.113   2.466 -0.0425 -0.5205  0.2964
 2575COC    COC 2575   4.706   7.126   2.708 -0.0096  0.4411 -0.2002
 2576COH    COH 2576   4.856   7.328   2.667 -0.6059  0.0077 -0.0160
 2577COH    COH 2577   0.176   1.830   0.718  0.0801  0.3114  0.0461
 2578COC    COC 2578   0.311   2.060   0.822  0.2318 -0.1770  0.1148
 2579COC    COC 2579   0.587   2.109   0.911  0.3130 -0.2037 -0.1245
 2580COC    COC 2580   0.804   1.893   0.846 -0.2200  0.0136  0.2479
 2581COC    COC 2581   0.842   1.567   0.927 -0.3174 -0.1306  0.1971
 2582COC    COC 2582   0.917   1.400   0.654  0.1337 -0.2564 -0.6152
 2583COC    COC 2583   0.769   1.313   0.407 -0.3359 -0.1323  0.2254
 2584COC    COC 2584   0.920   1.191   0.164 -0.0018 -0.0658 -0.0331
 2585COC    COC 2585   1.167   1.139   0.328  0.5684  0.0984  0.1873
 2586COC    COC 2586   1.261   1.117   0.617  0.3464  0.1660  0.2961
 2587COC    COC 2587   1.565   1.194   0.608  0.1855 -0.2759  0.1127
 2588COC    COC 2588   1.601   1.190   0.304  0.0963 -0.0665  0.2895
 2589COC    COC 2589   1.829   1.012   0.163  0.1135  0.0762  0.1307
 2590COC    COC 2590   1.953   0.958  10.241 -0.1560  0.1748  0.0524
 2591COC    COC 2591   1.986   1.143   9.988  0.2365  0.0304  0.0243
 2592COC    COC 2592   2.045   1.432   9.938  0.1507  0.1064 -0.3118
 2593COC    COC 2593   1.788   1.609  10.009 -0.0070 -0.3678  0.1945
 2594COC    COC 2594   1.678   1.438  10.196  0.0739 -0.0151  0.1134
 2595COC    COC 2595   1.645   1.587   0.132 -0.3430  0.6719  0.2353
 2596COC    COC 2596   1.912   1.602   0.323  0.1073 -0.1259  0.0297
 2597COC    COC 2597   2.160   1.742   0.252  0.1602  0.3208 -0.0902
 2598COC    COC 2598   2.240   1.808  10.313 -0.0199  0.1858  0.1195
 2599COC    COC 2599   2.450   1.963  10.220 -0.5933 -0.2050 -0.1378
 2600COC    COC 2600   2.647   2.012   9.982 -0.1457 -0.3960  0.2376
 2601COC    COC 2601   2.864   2.226   9.872  0.1062 -0.0177  0.5147
 2602COC    COC 2602   2.700   2.462   9.705 -0.1451 -0.2649 -0.0828
 2603COC    COC 2603   2.823   2.699   9.578  0.1004 -0.0920  0.1133
 2604COC    COC 2604   2.587   2.892   9.470 -0.2072 -0.1004 -0.1541
 2605COC    COC 2605   2.287   2.972   9.514 -0.3102  0.1087 -0.3917
 2606COC    COC 2606   2.068   2.794   9.584  0.2319  0.1208  0.1886
 2607COC    COC 2607   2.059   2.727   9.880 -0.1150 -0.1319 -0.1040
 2608COC    COC 2608   2.062   2.873  10.116 -0.0370 -0.2408 -0.2841
 2609COC    COC 2609   1.814   2.938  10.304 -0.1717  0.0662  0.0600
 2610COC    COC 2610   1.514   2.913   0.057  0.3546 -0.1248  0.2707
 2611COC    COC 2611   1.261   2.760  10.329 -0.5477 -0.3932  0.0790
 2612COC    COC 2612   1.117   2.764  10.068 -0.1909  0.1295 -0.2428
 2613COC    COC 2613   0.926   2.996  10.009  0.3767  0.4936  0.0962
 2614COC    COC 2614   0.932   3.226   9.842  0.0926  0.0375  0.1488
 2615COC    COC 2615   0.984   3.488   9.736 -0.3708  0.2630 -0.0743
 2616COC    COC 2616   1.009   3.432   9.427  0.0174  0.3395  0.1288
 2617COC    COC 2617   1.116   3.164   9.262 -0.0774 -0.4087 -0.0621
 2618COC    COC 2618   1.316   3.199   9.042 -0.0642 -0.3651 -0.0088
 2619COC    COC 2619   1.474   3.426   8.932  0.0131 -0.2413  0.2069
 2620COC    COC 2620   1.752   3.328   8.987 -0.6409 -0.4986 -0.0636
 2621COC    COC 2621   1.913   3.105   9.133  0.6068  0.5982  0.3134
 2622COH    COH 2622   1.773   2.897   9.042  0.0032  0.1116 -0.2770
 2623COH    COH 2623   3.951   8.557   6.380 -0.0284 -0.0220  0.2897
 2624COC    COC 2624   4.130   8.407   6.561 -0.2072 -0.1473  0.1090
 2625COC    COC 2625   4.385   8.544   6.582 -0.1231 -0.1091  0.4443
 2626COC    COC 2626   4.521   8.349   6.373 -0.1972  0.0384  0.0566
 2627COC    COC 2627   4.698   8.523   6.188 -0.0575 -0.1591 -0.1461
 2628COC    COC 2628   4.687   8.797   6.393  0.1543 -0.2285  0.3006
 2629COC    COC 2629   4.875   9.006   6.416  0.0160  0.2892 -0.3027
 2630COC    COC 2630   4.974   9.260   6.277  0.1310  0.3153  0.1201
 2631COC    COC 2631   5.269   9.176   6.310 -0.5544  0.2095 -0.0317
 2632COC    COC 2632   5.486   9.153   6.525  0.2695 -0.3406  0.3720
 2633COC    COC 2633   5.360   9.041   6.770  0.1502 -0.0214  0.1022
 2634COC    COC 2634   5.046   8.924   6.823 -0.1124  0.4459  0.3590
 2635COC    COC 2635   4.789   9.096   6.855  0.1384  0.1580 -0.2971
 2636COC    COC 2636   4.712   9.370   6.983  0.1308  0.0917 -0.0820
 2637COC    COC 2637   4.936   9.605   7.069  0.0424  0.0030 -0.0675
 2638COC    COC 2638   5.081   9.832   6.934 -0.1204 -0.3217 -0.1587
 2639COC    COC 2639   5.173  10.085   7.099 -0.1114  0.2593  0.1420
 2640COC    COC 2640   5.289  10.341   7.001  0.0245 -0.0750  0.3792
 2641COC    COC 2641   5.579   0.059   6.966 -0.1297 -0.0586 -0.2560
 2642COC    COC 2642   5.539   0.323   6.838  0.3872 -0.0376  0.0956
 2643COC    COC 2643   5.652   0.374   6.580  0.0643 -0.0892 -0.0888
 2644COC    COC 2644   5.738   0.629   6.449 -0.1233 -0.3135  0.0662
 2645COC    COC 2645   5.954   0.798   6.569 -0.0741 -0.1429  0.0414
 2646COC    COC 2646   6.220   0.679   6.687 -0.1201  0.1414 -0.0573
 2647COC    COC 2647   6.499   0.771   6.491 -0.0532  0.1588  0.0586
 2648COC    COC 2648   6.556   0.576   6.267 -0.0258  0.1352 -0.0052
 2649COC    COC 2649   6.351   0.613   6.051  0.1395  0.1176 -0.2026
 2650COC    COC 2650   6.060   0.760   6.096  0.0127  0.3090 -0.1857
 2651COC    COC 2651   5.924   1.030   6.150 -0.6935  0.2865  0.1099
 2652COC    COC 2652   5.954   1.254   6.347 -0.0909  0.2392 -0.1787
 2653COC    COC 2653   5.850   1.399   6.604 -0.0705 -0.2265  0.4361
 2654COC    COC 2654   5.788   1.171   6.819 -0.0525  0.4074 -0.1768
 2655COC    COC 2655   5.601   1.141   7.088 -0.4164  0.5092  0.0764
 2656COC    COC 2656   5.593   1.000   7.353  0.1325 -0.1876 -0.0426
 2657COC    COC 2657   5.721   1.108   7.611 -0.0540 -0.0398 -0.0641
 2658COC    COC 2658   5.766   0.914   7.852 -0.0243 -0.1320 -0.0034
 2659COC    COC 2659   5.635   0.745   8.075  0.2441  0.2919  0.0664
 2660COC    COC 2660   5.486   1.009   8.200  0.1285 -0.1902  0.0234
 2661COC    COC 2661   5.496   1.214   7.973  0.1783 -0.3085 -0.2661
 2662COC    COC 2662   5.248   1.390   7.919 -0.2074 -0.0655  0.4198
 2663COC    COC 2663   5.369   1.462   7.638 -0.0343 -0.1420  0.1371
 2664COC    COC 2664   5.355   1.439   7.359  0.2454  0.2263  0.4161
 2665COC    COC 2665   5.075   1.501   7.252  0.0943  0.0394  0.0301
 2666COC    COC 2666   4.872   1.279   7.166  0.2334 -0.0907 -0.1774
 2667COC    COC 2667   4.592   1.390   7.065 -0.5093 -0.1105  0.1936
 2668COH    COH 2668   4.670   1.611   6.946  0.6183  0.3271  0.2712
 2669COH    COH 2669   5.160   0.438   4.605 -0.3061 -0.1379 -0.1763
 2670COC    COC 2670   5.408   0.553   4.592  0.2438 -0.1360 -0.1028
 2671COC    COC 2671   5.713   0.495   4.484  0.0602 -0.4710 -0.0740
 2672COC    COC 2672   5.857   0.272   4.614 -0.4308 -0.0159 -0.2002
 2673COC    COC 2673   6.021   0.354   4.861  0.1222  0.3609  0.0613
 2674COC    COC 2674   5.968   0.510   5.064  0.2607 -0.1040 -0.1294
 2675COC    COC 2675   6.195   0.714   5.052 -0.2073 -0.3777 -0.0982
 2676COC    COC 2676   6.252   0.885   5.281 -0.0847 -0.1940  0.2514
 2677COC    COC 2677   6.260   1.179   5.272  0.0107  0.0465 -0.0044
 2678COC    COC 2678   6.110   1.361   5.438 -0.2582 -0.3124 -0.0770
 2679COC    COC 2679   6.253   1.610   5.388  0.0875 -0.0706  0.1489
 2680COC    COC 2680   6.219   1.664   5.082  0.1519 -0.1136  0.3483
 2681COC    COC 2681   5.968   1.612   4.942  0.1736 -0.2047 -0.3451
 2682COC    COC 2682   5.829   1.742   4.692 -0.0998  0.5931 -0.0437
 2683COC    COC 2683   5.611   1.878   4.870  0.3241  0.0342  0.2605
 2684COC    COC 2684   5.449   2.119   5.038 -0.0343 -0.2362 -0.0635
 2685COC    COC 2685   5.213   2.178   4.847 -0.0670 -0.4459  0.1412
 2686COC    COC 2686   5.041   1.998   4.700 -0.1764 -0.2538  0.0072
 2687COC    COC 2687   5.001   2.028   4.373  0.2241  0.1742  0.1006
 2688COC    COC 2688   5.055   2.260   4.180  0.0710  0.0575  0.2693
 2689COC    COC 2689   5.190   2.379   3.911 -0.2575 -0.0926  0.2617
 2690COC    COC 2690   5.310   2.144   3.766  0.3465 -0.0133  0.0768
 2691COC    COC 2691   5.458   2.222   3.505  0.4615 -0.5299 -0.0099
 2692COC    COC 2692   5.758   2.157   3.519 -0.2439 -0.3843  0.0688
 2693COC    COC 2693   5.911   2.406   3.545 -0.3850 -0.3578  0.3158
 2694COC    COC 2694   6.140   2.357   3.396  0.3455 -0.1149  0.0559
 2695COC    COC 2695   6.393   2.356   3.490 -0.3086  0.0267  0.3916
 2696COC    COC 2696   6.645   2.506   3.381 -0.0876  0.0605 -0.0762
 2697COC    COC 2697   6.621   2.792   3.476 -0.3293 -0.1663 -0.3097
 2698COC    COC 2698   6.913   2.880   3.579 -0.1091 -0.2176  0.1485
 2699COC    COC 2699   7.177   2.798   3.649  0.1924  0.4422  0.1408
 2700COC    COC 2700   7.136   2.512   3.755 -0.1837 -0.0501 -0.1658
 2701COC    COC 2701   7.249   2.229   3.754  0.4847  0.0279 -0.0380
 2702COC    COC 2702   7.516   2.095   3.639  0.3761 -0.1149 -0.6964
 2703COC    COC 2703   7.536   1.808   3.528 -0.2760  0.0907  0.0103
 2704COC    COC 2704   7.455   1.574   3.736 -0.1515  0.4191  0.0459
 2705COC    COC 2705   7.428   1.708   3.997  0.1306  0.1895 -0.0420
 2706COC    COC 2706   7.419   1.433   4.159  0.1862  0.2883  0.2869
 2707COC    COC 2707   7.204   1.248   4.233 -0.0351  0.4904 -0.2241
 2708COC    COC 2708   7.235   1.221   4.550  0.0060 -0.3649  0.5072
 2709COC    COC 2709   7.523   1.243   4.523 -0.0471 -0.0398 -0.2232
 2710COC    COC 2710   7.826   1.171   4.570 -0.5574  0.3887  0.1409
 2711COC    COC 2711   7.917   1.320   4.804 -0.5081  0.0778 -0.3148
 2712COC    COC 2712   7.891   1.581   5.000  0.0233 -0.0172  0.0169
 2713COC    COC 2713   7.878   1.748   5.250 -0.1255  0.0356  0.0120
 2714COH    COH 2714   8.054   1.606   5.438  0.4130 -0.1078  0.2987
 2715COH    COH 2715   7.366   3.996   2.273 -0.0844  0.1895 -0.2476
 2716COC    COC 2716   7.149   3.859   2.343 -0.1238 -0.0748  0.0626
 2717COC    COC 2717   6.912   3.729   2.285 -0.0604  0.0238 -0.1624
 2718COC    COC 2718   6.752   3.424   2.334 -0.2959 -0.0394 -0.2774
 2719COC    COC 2719   6.824   3.149   2.493  0.0227  0.0827 -0.0186
 2720COC    COC 2720   6.697   3.072   2.788 -0.2372 -0.2390 -0.3046
 2721COC    COC 2721   6.944   2.945   2.933 -0.1166  0.3790 -0.1264
 2722COC    COC 2722   6.949   2.678   3.126 -0.2793  0.2426 -0.1731
 2723COC    COC 2723   6.970   2.419   2.990 -0.4301  0.1650 -0.0665
 2724COC    COC 2724   7.214   2.484   2.842  0.1333 -0.0586 -0.0106
 2725COC    COC 2725   7.085   2.546   2.573 -0.0188  0.1439 -0.1872
 2726COC    COC 2726   6.792   2.503   2.554  0.2532  0.0604 -0.1818
 2727COC    COC 2727   6.574   2.310   2.438 -0.3170 -0.0835 -0.1975
 2728COC    COC 2728   6.294   2.371   2.393  0.1363 -0.0185 -0.0055
 2729COC    COC 2729   6.049   2.559   2.534 -0.3422 -0.0302 -0.0656
 2730COC    COC 2730   5.959   2.638   2.806 -0.0125 -0.5681  0.1578
 2731COC    COC 2731   5.994   2.880   2.976  0.3450 -0.3986 -0.1743
 2732COC    COC 2732   6.181   2.826   3.209  0.1767  0.0653  0.1341
 2733COC    COC 2733   6.211   2.964   3.442  0.1577  0.0997 -0.4716
 2734COC    COC 2734   5.978   2.942   3.609  0.3301  0.0809  0.0410
 2735COC    COC 2735   5.793   2.759   3.791  0.1221  0.1543  0.0844
 2736COC    COC 2736   5.686   2.785   4.040 -0.2267 -0.1329 -0.6997
 2737COC    COC 2737   5.682   3.020   4.232  0.1916 -0.3042 -0.3624
 2738COC    COC 2738   5.752   3.241   4.045  0.0539  0.0724  0.0732
 2739COC    COC 2739   5.589   3.202   3.779  0.1559 -0.3188  0.2416
 2740COC    COC 2740   5.587   3.112   3.486 -0.2273 -0.2913 -0.1702
 2741COC    COC 2741   5.323   3.145   3.353  0.0559 -0.2024 -0.0670
 2742COC    COC 2742   5.108   2.968   3.491 -0.2900 -0.0943  0.2283
 2743COC    COC 2743   4.909   3.163   3.628 -0.0007  0.1050 -0.1866
 2744COC    COC 2744   4.636   3.068   3.711  0.1348 -0.1823 -0.3626
 2745COC    COC 2745   4.433   3.337   3.674  0.1731 -0.0732 -0.1280
 2746COC    COC 2746   4.437   3.435   3.404  0.6441 -0.1963  0.3144
 2747COC    COC 2747   4.185   3.503   3.194  0.0564 -0.0291 -0.4013
 2748COC    COC 2748   3.896   3.560   3.109 -0.0913 -0.2362 -0.0297
 2749COC    COC 2749   3.910   3.851   3.014  0.1144  0.1764  0.3941
 2750COC    COC 2750   4.065   4.108   3.113  0.1095  0.2893  0.2531
 2751COC    COC 2751   4.188   4.076   2.807  0.2890 -0.1721 -0.2100
 2752COC    COC 2752   4.418   4.244   2.773  0.2640 -0.4830  0.0921
 2753COC    COC 2753   4.597   4.355   2.573  0.1870 -0.1606  0.1254
 2754COC    COC 2754   4.469   4.564   2.375  0.1858 -0.0972 -0.1337
 2755COC    COC 2755   4.316   4.787   2.557  0.5525  0.1633 -0.1290
 2756COC    COC 2756   4.425   5.094   2.521  0.0265 -0.3524 -0.5953
 2757COC    COC 2757   4.441   5.329   2.322 -0.3720 -0.0075 -0.1321
 2758COC    COC 2758   4.536   5.592   2.417 -0.4844 -0.5031  0.0951
 2759COC    COC 2759   4.689   5.691   2.662  0.3555  0.1127  0.0490
 2760COH    COH 2760   4.639   5.761   2.880 -0.0148 -0.2864 -0.0908
 2761NCO    NCO 2761   3.684   8.396   6.356 -0.4535 -0.0929 -0.1728
 2762CC1    CC1 2762   3.492   8.349   6.544  0.0143 -0.0157 -0.2007
 2763CC1    CC1 2763   3.348   8.501   6.621 -0.0215 -0.1129  0.2426
 2764NCC    NCC 2764   3.280   8.680   6.803  0.0534 -0.3417 -0.3592
 2765CONH  CONH 2765   3.523   8.791   7.026  0.5430 -0.1395 -0.1800
 2766CC1    CC1 2766   3.549   8.677   7.239  0.0519  0.0123 -0.5635
 2767CC1    CC1 2767   3.749   8.585   7.281  0.5093  0.2958  0.2037
 2768CC1    CC1 2768   3.984   8.560   7.325 -0.1870  0.3880 -0.1501
 2769NCO    NCO 2769   4.118   8.711   7.129 -0.1218  0.0284 -0.0933
 2770CONH  CONH 2770   3.102   8.697   7.069  0.1026  0.3548 -0.3295
 2771CC1    CC1 2771   3.184   8.559   7.236  0.6462  0.3570  0.0345
 2772CC1    CC1 2772   3.364   8.394   7.268 -0.4345 -0.7012  0.5277
 2773CC1    CC1 2773   3.442   8.211   7.383 -0.4361 -0.3471 -0.0047
 2774NCO    NCO 2774   3.725   8.084   7.417  0.3289  0.2937  0.0351
 2775NCO    NCO 2775   7.269   6.523  10.052 -0.1759  0.1464  0.2240
 2776CC1    CC1 2776   7.370   6.266  10.057  0.4030  0.0759  0.3911
 2777CC1    CC1 2777   7.443   6.240  10.254  0.2761 -0.2893 -0.3437
 2778NCC    NCC 2778   7.531   6.196   0.167 -0.4401 -0.0883 -0.1732
 2779CONH  CONH 2779   7.359   6.068   0.425 -0.8890  0.3733  0.1019
 2780CC1    CC1 2780   7.503   6.014   0.666  0.2740  0.0043 -0.0723
 2781CC1    CC1 2781   7.399   5.858   0.758 -0.1282 -0.2350 -0.0709
 2782CC1    CC1 2782   7.223   5.784   0.862  0.4971  0.0604 -0.0483
 2783NCO    NCO 2783   7.025   5.754   0.721 -0.0913 -0.1798  0.1141
 2784CONH  CONH 2784   7.671   6.370   0.413 -0.3367  0.0769  0.2046
 2785CC1    CC1 2785   7.945   6.459   0.434 -0.3103 -0.1500 -0.3206
 2786CC1    CC1 2786   7.977   6.624   0.272 -0.1174  0.2098  0.0661
 2787CC1    CC1 2787   8.013   6.810   0.160  0.2137  0.6746 -0.0374
 2788NCO    NCO 2788   7.814   7.021   0.106  0.1725  0.0256 -0.1472
 2789NCO    NCO 2789   1.226   5.346   2.393 -0.2809  0.3160  0.1748
 2790CC1    CC1 2790   1.170   5.643   2.370 -0.1713 -0.0878  0.1871
 2791CC1    CC1 2791   0.991   5.694   2.223 -0.1650 -0.3965 -0.0404
 2792NCC    NCC 2792   0.731   5.726   2.149 -0.0777  0.2466 -0.2741
 2793CONH  CONH 2793   0.637   5.803   1.843  0.2908  0.1199 -0.0701
 2794CC1    CC1 2794   0.699   5.623   1.655 -0.4276 -0.4565  0.0672
 2795CC1    CC1 2795   0.717   5.442   1.651  0.0177 -0.2322  0.4702
 2796CC1    CC1 2796   0.731   5.239   1.544 -0.2032  0.0385 -0.1801
 2797NCO    NCO 2797   0.982   5.191   1.492 -0.1295 -0.0906 -0.1850
 2798CONH  CONH 2798   0.468   5.531   2.117  0.4301 -0.4443 -0.0905
 2799CC1    CC1 2799   0.423   5.354   1.941 -0.2106 -0.0060 -0.2379
 2800CC1    CC1 2800   0.280   5.165   2.006  0.1635  0.0659 -0.2851
 2801CC1    CC1 2801   0.195   4.913   2.059 -0.0913  0.2881 -0.0958
 2802NCO    NCO 2802  10.328   4.832   1.926  0.1739 -0.1900 -0.4988
 2803NCO    NCO 2803   9.229  10.095   0.438 -0.1491 -0.2289 -0.1390
 2804CC1    CC1 2804   9.143  10.226   0.672  0.2947  0.3425 -0.2119
 2805CC1    CC1 2805   9.062  10.022   0.800  0.0903  0.2094  0.1089
 2806NCC    NCC 2806   9.091   9.718   0.802 -0.1942  0.0587  0.0302
 2807CONH  CONH 2807   9.209   9.548   0.576 -0.4271 -0.1325 -0.1957
 2808CC1    CC1 2808   9.413   9.416   0.637 -0.2259  0.5087 -0.4971
 2809CC1    CC1 2809   9.616   9.252   0.574 -0.4828  0.2615  0.1828
 2810CC1    CC1 2810   9.827   9.068   0.496  0.7820 -0.1346 -0.0565
 2811NCO    NCO 2811   9.955   9.169   0.300  0.2453  0.2257 -0.1392
 2812CONH  CONH 2812   9.182   9.471   1.010  0.0037 -0.0278 -0.1830
 2813CC1    CC1 2813   9.464   9.419   1.019 -0.2493 -0.3725 -0.5795
 2814CC1    CC1 2814   9.639   9.539   0.892  0.1102  0.0812 -0.0386
 2815CC1    CC1 2815   9.721   9.680   0.733 -0.8881 -0.0628  0.1779
 2816NCO    NCO 2816   9.642   9.827   0.528 -0.1171  0.1250  0.0938
 2817NCO    NCO 2817  10.306   4.248   2.278  0.2361 -0.9459  0.1114
 2818CC1    CC1 2818   0.043   4.493   2.214 -0.0326 -0.1268 -0.4211
 2819CC1    CC1 2819  10.332   4.683   2.311  0.0779 -0.2249  0.5650
 2820NCC    NCC 2820   0.135   4.916   2.435 -0.1311  0.2930 -0.1504
 2821CONH  CONH 2821   0.440   5.025   2.402 -0.0798 -0.1563 -0.3114
 2822CC1    CC1 2822   0.558   5.094   2.180 -0.4271 -0.4331  0.0111
 2823CC1    CC1 2823   0.550   4.972   1.972 -0.2397 -0.3030  0.3361
 2824CC1    CC1 2824   0.599   4.855   1.748 -0.4649 -0.1526 -0.0023
 2825NCO    NCO 2825   0.549   4.630   1.704 -0.0914  0.4120  0.0485
 2826CONH  CONH 2826   0.143   5.008   2.731  0.0768 -0.4079  0.1350
 2827CC1    CC1 2827   0.182   5.271   2.807 -0.3185  0.0164  0.4388
 2828CC1    CC1 2828   0.291   5.398   2.644  0.2466  0.0083 -0.2168
 2829CC1    CC1 2829   0.384   5.635   2.579  0.3604 -0.3889  0.0197
 2830NCO    NCO 2830   0.333   5.803   2.387  0.3298 -0.1118 -0.0563
 2831NCO    NCO 2831   6.109   1.908   8.656  0.0420 -0.4659  0.1690
 2832CC1    CC1 2832   6.220   1.659   8.819  0.5797 -0.1675  0.2763
 2833CC1    CC1 2833   6.088   1.473   8.780 -0.3534  0.0275  0.3462
 2834NCC    NCC 2834   5.984   1.198   8.807 -0.3514  0.3656 -0.2017
 2835CONH  CONH 2835   5.718   1.120   8.926 -0.1556  0.3214  0.3134
 2836CC1    CC1 2836   5.536   0.976   8.763  0.4472  0.0238 -0.0162
 2837CC1    CC1 2837   5.608   0.786   8.614  0.0250 -0.1409 -0.2591
 2838CC1    CC1 2838   5.586   0.662   8.436  0.2165 -0.2280 -0.4163
 2839NCO    NCO 2839   5.675   0.392   8.428 -0.2705 -0.2336 -0.0338
 2840CONH  CONH 2840   6.108   0.900   8.819 -0.0499 -0.0809 -0.0194
 2841CC1    CC1 2841   6.314   0.814   9.023  0.0445 -0.0240  0.0311
 2842CC1    CC1 2842   6.366   0.572   9.101 -0.2985  0.4114 -0.2463
 2843CC1    CC1 2843   6.513   0.375   9.218 -0.1620 -0.0159  0.2620
 2844NCO    NCO 2844   6.612   0.316   9.014 -0.0177  0.1389 -0.2916
 2845NCO    NCO 2845   5.017   0.538   7.483  0.2833  0.0767  0.2850
 2846CC1    CC1 2846   4.883   0.759   7.621  0.6562  0.1643 -0.1382
 2847CC1    CC1 2847   4.819   0.932   7.469  0.3046 -0.2913 -0.2284
 2848NCC    NCC 2848   4.598   1.109   7.460  0.0001  0.1958 -0.5867
 2849CONH  CONH 2849   4.528   1.299   7.699  0.0935 -0.6016  0.4817
 2850CC1    CC1 2850   4.368   1.500   7.660 -0.1875  0.1825 -0.0912
 2851CC1    CC1 2851   4.224   1.523   7.506 -0.3955 -0.1985 -0.5041
 2852CC1    CC1 2852   4.150   1.497   7.302  0.2987  0.0854 -0.1281
 2853NCO    NCO 2853   3.926   1.523   7.134 -0.2771 -0.0577  0.2693
 2854CONH  CONH 2854   4.304   1.109   7.426 -0.0947  0.0623 -0.1606
 2855CC1    CC1 2855   4.111   1.148   7.655 -0.4038  0.5898  0.2871
 2856CC1    CC1 2856   4.017   0.943   7.736 -0.0470 -0.6580 -0.0270
 2857CC1    CC1 2857   3.885   0.749   7.851 -0.0474 -0.1563 -0.2790
 2858NCO    NCO 2858   3.998   0.484   7.811  0.4927  0.0977 -0.1664
 2859NCO    NCO 2859   5.356   2.703   7.561 -0.2966 -0.0261  0.0468
 2860CC1    CC1 2860   5.329   2.947   7.359  0.1784 -0.0663  0.4515
 2861CC1    CC1 2861   5.182   2.899   7.194 -0.6690 -0.3142  0.3824
 2862NCC    NCC 2862   5.135   2.746   6.926 -0.0903 -0.0504  0.1407
 2863CONH  CONH 2863   4.983   2.762   6.633 -0.5120  0.5052  0.1073
 2864CC1    CC1 2864   4.747   2.783   6.622  0.2523 -0.3458  0.1138
 2865CC1    CC1 2865   4.589   2.861   6.725  0.3272  0.3678  0.1002
 2866CC1    CC1 2866   4.452   2.853   6.940  0.1185 -0.4694 -0.0445
 2867NCO    NCO 2867   4.168   2.807   6.952 -0.3320  0.1242  0.6273
 2868CONH  CONH 2868   5.166   2.419   6.853 -0.2504 -0.2304 -0.0575
 2869CC1    CC1 2869   4.989   2.239   6.912  0.0504  0.0723  0.5702
 2870CC1    CC1 2870   5.033   2.031   6.778 -0.4480  0.7987  0.4845
 2871CC1    CC1 2871   5.025   1.863   6.629 -0.0351 -0.0794  0.2661
 2872NCO    NCO 2872   4.894   1.633   6.786  0.2798 -0.0594  0.0562
 2873NCO    NCO 2873   8.987  10.344   1.076  0.1546  0.0463 -0.1791
 2874CC1    CC1 2874   8.703  10.274   1.101  0.3584  0.0194  0.2606
 2875CC1    CC1 2875   8.698  10.074   1.267  0.0533 -0.0649  0.1543
 2876NCC    NCC 2876   8.799   9.858   1.454 -0.0182 -0.2758  0.2645
 2877CONH  CONH 2877   9.088   9.886   1.632  0.5465  0.3001  0.1845
 2878CC1    CC1 2878   9.163   9.709   1.799 -0.3219  0.3756 -0.0883
 2879CC1    CC1 2879   9.074   9.600   1.973 -0.0756 -0.1820  0.0489
 2880CC1    CC1 2880   9.057   9.412   2.119  0.0602 -0.5631 -0.1658
 2881NCO    NCO 2881   8.749   9.276   2.238 -0.3949 -0.3249 -0.2053
 2882CONH  CONH 2882   8.753   9.596   1.633 -0.1143  0.1242 -0.1791
 2883CC1    CC1 2883   8.968   9.412   1.683 -0.3445  0.2435 -0.3896
 2884CC1    CC1 2884   9.206   9.425   1.647  0.2410  0.0404  0.4625
 2885CC1    CC1 2885   9.425   9.431   1.671 -0.2167 -0.0888  0.0711
 2886NCO    NCO 2886   9.596   9.329   1.398 -0.0478  0.4917 -0.6187
 2887NCO    NCO 2887   2.594   7.572   8.172 -0.2073 -0.5214 -0.2601
 2888CC1    CC1 2888   2.774   7.699   7.951 -0.4109 -0.2337 -0.3608
 2889CC1    CC1 2889   3.022   7.794   7.977  0.2044  0.5108 -0.0049
 2890NCC    NCC 2890   3.281   7.890   7.864  0.1732 -0.0852 -0.4649
 2891CONH  CONH 2891   3.461   8.156   7.892 -0.1175  0.3928  0.0626
 2892CC1    CC1 2892   3.408   8.358   7.698 -0.1664  0.0177  0.1317
 2893CC1    CC1 2893   3.615   8.502   7.650  0.2931  0.3314  0.1732
 2894CC1    CC1 2894   3.756   8.682   7.666 -0.0550 -0.1060 -0.4231
 2895NCO    NCO 2895   3.683   8.941   7.756  0.0531 -0.2173 -0.3570
 2896CONH  CONH 2896   3.507   7.763   7.723  0.0971 -0.2066 -0.1658
 2897CC1    CC1 2897   3.515   7.742   7.454 -0.1482  0.1279  0.3909
 2898CC1    CC1 2898   3.388   7.703   7.278  0.2714  0.3193 -0.2694
 2899CC1    CC1 2899   3.322   7.605   7.063 -0.0425 -1.0608  0.0639
 2900NCO    NCO 2900   3.459   7.363   7.056 -0.1130  0.0361  0.4757
 2901NCO    NCO 2901   8.114   9.924   4.083 -0.0229 -0.0691  0.4216
 2902CC1    CC1 2902   8.323   9.814   4.211  0.3647  0.1065 -0.0289
 2903CC1    CC1 2903   8.402   9.629   4.276 -0.0844  0.0283  0.1510
 2904NCC    NCC 2904   8.476   9.442   4.438 -0.2493 -0.3150  0.2015
 2905CONH  CONH 2905   8.612   9.435   4.762 -0.2767 -0.0540  0.2568
 2906CC1    CC1 2906   8.516   9.268   4.964 -0.1566 -0.3743 -0.1750
 2907CC1    CC1 2907   8.640   9.249   5.219  0.2706 -0.1647  0.3063
 2908CC1    CC1 2908   8.742   9.286   5.421 -0.0801  0.0079 -0.1466
 2909NCO    NCO 2909   8.766   9.521   5.597  0.2977 -0.0703 -0.3736
 2910CONH  CONH 2910   8.238   9.251   4.565 -0.1945  0.1399 -0.5092
 2911CC1    CC1 2911   8.286   9.062   4.831  0.0240  0.1669 -0.0039
 2912CC1    CC1 2912   8.133   8.831   4.872 -0.0509 -0.0152 -0.2345
 2913CC1    CC1 2913   8.017   8.613   4.906 -0.0074 -0.3953  0.3966
 2914NCO    NCO 2914   7.839   8.478   4.631  0.2815 -0.0504  0.2342
 2915NCO    NCO 2915   4.513   1.887   8.999 -0.6084  0.2977 -0.3432
 2916CC1    CC1 2916   4.625   1.667   9.138 -0.1658  0.5960  0.5346
 2917CC1    CC1 2917   4.617   1.718   9.364 -0.0539  0.3704  0.9564
 2918NCC    NCC 2918   4.645   1.701   9.656  0.1643  0.1378  0.0413
 2919CONH  CONH 2919   4.870   1.642   9.862 -0.3413 -0.3478 -0.1518
 2920CC1    CC1 2920   4.842   1.735  10.158 -0.4043 -0.0268 -0.0518
 2921CC1    CC1 2921   4.635   1.702  10.240  0.5088 -0.0455  0.0244
 2922CC1    CC1 2922   4.400   1.661  10.224  0.2709 -0.4257  0.3069
 2923NCO    NCO 2923   4.266   1.960  10.256  0.1031  0.0027 -0.1587
 2924CONH  CONH 2924   4.448   1.526   9.857 -0.1234 -0.0476  0.5652
 2925CC1    CC1 2925   4.240   1.353   9.759  0.1874  0.5217  0.2215
 2926CC1    CC1 2926   4.223   1.177   9.889  0.1892  0.5431 -0.2199
 2927CC1    CC1 2927   4.288   0.992   9.980 -0.0455  0.2653 -0.1681
 2928NCO    NCO 2928   4.405   0.815   9.854  0.3511  0.3306 -0.0408
 2929NCO    NCO 2929   4.818   8.055   1.573 -0.2484 -0.0431  0.0651
 2930CC1    CC1 2930   4.719   8.101   1.816  0.1902  0.2578 -0.3452
 2931CC1    CC1 2931   4.707   8.201   1.993  0.3869  0.4983  0.4499
 2932NCC    NCC 2932   4.822   8.303   2.242 -0.2307 -0.4363  0.3057
 2933CONH  CONH 2933   5.045   8.204   2.459  0.7302  0.0801  0.0793
 2934CC1    CC1 2934   5.018   7.933   2.603 -0.0622  0.2800  0.3841
 2935CC1    CC1 2935   4.865   7.828   2.744 -0.0978 -0.0668 -0.4162
 2936CC1    CC1 2936   4.807   7.668   2.929  0.0189 -0.3026 -0.0258
 2937NCO    NCO 2937   4.992   7.461   3.040  0.2199 -0.2428  0.1353
 2938CONH  CONH 2938   5.004   8.566   2.325 -0.5307 -0.0173 -0.1118
 2939CC1    CC1 2939   5.039   8.630   2.601  0.2062  0.3077 -0.3210
 2940CC1    CC1 2940   4.879   8.742   2.762  0.2832 -0.1633  0.1030
 2941CC1    CC1 2941   4.657   8.832   2.866  0.0208 -0.1825  0.3503
 2942NCO    NCO 2942   4.654   8.926   3.111  0.4158  0.1766  0.2370
 2943NCO    NCO 2943   9.355   7.244  10.100  0.1851 -0.1876 -0.0426
 2944CC1    CC1 2944   9.209   7.215   0.015  0.3177 -0.2642  0.1717
 2945CC1    CC1 2945   9.129   6.972   0.061  0.1451 -0.1584 -0.2008
 2946NCC    NCC 2946   9.151   6.757   0.193 -0.1002 -0.3609  0.0776
 2947CONH  CONH 2947   9.058   6.467   0.144  0.3702 -0.0520  0.0933
 2948CC1    CC1 2948   9.190   6.310  10.343 -0.4153  0.1115  0.2873
 2949CC1    CC1 2949   9.359   6.363  10.227 -0.0837 -0.0088  0.2736
 2950CC1    CC1 2950   9.564   6.501  10.231 -0.3556 -0.0096 -0.0964
 2951NCO    NCO 2951   9.802   6.368  10.200 -0.2937 -0.2610  0.0468
 2952CONH  CONH 2952   9.392   6.636   0.348  0.2006 -0.1843  0.2011
 2953CC1    CC1 2953   9.417   6.374   0.393 -0.4712  0.1614  0.3329
 2954CC1    CC1 2954   9.592   6.282   0.525  0.2796  0.1286  0.4138
 2955CC1    CC1 2955   9.737   6.182   0.675  0.1488  0.6242 -0.2456
 2956NCO    NCO 2956   9.682   6.163   0.996  0.2351 -0.3359  0.3569
 2957NCO    NCO 2957   6.027   1.443   9.490  0.1037  0.7089  0.0810
 2958CC1    CC1 2958   6.044   1.265   9.233  0.0419  0.1226  0.4134
 2959CC1    CC1 2959   6.226   1.224   9.089 -0.2087 -0.4897  0.2384
 2960NCC    NCC 2960   6.375   1.281   8.904 -0.2636  0.4610 -0.0285
 2961CONH  CONH 2961   6.428   1.090   8.610  0.0660 -0.0960 -0.1006
 2962CC1    CC1 2962   6.670   1.020   8.508  0.2891 -0.0140  0.5157
 2963CC1    CC1 2963   6.902   0.981   8.623 -0.1315 -0.2360 -0.2740
 2964CC1    CC1 2964   7.102   0.842   8.692  0.0602 -0.1080  0.7278
 2965NCO    NCO 2965   7.341   0.757   8.553  0.0488  0.2044  0.0972
 2966CONH  CONH 2966   6.663   1.449   8.832  0.1875  0.0043 -0.3837
 2967CC1    CC1 2967   6.894   1.425   8.976  0.2101  0.1262 -0.5594
 2968CC1    CC1 2968   6.831   1.509   9.180  0.2941 -0.1413  0.0792
 2969CC1    CC1 2969   6.672   1.559   9.314  0.0885 -0.1162 -0.4041
 2970NCO    NCO 2970   6.372   1.611   9.187  0.1333  0.3947  0.0655
 2971NCO    NCO 2971   5.216   1.820   9.318  0.0015  0.3093 -0.0083
 2972CC1    CC1 2972   5.221   1.556   9.123 -0.1439  0.1393 -0.2104
 2973CC1    CC1 2973   5.009   1.446   9.107 -0.2362 -0.0953  0.1756
 2974NCC    NCC 2974   4.790   1.317   9.033 -0.1160  0.2143 -0.1300
 2975CONH  CONH 2975   4.532   1.424   8.854 -0.6233  0.2701  0.1643
 2976CC1    CC1 2976   4.339   1.306   8.831  0.1794  0.0814 -0.0992
 2977CC1    CC1 2977   4.221   1.343   8.597  0.1603 -0.3603 -0.2673
 2978CC1    CC1 2978   4.033   1.403   8.457  0.3453  0.5734 -0.2004
 2979NCO    NCO 2979   4.049   1.521   8.186  0.0671 -0.0736  0.0207
 2980CONH  CONH 2980   4.650   1.031   9.068 -0.1583 -0.0300  0.3992
 2981CC1    CC1 2981   4.395   0.982   9.167  0.1502 -0.1052 -0.2912
 2982CC1    CC1 2982   4.383   0.767   9.246 -0.2824  0.2968 -0.4677
 2983CC1    CC1 2983   4.318   0.546   9.301 -0.0187 -0.3598 -0.2098
 2984NCO    NCO 2984   4.363   0.405   9.615 -0.2456 -0.3227 -0.4466
 2985NCO    NCO 2985   3.346   8.449   9.011 -0.2368  0.4079  0.1534
 2986CC1    CC1 2986   3.288   8.167   9.100 -0.4187  0.2032 -0.1504
 2987CC1    CC1 2987   3.223   8.108   9.310  0.1922  0.0010 -0.1558
 2988NCC    NCC 2988   3.009   8.095   9.473  0.3485 -0.1998 -0.1037
 2989CONH  CONH 2989   2.849   8.352   9.580 -0.0598 -0.1017 -0.2565
 2990CC1    CC1 2990   2.591   8.387   9.530 -0.1195  0.1128  0.3728
 2991CC1    CC1 2991   2.416   8.410   9.673  0.1119 -0.4847  0.0228
 2992CC1    CC1 2992   2.242   8.556   9.806 -0.3366 -0.5057 -0.2977
 2993NCO    NCO 2993   2.158   8.346   9.988  0.1282  0.0694 -0.0787
 2994CONH  CONH 2994   2.991   8.020   9.776 -0.2835  0.2444 -0.0120
 2995CC1    CC1 2995   2.892   7.776   9.849 -0.2598  0.1073 -0.0118
 2996CC1    CC1 2996   2.933   7.543   9.825 -0.0723 -0.2459  0.3359
 2997CC1    CC1 2997   2.950   7.334   9.742 -0.0292 -0.2637  0.4780
 2998NCO    NCO 2998   3.232   7.240   9.650 -0.4861 -0.0094  0.1107
 2999NCO    NCO 2999  10.040   2.173   3.944 -0.2424  0.0626 -0.2816
 3000CC1    CC1 3000  10.158   2.453   3.783  0.0892  0.2885 -0.0927
 3001CC1    CC1 3001  10.093   2.592   3.591  0.3241 -0.2986 -0.3566
 3002NCC    NCC 3002   9.990   2.834   3.550  0.1728  0.1498  0.4442
 3003CONH  CONH 3003  10.075   3.050   3.318  0.0097  0.0177 -0.0284
 3004CC1    CC1 3004   9.937   3.354   3.304 -0.3144 -0.5221 -0.1045
 3005CC1    CC1 3005   9.764   3.429   3.145 -0.2676  0.1426  0.1102
 3006CC1    CC1 3006   9.582   3.598   3.082 -0.0182 -0.6534  0.3057
 3007NCO    NCO 3007   9.557   3.827   3.251 -0.2847 -0.5263 -0.1919
 3008CONH  CONH 3008   9.678   2.907   3.466 -0.0978 -0.0346  0.0760
 3009CC1    CC1 3009   9.633   3.165   3.430  0.1239 -0.0188 -0.2368
 3010CC1    CC1 3010   9.465   3.299   3.331  0.0045  0.2337  0.1445
 3011CC1    CC1 3011   9.197   3.338   3.277 -0.4897 -0.2937  0.3747
 3012NCO    NCO 3012   9.163   3.675   3.229  0.3837  0.0766 -0.1129
 3013NCO    NCO 3013   9.098   9.989   2.181  0.1630  0.0158  0.0246
 3014CC1    CC1 3014   9.338   9.801   2.148  0.1333 -0.0834 -0.2214
 3015CC1    CC1 3015   9.503   9.865   1.976  0.0729 -0.0776 -0.2637
 3016NCC    NCC 3016   9.564   9.797   1.732  0.0541 -0.1243  0.1301
 3017CONH  CONH 3017   9.466   9.868   1.456  0.3756 -0.2030  0.2485
 3018CC1    CC1 3018   9.359   9.695   1.279 -0.1355  0.1687 -0.3008
 3019CC1    CC1 3019   9.104   9.798   1.196 -0.1792 -0.1435 -0.4909
 3020CC1    CC1 3020   8.900   9.892   1.074  0.5124  0.4191 -0.0276
 3021NCO    NCO 3021   8.723   9.699   0.962  0.2571  0.2693  0.0435
 3022CONH  CONH 3022   9.797   9.647   1.611 -0.1319  0.2847  0.1938
 3023CC1    CC1 3023  10.091   9.697   1.678 -0.0615  0.6376 -0.0687
 3024CC1    CC1 3024  10.225   9.854   1.533 -0.1640  0.2226 -0.4952
 3025CC1    CC1 3025  10.312  10.039   1.437 -0.5929  0.1013  0.0253
 3026NCO    NCO 3026  10.163  10.223   1.228 -0.4095  0.0181 -0.2126
 3027NCO    NCO 3027   3.911   1.912   7.781  0.1067  0.0784  0.1398
 3028CC1    CC1 3028   4.168   1.956   7.925 -0.0338 -0.0810  0.0378
 3029CC1    CC1 3029   4.317   1.768   7.910 -0.1510  0.5051  0.0443
 3030NCC    NCC 3030   4.536   1.641   8.036  0.0930 -0.4891 -0.0724
 3031CONH  CONH 3031   4.558   1.502   8.272 -0.6492  0.1899  0.1859
 3032CC1    CC1 3032   4.724   1.310   8.264  0.0301 -0.5185  0.1537
 3033CC1    CC1 3033   4.842   1.229   8.027  0.0926 -0.4009 -0.3481
 3034CC1    CC1 3034   5.006   1.125   7.893  0.2616  0.2107  0.0186
 3035NCO    NCO 3035   4.991   1.252   7.628 -0.0332  0.1658  0.2090
 3036CONH  CONH 3036   4.822   1.787   8.141  0.2600 -0.3180  0.3118
 3037CC1    CC1 3037   4.968   1.645   8.258  0.0826  0.3445  0.2256
 3038CC1    CC1 3038   4.979   1.650   8.504 -0.1853 -0.1718  0.2780
 3039CC1    CC1 3039   4.955   1.595   8.724  0.0034  0.3051  0.1069
 3040NCO    NCO 3040   4.987   1.783   8.926  0.3706 -0.4241  0.0305
 3041NCO    NCO 3041   2.582   8.827   7.799 -0.0476 -0.0463 -0.4849
 3042CC1    CC1 3042   2.392   8.937   7.878  0.0003  0.2627  0.0588
 3043CC1    CC1 3043   2.172   8.784   7.836  0.3918 -0.0976  0.2079
 3044NCC    NCC 3044   2.056   8.601   7.664  0.1166 -0.3458  0.2873
 3045CONH  CONH 3045   2.150   8.302   7.624  0.0744  0.0181  0.0972
 3046CC1    CC1 3046   2.130   8.180   7.338  0.0016 -0.2924  0.0046
 3047CC1    CC1 3047   2.370   8.210   7.187  0.4552  0.2773 -0.1822
 3048CC1    CC1 3048   2.540   8.365   7.067  0.0850  0.4350  0.0596
 3049NCO    NCO 3049   2.763   8.351   7.259 -0.0566 -0.1050 -0.0067
 3050CONH  CONH 3050   1.882   8.558   7.415  0.1380  0.1951  0.4307
 3051CC1    CC1 3051   2.015   8.460   7.193  0.2282  0.1489  0.2305
 3052CC1    CC1 3052   2.154   8.532   7.048 -0.1775 -0.2607  0.1290
 3053CC1    CC1 3053   2.302   8.580   6.889 -0.3365 -0.1754  0.0545
 3054NCO    NCO 3054   2.381   8.522   6.670  0.0404 -0.2286  0.1740
 3055NCO    NCO 3055   4.247   1.572   6.817  0.2029 -0.0473  0.0234
 3056CC1    CC1 3056   4.220   1.787   6.977 -0.1416 -0.0649  0.0783
 3057CC1    CC1 3057   4.390   1.909   7.107 -0.6799 -0.0846 -0.0603
 3058NCC    NCC 3058   4.593   1.888   7.255 -0.3625  0.0286 -0.0223
 3059CONH  CONH 3059   4.680   1.750   7.539  0.4432  0.3072  0.0087
 3060CC1    CC1 3060   4.774   1.864   7.753  0.6114  0.6967  0.1782
 3061CC1    CC1 3061   4.828   2.070   7.772  0.3228  0.1760  0.1121
 3062CC1    CC1 3062   4.922   2.272   7.700 -0.1694  0.1157 -0.0480
 3063NCO    NCO 3063   4.737   2.484   7.544  0.0637 -0.3133  0.0108
 3064CONH  CONH 3064   4.897   1.883   7.167 -0.0302  0.0730  0.2618
 3065CC1    CC1 3065   5.105   1.938   7.354 -0.4069  0.3080 -0.3550
 3066CC1    CC1 3066   5.090   1.771   7.529  0.0557 -0.1547 -0.0826
 3067CC1    CC1 3067   5.106   1.700   7.770  0.1703  0.2244  0.3023
 3068NCO    NCO 3068   5.151   1.878   7.908  0.3255  0.2874 -0.0439
 3069NCO    NCO 3069   8.582   5.900   3.562  0.2493 -0.0027  0.3362
 3070CC1    CC1 3070   8.647   5.653   3.692 -0.2843 -0.0156 -0.2369
 3071CC1    CC1 3071   8.484   5.563   3.807  0.0614 -0.2075  0.1109
 3072NCC    NCC 3072   8.384   5.423   4.001 -0.2673 -0.1720  0.2579
 3073CONH  CONH 3073   8.529   5.213   4.159  0.2958  0.2029 -0.0349
 3074CC1    CC1 3074   8.408   4.978   4.262 -0.6827 -0.3818 -0.1974
 3075CC1    CC1 3075   8.456   4.826   4.494  0.2852  0.5020  0.1288
 3076CC1    CC1 3076   8.466   4.779   4.723  0.3624  0.5336 -0.0509
 3077NCO    NCO 3077   8.595   4.964   4.970 -0.4359 -0.0372  0.2446
 3078CONH  CONH 3078   8.099   5.308   4.045  0.1480  0.2840 -0.0747
 3079CC1    CC1 3079   8.078   5.080   4.064  0.0348 -0.4886  0.1888
 3080CC1    CC1 3080   8.014   5.001   4.268  0.2122  0.1655 -0.2316
 3081CC1    CC1 3081   7.929   4.972   4.475 -0.1738 -0.2904 -0.1777
 3082NCO    NCO 3082   7.634   5.088   4.418  0.2749  0.0950 -0.1719
 3083NCO    NCO 3083   3.768   1.456   9.978  0.0025  0.0325 -0.5242
 3084CC1    CC1 3084   4.012   1.602   9.980  0.3304  0.4219 -0.0736
 3085CC1    CC1 3085   4.014   1.643   9.738 -0.5872 -0.0108 -0.1593
 3086NCC    NCC 3086   4.056   1.588   9.477 -0.0971 -0.1617  0.1172
 3087CONH  CONH 3087   4.298   1.490   9.321  0.1997 -0.2400 -0.1194
 3088CC1    CC1 3088   4.474   1.356   9.441 -0.1737  0.0008 -0.1226
 3089CC1    CC1 3089   4.763   1.414   9.400  0.5007 -0.0036 -0.3136
 3090CC1    CC1 3090   4.985   1.428   9.467  0.2845  0.2933 -0.0592
 3091NCO    NCO 3091   5.097   1.319   9.744 -0.1544  0.0331 -0.0109
 3092CONH  CONH 3092   3.996   1.734   9.195 -0.1535  0.3246 -0.0750
 3093CC1    CC1 3093   4.171   1.745   9.010  0.0632  0.0405 -0.3904
 3094CC1    CC1 3094   4.177   1.782   8.741 -0.0825 -0.1546  0.2916
 3095CC1    CC1 3095   4.107   1.697   8.550 -0.0944 -0.3351 -0.2453
 3096NCO    NCO 3096   4.288   1.840   8.334 -0.1697  0.0300  0.1247
 3097NCO    NCO 3097   4.881   9.253   4.955  0.4633  0.2518  0.2603
 3098CC1    CC1 3098   4.928   9.095   5.210 -0.0359  0.0670  0.2108
 3099CC1    CC1 3099   4.883   8.882   5.123  0.1478  1.0028  0.0134
 3100NCC    NCC 3100   4.893   8.594   5.088  0.5749  0.3992 -0.0592
 3101CONH  CONH 3101   5.066   8.402   4.901  0.3648  0.2980 -0.2254
 3102CC1    CC1 3102   5.229   8.169   5.017 -0.1158 -0.0189  0.1037
 3103CC1    CC1 3103   5.455   8.209   5.064  0.4843 -0.3571  0.1993
 3104CC1    CC1 3104   5.650   8.343   5.111  0.2154  0.1646 -0.2493
 3105NCO    NCO 3105   5.859   8.416   5.302  0.3376  0.0911  0.0614
 3106CONH  CONH 3106   4.774   8.331   5.203  0.2288  0.0063 -0.0389
 3107CC1    CC1 3107   4.929   8.102   5.237 -0.5158  0.0297 -0.0460
 3108CC1    CC1 3108   4.985   7.902   5.109 -0.0656 -0.3972  0.1263
 3109CC1    CC1 3109   5.066   7.800   4.914  0.1227 -0.5912  0.3379
 3110NCO    NCO 3110   4.968   7.543   4.903 -0.1515  0.2837 -0.0942
 3111NCO    NCO 3111   8.157   5.402   4.510 -0.7469  0.0415  0.0758
 3112CC1    CC1 3112   8.225   5.117   4.539  0.0075  0.0502  0.1012
 3113CC1    CC1 3113   8.166   4.997   4.725  0.3883 -0.2146 -0.2031
 3114NCC    NCC 3114   8.178   4.875   4.969 -0.1280  0.0006 -0.2085
 3115CONH  CONH 3115   8.254   4.967   5.256 -0.2852  0.1382 -0.4291
 3116CC1    CC1 3116   8.186   4.823   5.445 -0.0987  0.3567 -0.0834
 3117CC1    CC1 3117   8.057   4.841   5.630 -0.2314 -0.6266  0.3646
 3118CC1    CC1 3118   7.940   5.003   5.769 -0.1930 -0.0621  0.0539
 3119NCO    NCO 3119   7.694   5.036   5.731 -0.1813  0.0814  0.0692
 3120CONH  CONH 3120   8.258   4.573   5.075  0.4139  0.0447  0.0890
 3121CC1    CC1 3121   8.062   4.446   5.187 -0.1398  0.3075  0.0868
 3122CC1    CC1 3122   7.986   4.528   5.414  0.7475  0.5464 -0.4123
 3123CC1    CC1 3123   7.847   4.552   5.615 -0.1763 -0.0647  0.2445
 3124NCO    NCO 3124   7.584   4.574   5.672 -0.3083 -0.1633  0.1942
 3125NCO    NCO 3125   9.520   6.097   1.884  0.4901  0.2277  0.3613
 3126CC1    CC1 3126   9.280   6.175   1.943 -0.0115 -0.4940  0.0966
 3127CC1    CC1 3127   9.071   6.058   1.971  0.1231 -0.3736  0.2417
 3128NCC    NCC 3128   8.888   5.865   2.004  0.1810  0.2047 -0.0002
 3129CONH  CONH 3129   8.580   5.896   2.098 -0.0115  0.2012  0.0193
 3130CC1    CC1 3130   8.520   6.123   2.289  0.0908  0.1463  0.1923
 3131CC1    CC1 3131   8.458   6.371   2.191  0.6177  0.2415 -0.2876
 3132CC1    CC1 3132   8.420   6.550   2.089 -0.1719  0.0477  0.4268
 3133NCO    NCO 3133   8.279   6.766   2.202  0.0159  0.1311  0.1927
 3134CONH  CONH 3134   8.816   5.531   2.023 -0.1588 -0.1078  0.0661
 3135CC1    CC1 3135   8.904   5.401   2.224 -0.1382  1.1356  0.3731
 3136CC1    CC1 3136   8.743   5.197   2.248  0.2642 -0.4955  0.3884
 3137CC1    CC1 3137   8.546   5.075   2.256  0.2294  0.1132 -0.4518
 3138NCO    NCO 3138   8.318   5.017   2.203  0.3142 -0.0195  0.1276
 3139NCO    NCO 3139   4.725   9.859   8.864  0.4395  0.0600  0.2776
 3140CC1    CC1 3140   4.928   9.813   9.037  0.3910 -0.3035  0.2513
 3141CC1    CC1 3141   5.112   9.983   9.079  0.3788 -0.0651 -0.2860
 3142NCC    NCC 3142   5.249  10.208   9.093  0.3984  0.0108  0.3676
 3143CONH  CONH 3143   5.267   0.128   8.948 -0.5897  0.1820  0.2435
 3144CC1    CC1 3144   5.043   0.349   8.929  0.0526 -0.0745 -0.3036
 3145CC1    CC1 3145   5.069   0.548   8.931 -0.3131 -0.1082 -0.3116
 3146CC1    CC1 3146   5.141   0.763   9.095 -0.0487  0.3869  0.4244
 3147NCO    NCO 3147   5.114   1.022   8.944  0.2626 -0.2120  0.1025
 3148CONH  CONH 3148   5.514  10.317   9.236 -0.3461  0.0738 -0.1205
 3149CC1    CC1 3149   5.555   0.224   9.302  0.0796 -0.3878  0.1705
 3150CC1    CC1 3150   5.720   0.367   9.267 -0.4618 -0.4597 -0.1663
 3151CC1    CC1 3151   5.939   0.445   9.200  0.1309  0.3642  0.4334
 3152NCO    NCO 3152   6.140   0.406   9.397  0.1258  0.6084  0.0508
 3153NCO    NCO 3153   9.798   5.467   8.861 -0.3476  0.2949 -0.0843
 3154CC1    CC1 3154   9.834   5.694   9.119  0.5408 -0.1578 -0.0223
 3155CC1    CC1 3155   9.750   5.547   9.297  0.3256  0.2551 -0.1030
 3156NCC    NCC 3156   9.690   5.428   9.516  0.3033  0.2360  0.2873
 3157CONH  CONH 3157   9.481   5.207   9.562 -0.1666  0.4192  0.0286
 3158CC1    CC1 3158   9.373   5.125   9.796  0.0864 -0.0510  0.0745
 3159CC1    CC1 3159   9.455   4.903   9.846  0.3633 -0.3761  0.1427
 3160CC1    CC1 3160   9.587   4.728   9.962  0.0911  0.0873 -0.0578
 3161NCO    NCO 3161   9.670   4.488  10.043  0.0346  0.1108  0.1086
 3162CONH  CONH 3162   9.583   5.582   9.773  0.3904 -0.0391 -0.3468
 3163CC1    CC1 3163   9.471   5.440   9.996 -0.1641  0.2058  0.4661
 3164CC1    CC1 3164   9.274   5.423  10.075 -0.1775 -0.1739 -0.0163
 3165CC1    CC1 3165   9.028   5.364  10.070  0.1327 -0.0672 -0.8374
 3166NCO    NCO 3166   8.801   5.557   9.932 -0.3270 -0.0498  0.0301
 3167NCO    NCO 3167   0.269   6.873   1.574  0.2813  0.2101  0.1789
 3168CC1    CC1 3168   0.388   6.990   1.816  0.2296 -0.1236  0.0053
 3169CC1    CC1 3169   0.540   6.833   1.880 -0.0655 -0.3147 -0.1243
 3170NCC    NCC 3170   0.694   6.586   1.954  0.1050 -0.1809  0.2543
 3171CONH  CONH 3171   0.853   6.539   2.215 -0.0598 -0.0523 -0.2378
 3172CC1    CC1 3172   0.844   6.291   2.324 -0.4784 -0.2914  0.1922
 3173CC1    CC1 3173   1.018   6.109   2.356  0.0448 -0.0696 -0.0514
 3174CC1    CC1 3174   1.240   6.009   2.328 -0.2889 -0.3285 -0.0814
 3175NCO    NCO 3175   1.364   6.044   2.631 -0.0743  0.0083  0.2339
 3176CONH  CONH 3176   0.661   6.281   1.921  0.5260 -0.0178 -0.2528
 3177CC1    CC1 3177   0.900   6.164   1.903  0.3853  0.2197 -0.3220
 3178CC1    CC1 3178   1.109   6.238   2.041  0.4848 -0.3652  0.2643
 3179CC1    CC1 3179   1.279   6.352   2.126 -0.6832 -0.0599 -0.0794
 3180NCO    NCO 3180   1.287   6.677   2.087  0.1743  0.3376  0.1315
 3181NCO    NCO 3181   4.577  10.279   9.495  0.0459 -0.2390 -0.0157
 3182CC1    CC1 3182   4.768  10.157   9.312 -0.0639 -0.2315 -0.4514
 3183CC1    CC1 3183   4.965   0.003   9.376 -0.4700  0.4758 -0.3382
 3184NCC    NCC 3184   5.183   0.139   9.452 -0.3013 -0.3223  0.3048
 3185CONH  CONH 3185   5.349   0.055   9.709  0.0081 -0.1456  0.3761
 3186CC1    CC1 3186   5.607   0.253   9.779  0.3672 -0.0007  0.3418
 3187CC1    CC1 3187   5.631   0.430   9.616  0.1570  0.3793  0.1652
 3188CC1    CC1 3188   5.661   0.635   9.528 -0.4415 -0.0316 -0.5346
 3189NCO    NCO 3189   5.515   0.728   9.319 -0.0866  0.0645 -0.2273
 3190CONH  CONH 3190   5.241   0.473   9.485 -0.0589  0.1002  0.0083
 3191CC1    CC1 3191   5.317   0.579   9.727  0.1211  0.3388  0.0593
 3192CC1    CC1 3192   5.341   0.458   9.958 -0.1626  0.2045  0.2364
 3193CC1    CC1 3193   5.371   0.252  10.097  0.2074  0.1983 -0.1817
 3194NCO    NCO 3194   5.224   0.213  10.291 -0.0067 -0.1814 -0.2519
 3195NCO    NCO 3195   5.770   0.591   8.901 -0.0259 -0.4272 -0.0986
 3196CC1    CC1 3196   5.530   0.476   8.781  0.1089  0.5379  0.0313
 3197CC1    CC1 3197   5.332   0.560   8.664  0.2995  0.9248  0.0099
 3198NCC    NCC 3198   5.188   0.764   8.575  0.3801 -0.2372 -0.0797
 3199CONH  CONH 3199   5.063   0.931   8.331  0.2148 -0.3724  0.0509
 3200CC1    CC1 3200   5.069   1.198   8.341 -0.0266 -0.3179 -0.4066
 3201CC1    CC1 3201   5.187   1.371   8.336  0.1540  0.2568 -0.2840
 3202CC1    CC1 3202   5.361   1.477   8.366 -0.2682  0.1648 -0.4128
 3203NCO    NCO 3203   5.369   1.776   8.349  0.3695  0.2716 -0.3669
 3204CONH  CONH 3204   4.889   0.830   8.678  0.1408  0.2291  0.0403
 3205CC1    CC1 3205   4.774   1.051   8.595  0.1214 -0.1217  0.8510
 3206CC1    CC1 3206   4.545   1.050   8.603  0.0986 -0.3734  0.1603
 3207CC1    CC1 3207   4.315   1.029   8.619 -0.2987  0.1023 -0.3786
 3208NCO    NCO 3208   4.162   0.866   8.762 -0.0813 -0.1452 -0.0215
 3209NCO    NCO 3209   1.414   8.616   8.112 -0.2013  0.1316 -0.2645
 3210CC1    CC1 3210   1.622   8.551   8.305 -0.0284 -0.5508 -0.3656
 3211CC1    CC1 3211   1.733   8.709   8.443 -0.1047 -0.2300 -0.5073
 3212NCC    NCC 3212   1.894   8.812   8.633  0.0595 -0.1243 -0.1669
 3213CONH  CONH 3213   2.216   8.823   8.617  0.0017 -0.1571 -0.2029
 3214CC1    CC1 3214   2.391   8.771   8.829  0.3893  0.1559  0.2701
 3215CC1    CC1 3215   2.473   8.620   8.893 -0.0778 -0.0009  0.5466
 3216CC1    CC1 3216   2.584   8.418   8.816 -0.2537  0.4801  0.2107
 3217NCO    NCO 3217   2.460   8.379   8.488 -0.0685  0.1468 -0.0750
 3218CONH  CONH 3218   1.916   8.874   8.913  0.2794  0.2342  0.1313
 3219CC1    CC1 3219   2.144   9.030   8.991 -0.1005  0.6483 -0.4530
 3220CC1    CC1 3220   2.356   9.085   8.943 -0.4158  0.4362  0.3275
 3221CC1    CC1 3221   2.565   9.216   8.903 -0.2944  0.1028 -0.1768
 3222NCO    NCO 3222   2.720   9.418   9.062  0.2002  0.0357 -0.1873
 3223NCO    NCO 3223   6.089   9.021   4.118 -0.0232  0.0299  0.0456
 3224CC1    CC1 3224   5.818   8.979   4.179  0.2566  0.1858  0.2710
 3225CC1    CC1 3225   5.695   8.953   3.956  0.1517 -0.0200  0.5717
 3226NCC    NCC 3226   5.559   8.917   3.736 -0.5517  0.0077  0.3039
 3227CONH  CONH 3227   5.281   8.815   3.639 -0.2599  0.1432  0.2748
 3228CC1    CC1 3228   5.252   8.536   3.532 -0.2475  0.0681 -0.2896
 3229CC1    CC1 3229   5.029   8.484   3.430 -0.2315  0.0967  0.1774
 3230CC1    CC1 3230   4.867   8.403   3.308  0.3586 -0.4059  0.3220
 3231NCO    NCO 3231   4.950   8.118   3.270  0.0496 -0.0450  0.3504
 3232CONH  CONH 3232   5.662   8.741   3.480 -0.1148  0.1692  0.4212
 3233CC1    CC1 3233   5.494   8.648   3.257  0.1347  0.4810 -0.0251
 3234CC1    CC1 3234   5.540   8.612   2.984 -0.3449  0.5264  0.0911
 3235CC1    CC1 3235   5.560   8.463   2.796  0.1586  0.0089  0.1752
 3236NCO    NCO 3236   5.610   8.413   2.542 -0.1717  0.1866 -0.0478
 3237NCO    NCO 3237   8.980   0.873   2.229  0.2861 -0.0047  0.0658
 3238CC1    CC1 3238   8.753   0.923   2.335 -0.3942  0.5640 -0.4012
 3239CC1    CC1 3239   8.551   0.791   2.343 -0.1211  0.0464  0.0682
 3240NCC    NCC 3240   8.437   0.626   2.178 -0.0072  0.5214  0.0034
 3241CONH  CONH 3241   8.239   0.628   1.926  0.0315  0.0978  0.0183
 3242CC1    CC1 3242   8.118   0.426   1.879  0.2184 -0.0886  0.2795
 3243CC1    CC1 3243   8.097   0.326   1.687  0.5933  0.3638  0.2734
 3244CC1    CC1 3244   8.147   0.236   1.490 -0.4840 -0.0830  0.4387
 3245NCO    NCO 3245   8.035   0.312   1.265  0.0687 -0.2586  0.2655
 3246CONH  CONH 3246   8.251   0.413   2.260 -0.0006 -0.1494 -0.0063
 3247CC1    CC1 3247   8.267   0.171   2.192  0.3412 -0.0196  0.0121
 3248CC1    CC1 3248   8.366   0.150   1.950 -0.4809 -0.2541  0.1996
 3249CC1    CC1 3249   8.487   0.191   1.718  0.0316 -0.1405 -0.1345
 3250NCO    NCO 3250   8.558   0.430   1.533 -0.0539 -0.2919 -0.0359
 3251NCO    NCO 3251   9.523   5.246   6.029  0.6110  0.3722  0.2766
 3252CC1    CC1 3252   9.270   5.335   5.845  0.0204  0.2479 -0.2455
 3253CC1    CC1 3253   9.079   5.359   5.937  0.0143 -0.0699  0.2104
 3254NCC    NCC 3254   8.821   5.392   5.893  0.2012  0.2696  0.1284
 3255CONH  CONH 3255   8.628   5.514   5.644  0.0862 -0.4088 -0.2844
 3256CC1    CC1 3256   8.734   5.704   5.428  0.1797  0.3247 -0.4103
 3257CC1    CC1 3257   8.916   5.789   5.416 -0.0786 -0.2871  0.0099
 3258CC1    CC1 3258   9.177   5.767   5.293  0.0910 -0.3347 -0.2776
 3259NCO    NCO 3259   9.339   5.544   5.383  0.0571 -0.1726 -0.0758
 3260CONH  CONH 3260   8.498   5.195   5.957 -0.1588  0.0662  0.1274
 3261CC1    CC1 3261   8.378   5.093   5.775 -0.1577  0.3909 -0.0560
 3262CC1    CC1 3262   8.216   5.190   5.649 -0.1453  0.0321 -0.2949
 3263CC1    CC1 3263   8.175   5.322   5.478  0.0005 -0.0455  0.0713
 3264NCO    NCO 3264   7.939   5.366   5.265 -0.1483 -0.0831  0.1285
 3265NCO    NCO 3265   9.754   4.907  10.296  0.3156 -0.2449  0.1252
 3266CC1    CC1 3266   9.637   5.109  10.163 -0.0513  0.1718 -0.6882
 3267CC1    CC1 3267   9.572   5.271  10.327  0.1251  0.3994  0.3001
 3268NCC    NCC 3268   9.588   5.534   0.018  0.1541 -0.5461 -0.3325
 3269CONH  CONH 3269   9.381   5.783  10.332 -0.0835 -0.3667  0.2175
 3270CC1    CC1 3270   9.390   5.985   0.162  0.0448 -0.0544  0.1176
 3271CC1    CC1 3271   9.595   6.120   0.177 -0.0906  0.1906  0.0086
 3272CC1    CC1 3272   9.800   6.176   0.252 -0.2192  0.5372 -0.2112
 3273NCO    NCO 3273  10.060   6.221   0.187 -0.3043 -0.2917  0.1925
 3274CONH  CONH 3274   9.736   5.746   0.232  0.0006  0.2707  0.0031
 3275CC1    CC1 3275   9.634   5.815   0.433  0.2120 -0.1042 -0.3641
 3276CC1    CC1 3276   9.678   5.744   0.656 -0.0372 -0.5491  0.3462
 3277CC1    CC1 3277   9.853   5.731   0.860  0.0925 -0.3165 -0.1968
 3278NCO    NCO 3278   9.996   5.903   1.118  0.3531  0.1907 -0.4570
 3279NCO    NCO 3279   9.615   4.682   9.405 -0.3593  0.2741 -0.1713
 3280CC1    CC1 3280   9.375   4.780   9.342  0.5796 -0.1071 -0.1783
 3281CC1    CC1 3281   9.246   4.901   9.481 -0.2459 -0.1985 -0.1824
 3282NCC    NCC 3282   9.069   5.113   9.437  0.1820  0.5535 -0.1936
 3283CONH  CONH 3283   8.875   5.243   9.223 -0.1027 -0.0273  0.3534
 3284CC1    CC1 3284   8.954   5.456   9.161  0.4281 -0.1392  0.2439
 3285CC1    CC1 3285   9.088   5.511   8.917  0.0827  0.1101  0.0597
 3286CC1    CC1 3286   9.261   5.564   8.781  0.4150 -0.1152 -0.1027
 3287NCO    NCO 3287   9.458   5.757   8.947  0.0078 -0.0843 -0.0873
 3288CONH  CONH 3288   9.035   5.393   9.568  0.0847  0.1226  0.1416
 3289CC1    CC1 3289   8.855   5.571   9.489 -0.2858 -0.3023 -0.3991
 3290CC1    CC1 3290   8.640   5.486   9.515  0.5042  0.8421  0.2198
 3291CC1    CC1 3291   8.452   5.392   9.665 -0.0094  0.1373  0.1294
 3292NCO    NCO 3292   8.181   5.346   9.715  0.3760  0.0897 -0.0135
 3293NCO    NCO 3293   4.371   9.591   2.683 -0.2629 -0.0008  0.2663
 3294CC1    CC1 3294   4.422   9.333   2.831 -0.0905 -0.4854 -0.1679
 3295CC1    CC1 3295   4.662   9.270   2.735 -0.0578  0.1202 -0.0969
 3296NCC    NCC 3296   4.900   9.191   2.804 -0.0705  0.2655  0.2365
 3297CONH  CONH 3297   5.125   9.159   3.044  0.0941  0.3303 -0.2940
 3298CC1    CC1 3298   5.150   8.895   3.191  0.1445 -0.1190  0.3704
 3299CC1    CC1 3299   5.121   8.633   3.081 -0.4354 -0.1641 -0.4057
 3300CC1    CC1 3300   5.170   8.474   2.920 -0.0838  0.0905 -0.0707
 3301NCO    NCO 3301   4.927   8.338   2.864  0.1751  0.2759 -0.2314
 3302CONH  CONH 3302   5.149   9.251   2.602 -0.0605  0.4741 -0.0108
 3303CC1    CC1 3303   5.386   9.331   2.693  0.0750 -0.2734  0.0269
 3304CC1    CC1 3304   5.542   9.271   2.585  0.2325 -0.2840 -0.0189
 3305CC1    CC1 3305   5.719   9.272   2.463  0.1440 -0.1424  0.1459
 3306NCO    NCO 3306   5.712   8.963   2.438  0.6878 -0.0606 -0.2988
 3307NCO    NCO 3307   8.286   3.833   5.276  0.2133 -0.4300  0.1575
 3308CC1    CC1 3308   8.487   4.046   5.146 -0.2553  0.7965  0.0802
 3309CC1    CC1 3309   8.594   4.164   5.301  0.3160 -0.4850 -0.0578
 3310NCC    NCC 3310   8.605   4.434   5.358  0.0421 -0.1870  0.0212
 3311CONH  CONH 3311   8.738   4.727   5.295 -0.1819 -0.6019  0.1391
 3312CC1    CC1 3312   8.603   4.962   5.444  0.3291 -0.3112 -0.1891
 3313CC1    CC1 3313   8.778   5.070   5.593  0.0985  0.0614 -0.0846
 3314CC1    CC1 3314   8.975   5.065   5.710 -0.0229 -0.2950  0.1266
 3315NCO    NCO 3315   9.007   4.725   5.800  0.0256  0.0030  0.1631
 3316CONH  CONH 3316   8.509   4.582   5.616  0.0812 -0.0244  0.0631
 3317CC1    CC1 3317   8.282   4.504   5.728 -0.1346 -0.1993  0.2433
 3318CC1    CC1 3318   8.195   4.663   5.890 -0.5301 -0.0482  0.0185
 3319CC1    CC1 3319   8.205   4.858   6.008  0.1676 -0.2891  0.0449
 3320NCO    NCO 3320   8.177   4.751   6.329  0.2522  0.0640 -0.0349
 3321W        W 3321   5.537   5.806   9.625 -0.4361 -0.6313  0.2737
 3322W        W 3322   2.745   9.362   1.823 -0.1401  0.5901  0.3690
 3323W        W 3323   9.159   7.939   3.632 -0.0276 -0.1306 -0.0262
 3324W        W 3324   0.995   4.086  10.146  0.0395 -0.0081 -0.0035
 3325W        W 3325   2.911   6.220   2.815  0.0691 -0.1092 -0.0872
 3326W        W 3326   5.817   0.217   2.248 -0.0635 -0.1595 -0.0241
 3327W        W 3327   8.197   4.932   0.564  0.2098  0.1391 -0.0188
 3328W        W 3328   7.027   2.179   4.126 -0.1841  0.3119 -0.4020
 3329W        W 3329   0.109   0.696   1.936  0.0726 -0.0116 -0.3031
 3330W        W 3330   2.019   3.733   4.419 -0.3636  0.0372  0.1295
 3331W        W 3331   0.942   5.132   7.878  0.1266 -0.0620  0.1782
 3332W        W 3332   1.123   8.725   4.362 -0.0867  0.0884 -0.0834
 3333W        W 3333   4.401  10.147   9.078 -0.0189 -0.1050 -0.2576
 3334W        W 3334   5.295   4.871   8.913  0.0080  0.0119 -0.0840
 3335W        W 3335   1.151   8.465   1.928 -0.1508  0.2091 -0.0797
 3336W        W 3336   4.760   2.846   8.233  0.1582  0.3027 -0.1980
 3337W        W 3337   0.078   8.589   8.813 -0.3145  0.0294  0.0841
 3338W        W 3338   7.063  10.204   2.476  0.1855 -0.0175  0.1284
 3339W        W 3339   5.569   9.884   0.426 -0.0370 -0.1609  0.0236
 3340W        W 3340   5.663   0.726   2.311 -0.1486 -0.1580  0.0094
 3341W        W 3341   9.588   3.972   0.747  0.0477  0.1334  0.3739
 3342W        W 3342   1.114   6.473   2.584  0.1361 -0.0202  0.0390
 3343W        W 3343   1.660   5.042   0.533 -0.1625  0.0736 -0.3783
 3344W        W 3344   8.964   2.367   6.335  0.1148 -0.2209 -0.0467
 3345W        W 3345   7.250   1.661   6.751 -0.0081 -0.4174 -0.1802
 3346W        W 3346   3.465   9.181   4.902 -0.0067 -0.0822 -0.2405
 3347W        W 3347   0.150   0.776   6.895  0.3468 -0.0457 -0.0488
 3348W        W 3348   8.659   8.354   7.247  0.2598  0.1344 -0.0203
 3349W        W 3349   0.919   6.040   3.302 -0.0366 -0.1183  0.1719
 3350W        W 3350   9.179   1.959   9.002  0.0329  0.0313  0.1751
 3351W        W 3351   9.422   1.623   3.440  0.2292  0.0818 -0.1844
 3352W        W 3352   8.837   6.066   0.121 -0.0928 -0.0435 -0.1309
 3353W        W 3353   5.116   6.661   8.619  0.0246  0.1235  0.1711
 3354W        W 3354  10.345   6.397   4.682  0.0362 -0.0219  0.0419
 3355W        W 3355   6.129   9.767   7.779 -0.0325 -0.0529  0.0366
 3356W        W 3356   7.619   7.350   4.424  0.0280 -0.0252 -0.1888
 3357W        W 3357   5.383   6.642   0.836 -0.3193 -0.0951  0.2531
 3358W        W 3358   8.689   8.203  10.000 -0.2145  0.0106 -0.1552
 3359W        W 3359   2.898   7.012   6.377  0.0300  0.1578  0.0807
 3360W        W 3360   8.655   4.258   0.586  0.0404 -0.0324  0.0155
 3361W        W 3361   7.930   4.426   3.752  0.3097  0.3129  0.0944
 3362W        W 3362   3.609   2.409   2.172 -0.0921  0.4175  0.1151
 3363W        W 3363   0.477   2.058   0.447  0.1744 -0.1922  0.2888
 3364W        W 3364   8.717   2.570   0.001 -0.1324 -0.2246  0.0188
 3365W        W 3365   0.519   0.144   8.980  0.2299  0.0426  0.0802
 3366W        W 3366   9.287   6.583   6.251 -0.2569 -0.2245 -0.2914
 3367W        W 3367   4.994   5.480   5.630 -0.0563 -0.0131  0.1759
 3368W        W 3368   2.947   1.167   5.151  0.2748 -0.4122 -0.0978
 3369W        W 3369   8.822   2.247   2.133 -0.2062  0.1080  0.2796
 3370W        W 3370   5.929   7.113   4.410  0.1945  0.1526 -0.0246
 3371W        W 3371   6.613   5.212   9.444  0.0300  0.0957  0.1593
 3372W        W 3372   1.848   9.916   7.596  0.1238  0.0108  0.1997
 3373W        W 3373   8.614   6.931   6.623 -0.1421 -0.0987 -0.0511
 3374W        W 3374   9.277   9.583   9.000 -0.2920 -0.0464  0.1149
 3375W        W 3375   8.965   0.226   0.708  0.1098 -0.2766  0.0745
 3376W        W 3376   2.795   0.022   9.514  0.4106 -0.2536  0.2208
 3377W        W 3377   5.178   3.243   4.995 -0.2401  0.2042  0.0757
 3378W        W 3378   0.608   3.157   1.864 -0.3438  0.1383 -0.0903
 3379W        W 3379   0.030  10.313   8.785  0.1156 -0.0221 -0.3027
 3380W        W 3380   1.011   7.954   5.902  0.3400 -0.0912  0.1831
 3381W        W 3381   0.263   9.885   4.474  0.3773 -0.0710  0.2574
 3382W        W 3382   7.959   5.302   1.909 -0.0757 -0.1193 -0.0164
 3383W        W 3383   2.878   9.317   5.928  0.1139  0.1011 -0.0284
 3384W        W 3384   0.202   1.902   4.832  0.0640 -0.2142  0.1666
 3385W        W 3385   5.796   0.514   1.322  0.0071 -0.0263 -0.0687
 3386W        W 3386   4.744   3.155   2.491  0.1036  0.1933 -0.2043
 3387W        W 3387   2.880   6.857   1.312  0.0340  0.0707  0.2327
 3388W        W 3388   6.321   6.262   2.236  0.0057  0.1133 -0.1581
 3389W        W 3389   2.889   0.620   6.782 -0.1019  0.2643 -0.0254
 3390W        W 3390   3.873   1.820   6.777  0.2113 -0.0114 -0.3171
 3391W        W 3391   5.018   4.170   4.157 -0.2866  0.3015  0.2174
 3392W        W 3392   1.893   8.469   2.608  0.1931  0.2553 -0.0302
 3393W        W 3393   3.721   2.754   4.358 -0.0198  0.0177  0.0929
 3394W        W 3394   2.748   9.373   7.813 -0.0372  0.0898  0.0954
 3395W        W 3395   3.497   5.567   1.503  0.2566 -0.1206  0.1608
 3396W        W 3396   0.672   7.231   7.648 -0.0705  0.3569 -0.2474
 3397W        W 3397   8.843   5.517   0.968 -0.3748  0.2963  0.2331
 3398W        W 3398   8.982   1.477   2.205  0.0172 -0.0141 -0.1427
 3399W        W 3399   3.717   5.776   3.229  0.0099 -0.2135 -0.3479
 3400W        W 3400  10.299   5.609   0.951  0.5060  0.3642 -0.2916
 3401W        W 3401   0.611   2.013   2.569 -0.1342 -0.0647 -0.0907
 3402W        W 3402   7.527   8.072   5.076  0.2401  0.0772 -0.1165
 3403W        W 3403   5.261   6.751   5.139  0.0284  0.0819  0.0733
 3404W        W 3404  10.082   3.550   9.536  0.0339  0.0620 -0.1194
 3405W        W 3405   5.011   4.625   0.154  0.3243 -0.0676 -0.2329
 3406W        W 3406   3.446   4.694   7.300  0.2769 -0.3000 -0.0353
 3407W        W 3407   4.279   2.003   9.841  0.0438  0.0084  0.0664
 3408W        W 3408   1.319   5.562   8.314 -0.1021 -0.0824  0.0391
 3409W        W 3409   0.380   9.271   6.570  0.0194  0.1348 -0.1840
 3410W        W 3410   5.834   3.945   7.870 -0.0752 -0.1192  0.0956
 3411W        W 3411   6.063   7.851   0.966  0.1462 -0.0801 -0.0552
 3412W        W 3412   6.699   1.602   3.006 -0.0596 -0.1092  0.5028
 3413W        W 3413   1.907   0.666   4.499  0.2364 -0.0559 -0.0585
 3414W        W 3414   1.666   5.395   9.154 -0.0654  0.0254  0.3809
 3415W        W 3415   9.624   7.560   6.586  0.0620  0.1051  0.0375
 3416W        W 3416   2.074   5.410   9.776 -0.1798 -0.0435 -0.0292
 3417W        W 3417   7.195   1.530   2.756 -0.0789 -0.0776 -0.1600
 3418W        W 3418   4.802   1.873   6.251 -0.3180 -0.0719 -0.0935
 3419W        W 3419   1.570   9.826   0.896 -0.0840  0.3672  0.2012
 3420W        W 3420   2.038   3.797   1.306  0.0364 -0.4129 -0.0437
 3421W        W 3421   9.876   2.878   1.968 -0.1264 -0.3059 -0.2016
 3422W        W 3422   9.392   2.749   5.569 -0.2782 -0.0430 -0.1321
 3423W        W 3423   4.018   9.997   1.595  0.0695  0.2103 -0.2099
 3424W        W 3424   7.873   9.700   0.520  0.0650 -0.0081 -0.0487
 3425W        W 3425   8.829   0.063   1.546 -0.3646 -0.4179 -0.0676
 3426W        W 3426   7.339   9.634   9.514  0.2766 -0.1266  0.0209
 3427W        W 3427   3.883  10.248   5.155 -0.0677 -0.0800  0.1166
 3428W        W 3428   2.023   4.840   0.952 -0.0641 -0.2630 -0.1921
 3429W        W 3429   2.854   7.842   3.612  0.3401  0.0841 -0.0680
 3430W        W 3430   8.711   6.448  10.190  0.0706  0.3003  0.2517
 3431W        W 3431   5.607   4.780   7.902  0.2709  0.0485  0.0079
 3432W        W 3432   3.828   2.620   3.435  0.1886  0.0267  0.2173
 3433W        W 3433   7.943   2.608   1.580  0.0433 -0.2140 -0.1226
 3434W        W 3434   7.030   3.297   1.246  0.0612  0.0716  0.1655
 3435W        W 3435   7.017   7.441   7.542  0.1123  0.0173 -0.0025
 3436W        W 3436   0.636   0.390   9.397  0.1408 -0.2817 -0.0733
 3437W        W 3437   6.755   2.201   3.720  0.1182 -0.3680 -0.0967
 3438W        W 3438   2.912   2.008   2.534  0.2687 -0.1733  0.4710
 3439W        W 3439   9.231   0.465   8.431 -0.2661 -0.0177 -0.0851
 3440W        W 3440   3.790   1.447   5.838 -0.1657  0.3312 -0.1772
 3441W        W 3441   4.712   3.567   0.473 -0.2960  0.4053  0.2652
 3442W        W 3442  10.075   7.536   9.176  0.1954 -0.0218  0.2508
 3443W        W 3443   7.530   8.548   6.689  0.1556 -0.1038 -0.0589
 3444W        W 3444   2.247   8.292   0.589  0.0720  0.5111  0.0501
 3445W        W 3445   6.077   5.645   1.316 -0.0354 -0.0006 -0.2030
 3446W        W 3446   6.707   9.387   1.411 -0.0582  0.0897  0.1233
 3447W        W 3447   3.779   2.464   4.743 -0.0711 -0.1425 -0.1497
 3448W        W 3448   8.593   7.922   2.498  0.0577  0.0721 -0.0668
 3449W        W 3449   3.030   4.290   4.448  0.2437 -0.1895 -0.0911
 3450W        W 3450   2.440   1.878   2.217 -0.0051 -0.0477  0.0268
 3451W        W 3451   1.379   7.645   0.976  0.0238  0.3069  0.2502
 3452W        W 3452   0.559   6.920   1.194 -0.3091 -0.0810  0.0130
 3453W        W 3453  10.338   0.886   7.905  0.0727  0.1248  0.3306
 3454W        W 3454   1.356   9.378   2.410 -0.3283 -0.2374  0.0358
 3455W        W 3455   1.658   8.538   3.532  0.2048  0.0329 -0.1160
 3456W        W 3456  10.098   7.353   3.104  0.1741  0.0105  0.0937
 3457W        W 3457   9.020   9.712   6.991 -0.0255  0.2003  0.1998
 3458W        W 3458   9.404   7.481   4.978  0.0885  0.0763  0.2689
 3459W        W 3459   0.588   0.690   1.889 -0.3603  0.4983 -0.1328
 3460W        W 3460   3.270   1.726   0.292  0.1368 -0.1226 -0.1719
 3461W        W 3461  10.233   5.764   1.455 -0.2228 -0.0922 -0.0688
 3462W        W 3462   3.409   3.156   1.334  0.2345 -0.0460 -0.0457
 3463W        W 3463   6.629   7.598   4.178 -0.2227  0.2052 -0.3032
 3464W        W 3464   0.608   5.579   3.015 -0.0429 -0.2362 -0.0057
 3465W        W 3465   5.537   4.203   3.341 -0.1586 -0.0838  0.1950
 3466W        W 3466   8.243   2.921   5.101  0.1582 -0.2984  0.1657
 3467W        W 3467   4.140   8.071   3.502 -0.1672  0.4713  0.0727
 3468W        W 3468   0.743   1.254   3.157  0.2477  0.1299  0.2902
 3469W        W 3469   0.661   2.299   9.528  0.1831  0.0964 -0.1900
 3470W        W 3470   3.134   8.269   3.470 -0.4108 -0.2712 -0.2913
 3471W        W 3471   2.857   0.237   4.371 -0.0248 -0.1297 -0.1051
 3472W        W 3472   3.692   8.953   8.269 -0.1183 -0.3039 -0.0439
 3473W        W 3473   0.287   0.282   7.304  0.2090 -0.2068  0.0926
 3474W        W 3474   9.446   6.984   5.810  0.0024 -0.0281  0.0769
 3475W        W 3475   1.933   4.313   1.311  0.1763  0.0288  0.3703
 3476W        W 3476  10.332  10.226   4.079 -0.0798  0.0872 -0.1071
 3477W        W 3477   5.640   5.069   2.224  0.0721 -0.0905 -0.2738
 3478W        W 3478   1.180   9.039   0.878  0.0438  0.3105 -0.0641
 3479W        W 3479   2.034   8.271   1.112 -0.0643  0.0939 -0.0262
 3480W        W 3480   5.061   5.605   9.357 -0.0582 -0.0183 -0.1754
 3481W        W 3481   3.872   8.024   6.623  0.1586  0.1210 -0.1262
 3482W        W 3482   1.003   6.609   0.439  0.1692 -0.0821  0.1463
 3483W        W 3483   7.121   9.739   2.204 -0.0909  0.0533 -0.1068
 3484W        W 3484  10.228   5.803   7.928  0.1317  0.0359  0.2640
 3485W        W 3485   0.545   4.406   4.952  0.1247 -0.2350  0.0583
 3486W        W 3486   1.167   0.604   0.693 -0.0017 -0.2034  0.0575
 3487W        W 3487   2.810   0.282   9.114 -0.2132  0.3307 -0.0417
 3488W        W 3488  10.300   3.887   5.756 -0.2402  0.1773  0.1323
 3489W        W 3489   5.450   0.513   7.299 -0.1700 -0.0870  0.1428
 3490W        W 3490   1.210   9.353   9.038 -0.2883 -0.3711 -0.2091
 3491W        W 3491   2.023   4.009   2.614  0.2465 -0.0367  0.0385
 3492W        W 3492   6.856   1.216   7.668  0.0166 -0.3441 -0.0197
 3493W        W 3493   4.186   9.466   6.086  0.0288 -0.0016 -0.0612
 3494W        W 3494   9.250   9.898   7.430 -0.0272  0.0072 -0.0367
 3495W        W 3495   7.750   3.538   8.545 -0.3713  0.1327  0.1729
 3496W        W 3496   5.367   2.729   3.700 -0.0997 -0.1171  0.0829
 3497W        W 3497   3.197   5.125   9.163  0.0229 -0.0752  0.2930
 3498W        W 3498   6.583   4.144   1.539  0.4149 -0.0928  0.1994
 3499W        W 3499  10.124   7.536   7.861  0.1687 -0.1369  0.3255
 3500W        W 3500   3.961   3.367   9.975 -0.3067 -0.2260  0.1837
 3501W        W 3501  10.142   8.041   6.968  0.0059  0.0215 -0.2635
 3502W        W 3502   9.579   1.641   2.992 -0.0400  0.0624 -0.0417
 3503W        W 3503   4.341   4.519   9.296 -0.1045  0.2011  0.2629
 3504W        W 3504   4.558   8.069   2.611  0.0358 -0.1909  0.2570
 3505W        W 3505   2.007   2.256   5.412 -0.1700  0.1723 -0.1003
 3506W        W 3506   2.573   8.835   9.709  0.4016  0.2591  0.0920
 3507W        W 3507   9.941   2.214   8.534 -0.1805  0.0665 -0.1041
 3508W        W 3508   9.229   7.826   6.642  0.2742  0.0534 -0.0623
 3509W        W 3509   3.855   8.396   8.986  0.1623  0.3323  0.2372
 3510W        W 3510   7.534   7.377   1.718  0.2073  0.0357  0.0384
 3511W        W 3511   5.551   2.549   9.959 -0.1556 -0.1129  0.0601
 3512W        W 3512   9.196   2.920   8.124 -0.0050  0.3441 -0.1616
 3513W        W 3513   4.634   1.622   3.729 -0.4990  0.5243 -0.1397
 3514W        W 3514   4.759   7.223   2.028 -0.0632  0.4042  0.3580
 3515W        W 3515   5.978   5.896   9.783 -0.1178  0.1967 -0.3039
 3516W        W 3516   4.578   6.170   4.744  0.2069  0.0300  0.1119
 3517W        W 3517   7.122   3.743   0.494 -0.2979 -0.0205  0.3927
 3518W        W 3518   5.723   8.822   2.004 -0.3484 -0.0042 -0.2811
 3519W        W 3519   1.875   7.909   7.914 -0.2388  0.1345 -0.1941
 3520W        W 3520   8.790   8.444   1.497  0.0041  0.4213  0.1032
 3521W        W 3521   7.633   3.362   4.175  0.1426 -0.1698  0.1967
 3522W        W 3522   5.446   2.894   2.157 -0.3440  0.2018 -0.0001
 3523W        W 3523   0.039   9.071   9.005 -0.0184 -0.2125 -0.1322
 3524W        W 3524   5.745   6.287   0.833 -0.1667 -0.2352  0.0319
 3525W        W 3525   0.479   5.969   6.153  0.1219 -0.3510  0.2335
 3526W        W 3526   1.420   2.724   9.028 -0.0838 -0.1164 -0.0219
 3527W        W 3527   3.463   7.816  10.127 -0.1537 -0.2451  0.3281
 3528W        W 3528   6.512   7.611   3.705 -0.1059 -0.3446 -0.0946
 3529W        W 3529   3.309   5.806   8.056 -0.0409 -0.0914 -0.1552
 3530W        W 3530   6.951   0.752   6.408 -0.0147  0.3396  0.1941
 3531W        W 3531   2.891   1.771   8.440 -0.3526 -0.0271  0.2579
 3532W        W 3532   5.496   5.848   6.344 -0.4659 -0.3960  0.1276
 3533W        W 3533   3.628   0.714   7.504  0.2953 -0.2512  0.1894
 3534W        W 3534   6.705   7.264   8.320 -0.1376 -0.3917 -0.0001
 3535W        W 3535   3.735   9.831   0.656  0.0664  0.2736 -0.0222
 3536W        W 3536   8.836   8.121   5.703  0.2499  0.2931 -0.0830
 3537W        W 3537   7.125   7.558   8.070 -0.0630  0.0224 -0.0468
 3538W        W 3538   5.260   1.757  10.295  0.2263  0.4036  0.2875
 3539W        W 3539   5.898   2.104   1.924  0.1526 -0.0098 -0.1346
 3540W        W 3540   0.128  10.046   2.135 -0.0325  0.0964 -0.3552
 3541W        W 3541   9.501   2.534   8.288  0.1586 -0.1967 -0.1367
 3542W        W 3542   5.424   3.533   5.846  0.0202 -0.1006  0.4781
 3543W        W 3543   9.691   4.308   4.339 -0.1898 -0.0757  0.0578
 3544W        W 3544   2.319   9.220   8.575 -0.2698  0.1104  0.1193
 3545W        W 3545   9.251   9.050   9.199 -0.1113  0.4167  0.1290
 3546W        W 3546   0.408   0.499   2.347 -0.0130 -0.0763 -0.0245
 3547W        W 3547   3.177   1.945   6.033 -0.4615 -0.0099  0.1093
 3548W        W 3548   2.238   5.371   4.288 -0.2008 -0.0417  0.0780
 3549W        W 3549   6.600   6.501   4.887 -0.1182  0.1357  0.3236
 3550W        W 3550   9.667   5.525   1.299 -0.1585 -0.1582  0.2670
 3551W        W 3551   7.775   1.674   4.460  0.0058  0.0637 -0.2432
 3552W        W 3552   2.656   2.069   5.296 -0.1797  0.1255 -0.0372
 3553W        W 3553   6.399   4.714   2.668 -0.1140 -0.2825  0.1964
 3554W        W 3554   2.117   9.069   9.952 -0.3715  0.0216 -0.3529
 3555W        W 3555   8.895   3.381   3.674 -0.2876 -0.0636  0.0927
 3556W        W 3556   7.011   5.034   7.646 -0.0209 -0.1553  0.4666
 3557W        W 3557   9.871   9.407   6.853  0.1726  0.3305  0.1495
 3558W        W 3558   2.392   3.961   2.997 -0.1551 -0.2392  0.1460
 3559W        W 3559   0.455   2.237   5.118  0.1090  0.1790 -0.0408
 3560W        W 3560   0.075   3.580   0.703  0.2156  0.3116 -0.0461
 3561W        W 3561   3.484   9.294   8.989  0.1617 -0.3239 -0.0295
 3562W        W 3562   9.255   9.651   5.773 -0.1015 -0.0014 -0.1359
 3563W        W 3563   1.904   4.652  10.264  0.0321 -0.0050  0.0692
 3564W        W 3564   9.746   5.887   8.066 -0.2515  0.4144  0.0062
 3565W        W 3565   0.373   7.742   8.694  0.4792  0.0799  0.0110
 3566W        W 3566   7.700   5.490   7.102  0.3178 -0.2136 -0.1112
 3567W        W 3567   1.955   6.753   9.577  0.3337 -0.1111  0.0673
 3568W        W 3568   3.107   9.786   2.784  0.1936  0.2471  0.0659
 3569W        W 3569   0.223   0.265   5.444 -0.0432  0.1718 -0.3159
 3570W        W 3570   7.280   7.428   6.033 -0.0873 -0.0864  0.1885
 3571W        W 3571   4.500   9.194   6.516  0.0450 -0.0532  0.1045
 3572W        W 3572   3.896   6.580   5.665  0.2158 -0.2980 -0.0939
 3573W        W 3573   5.720   7.131   2.071 -0.0222  0.0321 -0.2197
 3574W        W 3574   2.020   0.721   8.844  0.1588  0.0521 -0.1336
 3575W        W 3575   6.123   7.783   0.364  0.3509 -0.0126 -0.5474
 3576W        W 3576   4.930   7.581   1.694 -0.0964  0.0008  0.0156
 3577W        W 3577   8.063   7.292   5.702 -0.1223 -0.0283 -0.1494
 3578W        W 3578   2.594   4.666   4.616  0.0999 -0.1385 -0.2980
 3579W        W 3579   9.447   2.725   4.323  0.1708  0.1213 -0.1786
 3580W        W 3580   8.930   8.853   8.857 -0.0413 -0.0689 -0.2439
 3581W        W 3581   1.912   8.222   5.686 -0.0671 -0.2014 -0.0088
 3582W        W 3582   9.736   3.355   0.169 -0.0736  0.1347  0.1722
 3583W        W 3583   3.213   1.977   7.500 -0.2745  0.2039  0.1786
 3584W        W 3584   0.935   3.668   5.988 -0.2239 -0.0215 -0.1641
 3585W        W 3585   7.883   9.042   1.799 -0.0381  0.1257  0.2029
 3586W        W 3586   5.385   5.458   4.612  0.1142 -0.0400 -0.0116
 3587W        W 3587   2.877   2.222   0.299 -0.0284  0.0887 -0.0303
 3588W        W 3588   5.504   7.760   9.954 -0.1809  0.3280  0.0960
 3589W        W 3589   7.463   4.162   8.852 -0.1408  0.3184 -0.0507
 3590W        W 3590   3.634   8.219   5.884  0.0610 -0.1228  0.4136
 3591W        W 3591   5.911  10.078   6.975  0.1035 -0.1269 -0.1072
 3592W        W 3592   4.084   8.764   0.447 -0.0574 -0.1089  0.1740
 3593W        W 3593   2.960   3.461   7.484  0.0914 -0.2661  0.0151
 3594W        W 3594   7.266   5.018   3.938 -0.0277 -0.1849  0.2809
 3595W        W 3595   1.462   2.526   7.107  0.2249 -0.5527  0.1115
 3596W        W 3596   8.439   6.643   1.561 -0.1416 -0.1336 -0.0176
 3597W        W 3597   7.362   2.683   5.697  0.2195  0.1524  0.0026
 3598W        W 3598   3.599   3.474   0.929  0.4058 -0.0652  0.2784
 3599W        W 3599   8.601   2.122   6.605  0.3308 -0.0911  0.0225
 3600W        W 3600   1.474   9.829   4.675 -0.4073 -0.1236 -0.4951
 3601W        W 3601   8.774   0.946   1.251 -0.1306  0.2033 -0.0226
 3602W        W 3602   3.316   8.458   9.475 -0.0891  0.1227  0.0066
 3603W        W 3603   1.959   0.808   0.523 -0.1512  0.1824 -0.0605
 3604W        W 3604   0.685   2.464   4.429  0.0593 -0.0645 -0.1636
 3605W        W 3605   9.790   3.453   2.186 -0.0518 -0.0791  0.0777
 3606W        W 3606   5.052   2.210   8.216  0.2394  0.1038  0.1942
 3607W        W 3607   6.415   0.298   1.953 -0.2034  0.0194  0.1273
 3608W        W 3608   7.654   2.787   3.768  0.1916  0.3422  0.0250
 3609W        W 3609   2.451   1.476   5.666  0.0520  0.1644 -0.2828
 3610W        W 3610   2.480   0.244   6.533  0.0996  0.0838  0.1575
 3611W        W 3611   0.452  10.145   3.316  0.0684  0.0410 -0.3891
 3612W        W 3612   6.444   9.007   3.845  0.0329  0.0167  0.0236
 3613W        W 3613   1.871   2.486   1.521  0.3391 -0.0689 -0.3376
 3614W        W 3614   7.837   4.631   4.853 -0.1330  0.2110 -0.0921
 3615W        W 3615   7.948   3.979   8.456  0.1005  0.2882  0.3079
 3616W        W 3616   6.581   6.076   7.032  0.0928  0.1540 -0.0700
 3617W        W 3617   9.083   9.931   8.077  0.1150  0.0872 -0.1685
 3618W        W 3618   1.346   1.866   8.598 -0.2337 -0.3296  0.0366
 3619W        W 3619   7.512   6.335   4.902  0.1222  0.0694 -0.3244
 3620W        W 3620   0.122   1.171   5.877 -0.2040  0.1379  0.0862
 3621W        W 3621   8.973   4.171   5.000  0.0575 -0.1637  0.2416
 3622W        W 3622   8.372   4.875   9.918  0.2273 -0.0312  0.2825
 3623W        W 3623   7.635   8.345   3.566  0.0599  0.0256  0.0976
 3624W        W 3624   0.471   6.659   4.573 -0.0924 -0.1787 -0.2441
 3625W        W 3625   8.398   9.808   1.332  0.0643 -0.2504 -0.4074
 3626W        W 3626  10.282   2.225   5.176  0.3480 -0.1322 -0.2699
 3627W        W 3627   9.714   1.992   1.774  0.0181 -0.2526  0.0138
 3628W        W 3628   5.853   3.929   1.311 -0.2002 -0.1229 -0.0188
 3629W        W 3629   3.440   2.974   9.443 -0.0232  0.0402  0.0854
 3630W        W 3630   5.482   2.979   9.167  0.0941 -0.0705  0.0517
 3631W        W 3631   7.984   8.889   9.837  0.1428  0.1941 -0.1179
 3632W        W 3632   1.511   6.292   7.767  0.2813 -0.2626  0.0766
 3633W        W 3633   7.119   4.142   0.868  0.0682  0.0904  0.4062
 3634W        W 3634   6.853   9.093   3.572 -0.1415 -0.4640  0.3673
 3635W        W 3635   5.738   3.592   2.288  0.2051 -0.0928  0.2290
 3636W        W 3636   6.039   2.455   4.316  0.3247 -0.1210 -0.2118
 3637W        W 3637   8.363   8.925  10.177 -0.2768 -0.1438  0.0910
 3638W        W 3638   8.804   3.269   8.042 -0.2113  0.0876  0.1657
 3639W        W 3639   2.986   5.408   1.341  0.2438 -0.1959  0.0006
 3640W        W 3640   0.012   0.563   3.510 -0.2187  0.0064 -0.0876
 3641W        W 3641   4.769   4.984   5.631  0.0864 -0.0581 -0.0485
 3642W        W 3642   4.971   4.545   9.605 -0.2451 -0.1598  0.2988
 3643W        W 3643   8.394   3.709   9.074  0.0765  0.3873 -0.3709
 3644W        W 3644   4.288   6.278   8.448  0.2136 -0.3356 -0.0136
 3645W        W 3645   9.425   4.899   6.538  0.0258 -0.1467 -0.1262
 3646W        W 3646   1.697   9.610   0.441 -0.4054 -0.0954 -0.0405
 3647W        W 3647   6.124   4.515   5.517  0.1936  0.0069 -0.0179
 3648W        W 3648   3.227   4.971   6.537  0.0401 -0.1372  0.2168
 3649W        W 3649   4.205   8.069   9.252  0.3197 -0.0965  0.0312
 3650W        W 3650   0.907   4.858   2.622  0.2231 -0.0064 -0.2584
 3651W        W 3651   1.744   9.084   6.690  0.0859 -0.0144 -0.1802
 3652W        W 3652   3.928   9.719   4.981 -0.2222  0.4449  0.0815
 3653W        W 3653   8.391   0.070   6.404 -0.2487 -0.3704 -0.3331
 3654W        W 3654   9.296   7.230   5.383 -0.1673  0.0252  0.0109
 3655W        W 3655   5.984   5.617   4.579 -0.0191  0.0278  0.1481
 3656W        W 3656   2.256   0.975   3.066 -0.2830  0.1245 -0.2015
 3657W        W 3657   7.625   1.453   1.895  0.0462  0.0173 -0.1534
 3658W        W 3658   1.839   3.981   5.504  0.1214 -0.2428  0.0937
 3659W        W 3659   5.426  10.012   8.311 -0.1331  0.2245  0.4287
 3660W        W 3660  10.090   8.044   8.222 -0.1519  0.1218 -0.1520
 3661W        W 3661   2.567   3.948   8.040  0.1227  0.0279  0.2443
 3662W        W 3662   8.289   9.641   8.484 -0.0966 -0.0680  0.0492
 3663W        W 3663   2.944   5.049   8.745 -0.1259 -0.0472 -0.0681
 3664W        W 3664   0.644   1.104   0.848  0.0122  0.1650 -0.0406
 3665W        W 3665   5.781   4.296   6.886 -0.0144  0.1832  0.1118
 3666W        W 3666   8.414   8.808   7.203 -0.2791 -0.1765  0.1265
 3667W        W 3667   4.391   7.907   1.694 -0.1018 -0.0291 -0.1855
 3668W        W 3668   0.684   0.061   5.166 -0.2771 -0.1678 -0.3085
 3669W        W 3669   3.787   4.925   5.915 -0.0736  0.0685  0.2457
 3670W        W 3670   9.705   0.353  10.079  0.1710 -0.0124  0.1886
 3671W        W 3671   0.574   2.160   1.927  0.0833  0.2265  0.0159
 3672W        W 3672   2.129   2.667   2.700 -0.1996 -0.2286 -0.4891
 3673W        W 3673   1.971   5.793   7.352 -0.2086 -0.0671  0.1960
 3674W        W 3674   1.842   2.037   0.028  0.2103  0.0854  0.0460
 3675W        W 3675   3.156   0.902   7.560 -0.0481 -0.0170  0.1746
 3676W        W 3676   3.767   4.946   0.744  0.2190  0.0812  0.2140
 3677W        W 3677   7.918   3.904   8.924 -0.2381  0.1053  0.1045
 3678W        W 3678   7.149   8.798   8.895  0.1370  0.0023  0.0778
 3679W        W 3679   3.729   9.773   6.681 -0.0693  0.1102  0.2207
 3680W        W 3680   2.386   7.787   4.428  0.3848 -0.0793  0.0538
 3681W        W 3681   5.330   4.631   6.267 -0.0426  0.0450  0.2961
 3682W        W 3682  10.172   5.220   8.951  0.0678  0.0588 -0.0901
 3683W        W 3683   9.155   8.987   2.333 -0.0941  0.2435  0.2948
 3684W        W 3684   3.660   2.531   3.903 -0.0815 -0.0615 -0.0926
 3685W        W 3685   1.476   6.680   9.261  0.2628 -0.2342 -0.0476
 3686W        W 3686   2.767   6.767   1.807  0.0685  0.2640 -0.2061
 3687W        W 3687   1.898   3.247   4.501  0.2302  0.0374  0.2641
 3688W        W 3688   3.817   5.300   4.628 -0.2612 -0.1380 -0.2185
 3689W        W 3689   7.478   4.209   2.694 -0.2991 -0.0659  0.0786
 3690W        W 3690   4.177   9.804   3.944  0.2092  0.0390  0.2562
 3691W        W 3691   8.501   3.878   6.695 -0.0237 -0.1943 -0.0173
 3692W        W 3692   2.564   5.144   0.117  0.1020  0.0886  0.0194
 3693W        W 3693   0.950   5.140   8.378  0.0756 -0.0316  0.0314
 3694W        W 3694   0.376   3.954   5.521  0.1201 -0.2769 -0.0409
 3695W        W 3695   1.671   4.725   3.434 -0.0736  0.2178 -0.2516
 3696W        W 3696   5.205   6.804   7.236 -0.0562 -0.0978  0.2171
 3697W        W 3697   6.756   2.737   1.692 -0.0581 -0.1346  0.1545
 3698W        W 3698   3.385   5.245   0.502 -0.4436  0.2276 -0.1118
 3699W        W 3699   3.026   7.493   6.221  0.0990 -0.2301 -0.1950
 3700W        W 3700   0.675   4.866   6.505  0.0098 -0.1062 -0.1289
 3701W        W 3701   1.086   8.056   0.962  0.3591  0.2862 -0.4882
 3702W        W 3702   3.389   8.500   4.102 -0.4124  0.1534  0.0380
 3703W        W 3703   1.372   0.137   4.007 -0.0370  0.0303  0.0996
 3704W        W 3704   4.094   5.169   6.229  0.3870 -0.0576 -0.2860
 3705W        W 3705   9.700   1.640   7.237  0.0272 -0.0432  0.0693
 3706W        W 3706   1.032   2.080   1.649  0.2778  0.1715 -0.0453
 3707W        W 3707   2.889   3.937   7.095 -0.1243 -0.1306 -0.2073
 3708W        W 3708   8.939   2.992   5.777  0.1262 -0.3087  0.2072
 3709W        W 3709   5.004   6.459   9.823  0.3204  0.2269 -0.1040
 3710W        W 3710   2.310   7.832   5.696 -0.3134  0.1027  0.0436
 3711W        W 3711   4.539   1.332   6.611  0.4005 -0.0996  0.4363
 3712W        W 3712   2.470   9.846   7.180  0.1669  0.4209  0.1285
 3713W        W 3713   0.029   6.533   5.549 -0.0005 -0.1615  0.3117
 3714W        W 3714   1.047   2.933   0.348 -0.1073  0.0002  0.2261
 3715W        W 3715   4.610   7.847   4.940 -0.1891 -0.0784  0.0311
 3716W        W 3716   7.734   4.903   6.617  0.2144 -0.3799 -0.2121
 3717W        W 3717   4.145   2.403   9.638  0.1472  0.1059 -0.2094
 3718W        W 3718   5.998   2.951   4.542  0.3804  0.1937  0.3416
 3719W        W 3719   8.235   7.676   5.349  0.1351 -0.1734 -0.0404
 3720W        W 3720   9.818   4.197   7.494  0.2302  0.0202 -0.0722
 3721W        W 3721   2.281   4.161   4.640  0.0096  0.1543  0.0137
 3722W        W 3722   2.746   5.274   5.353  0.4074  0.2293  0.2044
 3723W        W 3723   1.366   4.990   7.572 -0.3458  0.0961  0.2055
 3724W        W 3724   2.654   6.492   6.093  0.0619 -0.2163 -0.0933
 3725W        W 3725   2.610   9.806   4.792 -0.2487  0.1089  0.1026
 3726W        W 3726   6.715   4.827   3.096 -0.1162  0.2313 -0.2026
 3727W        W 3727   6.882   1.352   2.318 -0.0729 -0.0034 -0.3385
 3728W        W 3728   1.224   2.644   4.123  0.2019  0.1154 -0.2366
 3729W        W 3729   7.423   2.844   3.139 -0.1309 -0.2366 -0.1321
 3730W        W 3730   9.358   3.937   6.808  0.0242 -0.1729  0.1839
 3731W        W 3731   5.926   3.639   8.278  0.0313  0.0441  0.4221
 3732W        W 3732   2.681   8.557   4.708  0.5270  0.1420  0.2241
 3733W        W 3733   4.272   4.146   7.588 -0.0594 -0.2685  0.1661
 3734W        W 3734   9.251   6.819   8.108 -0.2245  0.1055 -0.0759
 3735W        W 3735   9.408   6.124   5.263  0.1051 -0.0298  0.1626
 3736W        W 3736   7.254   7.872   9.449 -0.1523  0.0288 -0.1280
 3737W        W 3737   2.237   5.385   3.347 -0.0502 -0.0964 -0.2421
 3738W        W 3738   9.539   1.220  10.135 -0.1816  0.0818 -0.0536
 3739W        W 3739   3.885   1.655   2.852 -0.4389  0.0779 -0.0675
 3740W        W 3740   5.748   9.812   3.820  0.0569 -0.1127  0.1346
 3741W        W 3741   8.304   6.900   7.114  0.0550  0.0268 -0.3414
 3742W        W 3742   7.444   4.566   7.050  0.0333 -0.3039  0.4450
 3743W        W 3743   3.918   3.520   6.399  0.0786  0.0149  0.0025
 3744W        W 3744   9.396   5.001   7.361  0.3456 -0.3421  0.1067
 3745W        W 3745   3.038   1.320   9.200  0.3467 -0.0897 -0.0619
 3746W        W 3746   8.843   1.888   8.575  0.0122 -0.0555  0.1229
 3747W        W 3747   8.762   3.383   3.107  0.0953  0.1213  0.2955
 3748W        W 3748   7.287   4.601   3.107  0.0245  0.2051 -0.0547
 3749W        W 3749   1.790   6.182   5.561  0.2585  0.0850  0.1255
 3750W        W 3750   7.747   4.742   6.148  0.0477  0.0903 -0.1199
 3751W        W 3751   7.242   6.837   9.670 -0.0887  0.2218  0.2434
 3752W        W 3752   4.312   3.855  10.100 -0.1901 -0.1395 -0.1451
 3753W        W 3753   0.860   5.828   0.032 -0.0857  0.0978 -0.0414
 3754W        W 3754   3.868   5.034   2.597  0.2338 -0.0380  0.1709
 3755W        W 3755   8.286   7.206   5.154  0.1235  0.2633 -0.2311
 3756W        W 3756   9.103   9.129   3.956  0.0522  0.0807  0.1092
 3757W        W 3757   8.436   8.044   6.085 -0.0196  0.3458 -0.0738
 3758W        W 3758   7.453   5.065   7.409  0.3023 -0.1050  0.3535
 3759W        W 3759   7.648   9.304   7.520 -0.0012  0.1073 -0.0897
 3760W        W 3760   1.574   6.841   3.384  0.0413  0.2530  0.2218
 3761W        W 3761   1.137   0.714   6.558  0.2801  0.0714  0.1895
 3762W        W 3762   4.777   7.518   7.002 -0.0106 -0.0106  0.1966
 3763W        W 3763   2.831   1.700   1.094 -0.0260  0.0610  0.1560
 3764W        W 3764   9.171   0.636   3.671  0.0141  0.2702 -0.1046
 3765W        W 3765   7.378   1.006   8.994 -0.1248 -0.1604 -0.0723
 3766W        W 3766   4.629   0.456   1.222  0.1683 -0.1758 -0.0775
 3767W        W 3767   7.561  10.297   5.333  0.1651 -0.2566  0.0091
 3768W        W 3768   3.312   0.733   1.154  0.2049 -0.0876  0.1549
 3769W        W 3769   3.402   5.179   6.137  0.1129 -0.1423 -0.2484
 3770W        W 3770   6.334   7.856   4.984  0.0794 -0.2398 -0.0126
 3771W        W 3771   2.160   9.897   5.795  0.2104  0.2609  0.0118
 3772W        W 3772   0.648   0.799   5.945  0.0330 -0.2582  0.1068
 3773W        W 3773   7.782   2.304   8.596  0.1187 -0.0403  0.2230
 3774W        W 3774   0.910   3.731   2.570  0.0285 -0.4947  0.1736
 3775W        W 3775   1.990   2.577   8.246 -0.1147 -0.0350 -0.0249
 3776W        W 3776   7.682   5.247   8.426  0.0094 -0.2755 -0.0572
 3777W        W 3777   8.439   1.479   8.599 -0.1898 -0.3069 -0.0883
 3778W        W 3778   3.250   0.247   8.231 -0.2301  0.1305  0.1354
 3779W        W 3779   7.743   1.608   7.815  0.3083  0.1584 -0.1969
 3780W        W 3780   5.938   8.263   4.203  0.2379 -0.0956  0.1470
 3781W        W 3781   4.390   2.191   6.272 -0.0358  0.3011 -0.0856
 3782W        W 3782   0.469   0.975   0.420  0.1282  0.0760 -0.0129
 3783W        W 3783   3.595   2.367   0.970  0.2158 -0.0933 -0.3309
 3784W        W 3784   1.127   0.603   3.811 -0.1959 -0.1616 -0.2917
 3785W        W 3785   6.742   6.377   5.384 -0.2144  0.2746 -0.3409
 3786W        W 3786   1.397   6.031   5.957  0.1842  0.0891  0.0781
 3787W        W 3787   2.539   9.862   0.547 -0.2076 -0.0263 -0.2454
 3788W        W 3788   4.649   6.713   9.516  0.4630 -0.1233 -0.0071
 3789W        W 3789   4.939   6.150   8.460  0.1129  0.0174 -0.0056
 3790W        W 3790  10.048   2.689   8.978  0.1977  0.2422 -0.2650
 3791W        W 3791   0.811   2.248   5.635 -0.1443  0.0390 -0.0738
 3792W        W 3792   4.343   3.238   9.463  0.0009  0.1341  0.0273
 3793W        W 3793   4.007   7.305   2.296  0.0183  0.1857  0.0718
 3794W        W 3794   0.392   4.035   1.550  0.0081 -0.1137 -0.1827
 3795W        W 3795   1.476  10.151   1.761 -0.0377 -0.2435 -0.0909
 3796W        W 3796   9.995   1.658   3.370 -0.0239  0.0185  0.2641
 3797W        W 3797   8.163   0.491   7.137  0.1253  0.0199  0.1145
 3798W        W 3798   3.495   3.015   9.961 -0.0173 -0.0881  0.1548
 3799W        W 3799  10.139   0.368   2.644  0.0444 -0.3493  0.0421
 3800W        W 3800   3.978   7.209   4.613 -0.0410  0.0139  0.1844
 3801W        W 3801   4.934   1.201   0.683 -0.0846  0.1807 -0.0797
 3802W        W 3802   1.534   2.400   4.405  0.0628  0.3108 -0.0315
 3803W        W 3803   5.248  10.035   4.335  0.1519 -0.2349 -0.1129
 3804W        W 3804   3.793   4.376   6.247  0.2501 -0.1789 -0.0980
 3805W        W 3805   4.175   3.599   5.391 -0.1180  0.1046  0.0555
 3806W        W 3806   2.994   4.693   0.908  0.3132  0.0840  0.1241
 3807W        W 3807   3.381   1.711   7.105  0.0351 -0.2406  0.2196
 3808W        W 3808   8.095   1.612   8.175  0.0859 -0.0265  0.2443
 3809W        W 3809   5.327   0.560   6.293  0.2705  0.1116  0.0821
 3810W        W 3810   2.891   8.750   8.153 -0.0942 -0.0295  0.0969
 3811W        W 3811   1.624   3.942   1.102  0.1530 -0.2717 -0.0184
 3812W        W 3812   0.483   9.845   6.442 -0.1191 -0.0610  0.1553
 3813W        W 3813   7.506   3.316   3.125 -0.1721  0.1055  0.0524
 3814W        W 3814   8.096   3.570   2.190  0.2123 -0.1033  0.4333
 3815W        W 3815   5.420   1.208   5.283  0.1546  0.0746 -0.3070
 3816W        W 3816   6.964   7.218   4.267  0.3509  0.0220 -0.0925
 3817W        W 3817   6.593   5.769   4.432  0.4600  0.1261 -0.1252
 3818W        W 3818   6.887   5.746   1.521  0.1436  0.0746 -0.1351
 3819W        W 3819   5.240   0.671   4.212 -0.1525  0.3587 -0.2929
 3820W        W 3820   8.446   4.429   0.132 -0.3302  0.1088  0.2058
 3821W        W 3821   9.995   8.413   6.670 -0.2026 -0.2822  0.0646
 3822W        W 3822   3.903   1.632   1.025 -0.0359 -0.0420  0.0231
 3823W        W 3823   4.420   6.661   6.701  0.2594 -0.1437 -0.1108
 3824W        W 3824   4.690   7.219   8.311  0.0081 -0.0360  0.1948
 3825W        W 3825   2.240   1.017   9.629 -0.0087  0.1887 -0.3890
 3826W        W 3826   8.825   9.369   6.036 -0.0213  0.0889 -0.1815
 3827W        W 3827   5.022   7.183   7.541  0.2792  0.3428 -0.1582
 3828W        W 3828   8.743   9.381   8.981 -0.2770  0.0403  0.1890
 3829W        W 3829   9.274  10.134   3.154  0.0566 -0.1136 -0.2677
 3830W        W 3830   5.198   5.938   1.676 -0.1996 -0.3472  0.1125
 3831W        W 3831   6.868   3.920   2.719  0.1567 -0.0345 -0.0293
 3832W        W 3832   2.468   1.015   7.008 -0.1113 -0.1239 -0.1291
 3833W        W 3833   3.515   4.638  10.319  0.3189 -0.1505  0.2397
 3834W        W 3834   5.742   9.426   1.318  0.0241  0.0254 -0.2389
 3835W        W 3835   8.610   1.916   6.180  0.1067  0.2062  0.1317
 3836W        W 3836   2.845   6.088   6.406  0.1440  0.2187  0.0020
 3837W        W 3837   8.571   2.699   5.441 -0.0750 -0.0545  0.3042
 3838W        W 3838   8.312   4.569   2.385  0.0531 -0.0029 -0.1016
 3839W        W 3839   2.833   3.635   8.955  0.0706 -0.1555  0.0627
 3840W        W 3840   4.976   5.877   8.930 -0.2787  0.1532  0.0562
 3841W        W 3841   0.769   5.257   6.870 -0.3481  0.1659  0.2210
 3842W        W 3842   2.874   9.449   3.713  0.0556 -0.1967 -0.2429
 3843W        W 3843   7.494   4.417   1.088  0.2424 -0.1730 -0.2142
 3844W        W 3844   8.030   1.448   5.822  0.3534  0.0302  0.2369
 3845W        W 3845   3.129   2.470   7.809 -0.1421  0.4001 -0.0573
 3846W        W 3846   0.712   1.058   8.745  0.1778 -0.0217 -0.0792
 3847W        W 3847   4.054   8.020   5.735  0.0656  0.1925  0.1413
 3848W        W 3848   9.463   4.437   0.553  0.3688  0.0068  0.0688
 3849W        W 3849   2.200   2.375   6.734  0.0618  0.1630 -0.1405
 3850W        W 3850   5.844   2.782   8.439  0.2660 -0.0780  0.1490
 3851W        W 3851   2.636   2.565   0.603 -0.0151  0.0957  0.0628
 3852W        W 3852   4.147   0.151   0.043 -0.0332  0.2672 -0.2256
 3853W        W 3853   0.788   1.510   8.997  0.0923  0.2528 -0.1701
 3854W        W 3854   2.011   6.528   0.435  0.1249 -0.0431 -0.1148
 3855W        W 3855   1.754   0.103   1.454  0.0326 -0.1907  0.1351
 3856W        W 3856   7.314   9.223  10.244 -0.2375  0.1434 -0.0597
 3857W        W 3857   7.963   4.910   8.167  0.1635  0.2988 -0.0181
 3858W        W 3858   0.923   0.224   6.681  0.0497  0.0163  0.0411
 3859W        W 3859   7.346   3.711   3.410 -0.0142  0.0399  0.0310
 3860W        W 3860   0.184   7.820   5.092 -0.0871 -0.0635  0.5170
 3861W        W 3861   9.175   9.152   1.345 -0.0256  0.2114  0.0076
 3862W        W 3862   3.494   0.722   1.608 -0.1614  0.1620  0.0377
 3863W        W 3863   0.297   6.293   5.085  0.0193 -0.2101  0.0830
 3864W        W 3864   1.377   1.759   4.924  0.0934 -0.0040  0.2190
 3865W        W 3865   7.673   4.429   7.925 -0.2375 -0.2684  0.3154
 3866W        W 3866   0.431   2.965   2.393 -0.1553  0.0465 -0.0188
 3867W        W 3867   9.215   4.413   8.734  0.0394 -0.3128 -0.3829
 3868W        W 3868   3.778   8.338   5.420 -0.0809 -0.0928  0.0149
 3869W        W 3869   2.113   5.955   4.309 -0.3660  0.4805 -0.3050
 3870W        W 3870   4.324   7.846   0.021 -0.2409 -0.2096  0.1304
 3871W        W 3871   7.907   0.346   7.519  0.2721  0.0092  0.0080
 3872W        W 3872   8.157   2.353   2.930  0.2519 -0.0235 -0.1075
 3873W        W 3873   4.135   9.511   8.232  0.0812  0.1423 -0.4324
 3874W        W 3874   6.441   7.503   6.835  0.0824  0.1701 -0.2364
 3875W        W 3875   2.061   7.005   7.352 -0.1948  0.0593 -0.2175
 3876W        W 3876   2.129   5.325   5.643 -0.1376  0.2468  0.3577
 3877W        W 3877   6.442   2.622   5.736  0.2340 -0.1309  0.0300
 3878W        W 3878   2.545   0.319   5.995 -0.1671  0.1682  0.3954
 3879W        W 3879   2.996   0.876   1.605  0.0518 -0.1032 -0.0785
 3880W        W 3880   4.058   2.978   9.110 -0.1207  0.0587 -0.2903
 3881W        W 3881   5.059   7.297   1.232 -0.5115  0.1945  0.2479
 3882W        W 3882   3.198   3.211   5.720 -0.0764 -0.0209 -0.0132
 3883W        W 3883   2.833   5.553   6.219 -0.3877 -0.1265  0.0328
 3884W        W 3884  10.132   0.814   1.125  0.0845  0.4340  0.1540
 3885W        W 3885   6.217   0.670   0.969 -0.0207 -0.0145  0.2613
 3886W        W 3886   7.176   0.496   6.900  0.1587 -0.0037 -0.1662
 3887W        W 3887   2.765   0.771   3.129 -0.1249 -0.2464 -0.1670
 3888W        W 3888   0.800   3.969   1.179  0.2137  0.2104 -0.1022
 3889W        W 3889   6.734   8.646   5.991  0.0169  0.3013  0.2676
 3890W        W 3890   1.106   9.907   2.750  0.0308 -0.0851  0.0885
 3891W        W 3891   7.170   9.465   1.739 -0.0731  0.1929 -0.1049
 3892W        W 3892   1.779   8.485   0.377  0.0219 -0.0961  0.2808
 3893W        W 3893   8.162   4.063   2.279  0.1222 -0.0884  0.0802
 3894W        W 3894   0.223   8.584  10.120 -0.1128 -0.0057  0.1159
 3895W        W 3895   1.489   3.014   5.518  0.0715  0.1764  0.0360
 3896W        W 3896   7.661   5.682   8.726  0.3503  0.1117 -0.2223
 3897W        W 3897   0.762   6.159   7.322 -0.0942 -0.2424  0.1597
 3898W        W 3898   6.966   5.503   8.975  0.0521 -0.3092  0.0339
 3899W        W 3899   7.691   7.808   2.781 -0.0969  0.3264 -0.0710
 3900W        W 3900   8.050   1.991   0.322  0.3565 -0.0821  0.0718
 3901W        W 3901   9.661   2.999   2.980  0.1881 -0.0280  0.0621
 3902W        W 3902   3.002   4.740   0.110 -0.0824 -0.1329  0.2303
 3903W        W 3903   5.456   4.921   1.706 -0.1357 -0.0162 -0.1239
 3904W        W 3904   4.768   8.932   8.370  0.0671  0.0339 -0.1687
 3905W        W 3905   9.820   9.725   1.183  0.2336  0.2298  0.0154
 3906W        W 3906   1.409   1.399   1.026 -0.0006 -0.2827 -0.2005
 3907W        W 3907   3.266   2.933   4.072 -0.0303  0.0903  0.1952
 3908W        W 3908   1.278   8.361   4.687 -0.1036 -0.2144  0.0518
 3909W        W 3909   2.317   5.790   2.088  0.0837  0.0329 -0.0624
 3910W        W 3910  10.033   1.084   7.582  0.2123  0.0562  0.1598
 3911W        W 3911   4.671   4.146   2.119 -0.0522  0.0735  0.1149
 3912W        W 3912   2.521   4.317   4.241 -0.0286 -0.3040  0.0883
 3913W        W 3913  10.086  10.159   9.323 -0.5595 -0.2456  0.0444
 3914W        W 3914   1.664   3.344  10.213 -0.1464  0.2643 -0.1795
 3915W        W 3915   5.429   8.990   0.641 -0.1751 -0.0497 -0.0481
 3916W        W 3916   2.204   9.599   6.831  0.2050  0.1451 -0.1670
 3917W        W 3917   0.478   8.804   2.047  0.1749  0.0156 -0.0658
 3918W        W 3918   5.059   7.077   9.395  0.2803 -0.0445  0.1315
 3919W        W 3919   4.935  10.171   8.278  0.0562  0.1363  0.2372
 3920W        W 3920   3.463   6.981   5.085 -0.4890  0.3030 -0.0215
 3921W        W 3921   8.315   8.973   7.753 -0.0810 -0.4214 -0.2526
 3922W        W 3922   0.350   5.353   3.970  0.0619  0.1768 -0.1669
 3923W        W 3923   3.380   9.344   3.739 -0.2925  0.1959  0.0916
 3924W        W 3924   8.265   8.391   3.145 -0.0142 -0.2312 -0.2493
 3925W        W 3925   7.514   3.861   9.245 -0.0898 -0.1530 -0.3261
 3926W        W 3926   1.759   7.082   7.757 -0.2643  0.0125  0.1564
 3927W        W 3927   4.557   8.727   7.074  0.2420  0.1554  0.1645
 3928W        W 3928   0.361   2.926   4.423  0.0303 -0.0718  0.0568
 3929W        W 3929   3.082   8.699   2.942  0.1343  0.0537  0.2084
 3930W        W 3930   3.046   3.764   7.990 -0.2806  0.1308 -0.1013
 3931W        W 3931   6.942   8.535   8.505  0.1105 -0.0196  0.1916
 3932W        W 3932   8.825   6.874   7.642  0.3824 -0.2165  0.1816
 3933W        W 3933   4.571   9.040   5.450 -0.1970  0.2241 -0.0740
 3934W        W 3934   1.741   2.553   9.351 -0.1569 -0.1010 -0.3210
 3935W        W 3935   1.903   8.118   6.146 -0.2276  0.2506 -0.1493
 3936W        W 3936   2.559   7.046   8.403 -0.0010 -0.1887  0.2386
 3937W        W 3937   3.924   9.292   4.743  0.2120  0.1631  0.1662
 3938W        W 3938   3.664   6.269   9.103 -0.1223  0.4230  0.4830
 3939W        W 3939   2.928   1.725   9.761 -0.3294  0.2550  0.0812
 3940W        W 3940   7.734   2.886   9.403 -0.2656 -0.0440  0.0833
 3941W        W 3941   2.445   9.117   7.503 -0.1393 -0.0652  0.1874
 3942W        W 3942   9.063   0.545   4.544 -0.0086  0.3769  0.2614
 3943W        W 3943   4.301   0.592   5.540 -0.0467  0.2269  0.1928
 3944W        W 3944   0.967   1.327   2.267 -0.0149 -0.0466 -0.0376
 3945W        W 3945   2.290   1.399   2.057  0.0505 -0.0146 -0.3027
 3946W        W 3946   7.250   0.003   8.195  0.1753  0.0294  0.0365
 3947W        W 3947   5.057   5.567   6.403 -0.1949 -0.0577  0.1667
 3948W        W 3948   2.182   1.756   7.200 -0.4382 -0.2248 -0.0889
 3949W        W 3949   2.537   3.775   1.222 -0.0636 -0.1646 -0.0528
 3950W        W 3950   4.809   1.474   5.936  0.0339 -0.2180  0.0383
 3951W        W 3951   5.645   3.583   7.447 -0.0024 -0.1442  0.0029
 3952W        W 3952   8.199  10.123   5.003  0.0540 -0.3660 -0.0286
 3953W        W 3953   9.759   3.012   2.429 -0.0702 -0.2416  0.2696
 3954W        W 3954   1.460   9.119   5.949  0.2041 -0.1681  0.0360
 3955W        W 3955   6.594   5.988   4.952 -0.0193 -0.0874 -0.1238
 3956W        W 3956   6.142   5.839   3.609  0.1667  0.1206 -0.0458
 3957W        W 3957   1.948   6.048   0.666 -0.1034  0.1645 -0.1342
 3958W        W 3958   1.126   0.272   9.757 -0.0907 -0.0700  0.1310
 3959W        W 3959  10.225   2.423   6.153  0.0359  0.0497  0.2813
 3960W        W 3960   9.212   2.728   0.942  0.0300 -0.0584  0.0660
 3961W        W 3961   6.609   4.419   6.613 -0.1024  0.3498 -0.1683
 3962W        W 3962   9.460   7.346   0.957  0.3211  0.2336 -0.0132
 3963W        W 3963   8.628   8.805   2.205 -0.0804 -0.2646  0.2630
 3964W        W 3964   3.321   9.349   0.442 -0.4257 -0.0904  0.2255
 3965W        W 3965   8.784   8.837   7.537  0.0480  0.3215  0.4028
 3966W        W 3966   7.040   3.638   4.515 -0.3236  0.0846 -0.3512
 3967W        W 3967   8.558   8.891   4.541  0.0364 -0.4112  0.0864
 3968W        W 3968   5.989   9.281   7.667  0.2448  0.2599  0.3440
 3969W        W 3969   3.757   6.241   4.348  0.0658  0.2897  0.1135
 3970W        W 3970   4.647   6.201   6.622  0.1211  0.1984 -0.2343
 3971W        W 3971   6.821   1.370   6.024 -0.2735  0.0068 -0.5210
 3972W        W 3972   0.294   9.839   4.995 -0.0926  0.0422  0.0985
 3973W        W 3973   0.938   2.873   3.172  0.0859 -0.3415 -0.1076
 3974W        W 3974   3.297   5.690   6.313 -0.1982  0.2927 -0.0873
 3975W        W 3975   7.828   2.822   4.657  0.0234 -0.0637  0.1073
 3976W        W 3976   3.059   1.251   1.955 -0.0741  0.1921  0.1073
 3977W        W 3977   1.023   1.995   9.745 -0.0684  0.1038 -0.1722
 3978W        W 3978   4.593   9.175   7.987  0.0347 -0.1109 -0.1823
 3979W        W 3979   9.838   2.815   7.171  0.0513 -0.0285  0.0163
 3980W        W 3980   8.459   3.331   7.442 -0.3651 -0.1570  0.0891
 3981W        W 3981   7.090   5.367   7.211 -0.0508 -0.0551  0.0754
 3982W        W 3982   5.043   2.560   9.842 -0.3062  0.0571 -0.0932
 3983W        W 3983   0.339   0.228   0.205 -0.0475 -0.1030  0.0893
 3984W        W 3984   1.020  10.129   3.178  0.1832 -0.0002 -0.1365
 3985W        W 3985   8.070   3.157   1.673 -0.0011  0.1120 -0.2252
 3986W        W 3986   1.363   8.740   5.670 -0.3389 -0.0159 -0.1256
 3987W        W 3987   5.872   3.857   9.573  0.0722 -0.0284  0.2013
 3988W        W 3988   8.701   2.193   1.122 -0.0309 -0.0877 -0.3192
 3989W        W 3989   1.951   2.216   2.916  0.5302 -0.0801 -0.3928
 3990W        W 3990   9.438   9.026   2.764 -0.1747 -0.2040 -0.2816
 3991W        W 3991   5.402   3.648   1.940  0.2205 -0.1438 -0.2309
 3992W        W 3992   1.926   1.124   4.783 -0.2827  0.0788 -0.0459
 3993W        W 3993   8.136   2.484   4.848  0.2665 -0.1423  0.1950
 3994W        W 3994   6.462   6.020   1.408 -0.0837  0.0137 -0.0034
 3995W        W 3995   5.132   8.779   0.968  0.0116 -0.4714  0.1447
 3996W        W 3996   6.336   2.654   8.179 -0.2335  0.4242  0.5016
 3997W        W 3997   0.368   9.024   0.148  0.1220 -0.0022 -0.2582
 3998W        W 3998   6.993   2.057   5.371  0.0036  0.0967 -0.0442
 3999W        W 3999   8.617   8.265   9.537 -0.1449 -0.2616 -0.0208
 4000W        W 4000   6.515   4.079   7.199 -0.2895 -0.1234  0.2141
 4001W        W 4001   0.884   2.501   7.007 -0.0642 -0.0076  0.0532
 4002W        W 4002  10.118   6.460   2.640 -0.0326 -0.3282 -0.0745
 4003W        W 4003   0.516   2.706   1.033 -0.1575  0.3495 -0.0409
 4004W        W 4004   5.879   1.150   5.118  0.1244  0.2311  0.0845
 4005W        W 4005   6.315   6.029   2.648  0.0014  0.3150  0.0571
 4006W        W 4006   7.451   6.129   6.583 -0.2356 -0.2008  0.1488
 4007W        W 4007   1.683   2.492  10.303 -0.2328 -0.0899  0.1658
 4008W        W 4008   9.250   6.733   7.017 -0.1098  0.1288  0.0766
 4009W        W 4009   7.195   5.469   0.370  0.0682  0.2594  0.2212
 4010W        W 4010   8.188   2.834   9.105 -0.2221  0.0800 -0.0668
 4011W        W 4011   4.572   6.721   2.791  0.2502 -0.3461 -0.1308
 4012W        W 4012   4.427   4.513   0.465  0.1898  0.1968 -0.3195
 4013W        W 4013   7.148   8.868   0.738  0.1659  0.3641 -0.0996
 4014W        W 4014   7.740   2.674   8.934 -0.1433 -0.1254  0.0233
 4015W        W 4015   6.375   9.861   9.007 -0.3206 -0.1870 -0.1266
 4016W        W 4016   2.512   2.865   2.932  0.2038 -0.1493 -0.0308
 4017W        W 4017   7.016   4.261   1.363 -0.3725 -0.0081  0.2378
 4018W        W 4018   1.601   4.488   9.910 -0.0389 -0.0016  0.1736
 4019W        W 4019   6.005   4.678   1.967 -0.0028  0.0621 -0.1464
 4020W        W 4020   3.568   3.938   6.347 -0.2011  0.0173 -0.3986
 4021W        W 4021   7.065   7.814   2.283 -0.0507  0.1857 -0.0695
 4022W        W 4022   5.621   7.279   8.662 -0.0242 -0.2683 -0.2009
 4023W        W 4023   6.136   8.278   4.793  0.0313  0.1647  0.2567
 4024W        W 4024   0.200   1.615   4.349  0.1247  0.0477 -0.0762
 4025W        W 4025   0.221   7.092   7.256 -0.3160 -0.5432 -0.3422
 4026W        W 4026   1.493   8.025   0.542 -0.1362 -0.0779  0.2512
 4027W        W 4027   4.530   2.145   2.582 -0.3070  0.3402 -0.1929
 4028W        W 4028   8.513   9.940   3.890 -0.0205 -0.0150  0.2837
 4029W        W 4029   2.767   2.406   9.231  0.3452 -0.3184  0.1998
 4030W        W 4030   3.371   4.095   8.135  0.4366 -0.1097  0.0881
 4031W        W 4031   9.620   4.583   1.507  0.0385 -0.3077 -0.0673
 4032W        W 4032   7.451   6.841   0.896 -0.0028  0.0926 -0.1112
 4033W        W 4033   2.545   1.996   6.829  0.1876  0.0487  0.2838
 4034W        W 4034   5.418   7.920   6.494  0.2420  0.1051  0.0884
 4035W        W 4035   6.946   6.709   6.356 -0.0762  0.0798  0.2031
 4036W        W 4036   8.815   9.648   7.519 -0.2552  0.1203 -0.1777
 4037W        W 4037   7.539   3.070   9.798  0.0300  0.0427  0.0927
 4038W        W 4038   6.337   4.720   3.437  0.1269  0.1313  0.1150
 4039W        W 4039   6.898   6.096   9.829 -0.0683 -0.0806  0.2526
 4040W        W 4040   3.509   0.168   8.693 -0.2368 -0.0044  0.0632
 4041W        W 4041   4.250   5.365   6.790  0.2303 -0.2878 -0.1615
 4042W        W 4042   3.646   8.030   8.721 -0.0938 -0.0489 -0.0092
 4043W        W 4043   3.553   4.147   5.872  0.1786  0.2186 -0.0506
 4044W        W 4044   2.913   2.693   3.781  0.3134  0.0838  0.1982
 4045W        W 4045   9.369   2.102   9.567  0.1451 -0.2840 -0.1338
 4046W        W 4046  10.243   9.447   2.889 -0.0704  0.1724  0.1105
 4047W        W 4047   6.042   3.380   4.821  0.2346  0.1166 -0.0491
 4048W        W 4048   7.616   2.752   8.474 -0.0571  0.0778  0.0357
 4049W        W 4049   5.854   0.739   6.991 -0.0288 -0.0128  0.1321
 4050W        W 4050   3.302   9.722   8.197 -0.3515 -0.0891 -0.1981
 4051W        W 4051   4.763   8.071   8.547  0.0442 -0.2851 -0.2168
 4052W        W 4052   4.096   5.404   0.128  0.2296  0.0254 -0.1838
 4053W        W 4053   7.322   2.856   4.169 -0.1538 -0.0084 -0.1831
 4054W        W 4054  10.223   8.326   2.646  0.0774 -0.0152  0.0644
 4055W        W 4055   6.033   0.985   2.673  0.0965  0.1099 -0.1622
 4056W        W 4056   0.486   6.296   8.263  0.3025  0.0952 -0.5666
 4057W        W 4057   6.260   9.542   8.200 -0.0504  0.1231 -0.1730
 4058W        W 4058   2.727   2.359   2.233  0.0823  0.0204 -0.0291
 4059W        W 4059   3.763   9.768   5.576 -0.1007  0.1511  0.0796
 4060W        W 4060   4.189   2.186   5.056 -0.2025 -0.2297  0.1666
 4061W        W 4061   5.101   2.084   9.763 -0.0244  0.3885  0.1226
 4062W        W 4062   2.891   4.678   4.152  0.0559  0.1939 -0.0972
 4063W        W 4063   4.876   2.860   2.114  0.2882 -0.2636  0.5056
 4064W        W 4064   2.748   3.527   5.776 -0.1795 -0.0640 -0.1782
 4065W        W 4065   8.060   5.659  10.033  0.1249  0.0956  0.1219
 4066W        W 4066   2.918   9.391   1.353 -0.0140 -0.1973 -0.1567
 4067W        W 4067  10.059   7.185   2.227  0.1160  0.0352  0.0391
 4068W        W 4068   4.684   3.730   1.728  0.3435 -0.0417 -0.0796
 4069W        W 4069   9.804   8.886   9.880  0.0306 -0.0177  0.1857
 4070W        W 4070   2.493   8.730   3.705 -0.3772  0.1172 -0.0166
 4071W        W 4071   4.724   6.877   7.220 -0.4597 -0.0606 -0.0790
 4072W        W 4072   8.083   2.018   7.758 -0.2908 -0.2863  0.0369
 4073W        W 4073   8.554   1.664   9.423 -0.1140  0.3562  0.1356
 4074W        W 4074   0.958   8.893   3.887  0.1535 -0.0368 -0.2446
 4075W        W 4075   7.809   0.664   1.589  0.3441  0.1428  0.1220
 4076W        W 4076   0.411   1.254   7.609  0.0283 -0.5071  0.3411
 4077W        W 4077   9.503   5.153   8.184 -0.2579 -0.0879 -0.0601
 4078W        W 4078   8.179   8.163   9.600  0.2468 -0.1431  0.0005
 4079W        W 4079   6.248  10.260   1.223 -0.1466  0.1756 -0.1813
 4080W        W 4080   9.970   7.209   6.686  0.2237  0.2111  0.1131
 4081W        W 4081   5.140   0.088   7.415 -0.0428 -0.2155  0.0199
 4082W        W 4082   2.852   5.958   1.684 -0.0915  0.0025 -0.0676
 4083W        W 4083   7.610   6.706   2.631 -0.0116  0.0498 -0.0707
 4084W        W 4084   6.531   6.721   3.679  0.2302  0.1160  0.2110
 4085W        W 4085   0.356   1.818  10.325 -0.2978 -0.0289  0.6052
 4086W        W 4086   6.756   7.984   3.266 -0.2356  0.0071 -0.0350
 4087W        W 4087   3.819   3.920   3.450 -0.0381 -0.0041  0.0601
 4088W        W 4088   4.781   4.215   1.663  0.1817  0.2368  0.5533
 4089W        W 4089   9.922   9.823   3.743  0.1458  0.0497  0.0228
 4090W        W 4090   5.454   2.804   6.241 -0.0347  0.0936  0.1190
 4091W        W 4091   8.367   2.728   5.976  0.0548  0.0554  0.1708
 4092W        W 4092   5.413   8.594   7.520  0.0216  0.3380  0.2308
 4093W        W 4093   2.254  10.333   0.759  0.2606  0.1557 -0.2480
 4094W        W 4094   7.624   7.624   2.281 -0.0277  0.1237  0.0149
 4095W        W 4095   5.784   8.829   0.310  0.1922  0.0910 -0.1089
 4096W        W 4096   2.793   1.135   3.678 -0.2877 -0.0293 -0.1331
 4097W        W 4097   4.106  10.335   9.517 -0.4201 -0.0663 -0.0573
 4098W        W 4098   7.979   0.883   4.195  0.1146  0.2674  0.1379
 4099W        W 4099   1.876   6.482   7.381  0.1733 -0.0829  0.3034
 4100W        W 4100   8.482   1.979   7.361 -0.1558  0.3138 -0.1908
 4101W        W 4101   7.963   9.317   7.883  0.1259 -0.0504 -0.2695
 4102W        W 4102   3.336   6.396   7.816 -0.3106 -0.0043 -0.1227
 4103W        W 4103   4.617   7.673   2.134 -0.1409 -0.0519  0.1315
 4104W        W 4104   0.222   1.728   2.553  0.0564 -0.1593  0.0455
 4105W        W 4105  10.276   0.870   9.292 -0.1497  0.3120 -0.2174
 4106W        W 4106   9.593   6.389   2.768  0.1241 -0.1334  0.2644
 4107W        W 4107   1.923   1.688   4.922 -0.1966  0.2143 -0.1260
 4108W        W 4108   1.412   1.849   1.920  0.1500 -0.3767 -0.0474
 4109W        W 4109   7.952   1.320   8.595 -0.1374  0.0117 -0.0956
 4110W        W 4110   9.955   5.046   3.403  0.2023  0.2667  0.0040
 4111W        W 4111   9.946   1.942   9.671  0.0286 -0.2840 -0.3761
 4112W        W 4112   0.956   9.254   0.308 -0.1591  0.3671 -0.1775
 4113W        W 4113   2.961   2.891  10.131 -0.0822 -0.0475 -0.2019
 4114W        W 4114  10.152   9.556   5.366 -0.0718 -0.0543 -0.1835
 4115W        W 4115   3.330   8.916   4.444  0.5117 -0.0977 -0.1632
 4116W        W 4116   2.770   3.327   2.806  0.0959 -0.4413  0.2376
 4117W        W 4117   1.602   0.200   2.690 -0.1270  0.2402 -0.0464
 4118W        W 4118   1.556   1.864   4.347 -0.3130  0.2228 -0.0807
 4119W        W 4119   5.373   1.397   4.003 -0.2891  0.2569  0.0062
 4120W        W 4120   2.854   0.797   8.493  0.2110  0.1675  0.3795
 4121W        W 4121   1.890   9.476   5.885  0.0275 -0.1450 -0.2248
 4122W        W 4122   2.489   3.150   5.520 -0.0387 -0.0339  0.0716
 4123W        W 4123   4.131   8.917   2.941 -0.0892 -0.1025 -0.1448
 4124W        W 4124   2.542   5.708   5.230  0.1118 -0.0283  0.0355
 4125W        W 4125   4.596   4.806   0.901  0.2756 -0.0316  0.3240
 4126W        W 4126   7.294   2.514   0.243  0.1726 -0.0106  0.1014
 4127W        W 4127   1.552   1.936   2.730  0.2314 -0.2294  0.0264
 4128W        W 4128   0.190   9.834   0.640  0.0945  0.0412  0.2435
 4129W        W 4129   9.357  10.024   8.788  0.0230  0.0117 -0.0053
 4130W        W 4130   3.624   5.278   3.151 -0.1348  0.3605  0.5838
 4131W        W 4131   7.287   0.883   7.789  0.0309 -0.0404 -0.2128
 4132W        W 4132   4.672   8.866   4.749 -0.3128 -0.1184  0.0649
 4133W        W 4133   7.628   0.360   0.565  0.1678 -0.0291 -0.1793
 4134W        W 4134   2.629   4.912   5.047  0.1563 -0.3894 -0.0760
 4135W        W 4135   2.928   8.703   2.426 -0.2282 -0.0003  0.1331
 4136W        W 4136   1.766   4.781   2.854 -0.1358  0.1252  0.0203
 4137W        W 4137   5.684   2.026   1.421 -0.0708 -0.1603  0.2174
 4138W        W 4138   9.443   9.700   8.337 -0.0557  0.0046  0.0664
 4139W        W 4139   0.291   5.748   0.036  0.0247  0.0373 -0.0368
 4140W        W 4140   9.070   2.567   3.462  0.1209  0.3572  0.2715
 4141W        W 4141   4.870   6.670   1.954 -0.1641  0.1572 -0.1565
 4142W        W 4142   7.552   6.913   8.259 -0.0544  0.0165 -0.2392
 4143W        W 4143   9.308   3.441   2.372 -0.1793 -0.2973 -0.2846
 4144W        W 4144   0.352   2.903   6.552  0.2593  0.0570  0.1702
 4145W        W 4145   7.936   2.670   6.981  0.1642  0.3342  0.1439
 4146W        W 4146   6.933   5.758   8.128  0.0370 -0.0004 -0.2034
 4147W        W 4147   9.357   1.042   7.032  0.0546  0.1188  0.1304
 4148W        W 4148   9.947   3.082   0.637  0.1742 -0.0941  0.1577
 4149W        W 4149   9.028  10.317   6.237 -0.0911 -0.1798 -0.0092
 4150W        W 4150   4.166   9.373   7.559  0.0287 -0.3253 -0.0374
 4151W        W 4151   3.109   6.591   6.042  0.0369  0.0204 -0.1784
 4152W        W 4152   8.356   2.328   2.165  0.0042 -0.0679  0.1952
 4153W        W 4153   6.852   6.538   5.853  0.0159  0.1004  0.0347
 4154W        W 4154   1.740   3.097   7.238 -0.1526 -0.1863 -0.0296
 4155W        W 4155   8.759   4.748   1.459 -0.0408 -0.3783 -0.4650
 4156W        W 4156   4.354   4.428   5.566 -0.2031  0.1346  0.0109
 4157W        W 4157   8.526   4.665   1.917 -0.1079  0.2310 -0.0264
 4158W        W 4158   1.863   4.254   3.644  0.2013  0.1758 -0.1200
 4159W        W 4159   6.466   0.347   0.203  0.3189 -0.0909  0.0950
 4160W        W 4160   3.482   5.040   8.763 -0.2173 -0.1365 -0.2810
 4161W        W 4161   3.403  10.226   0.438  0.0870 -0.3633  0.3913
 4162W        W 4162   1.000   0.866  10.126 -0.2421  0.1038  0.1011
 4163W        W 4163   4.955   4.730   6.602 -0.2773 -0.3581 -0.4605
 4164W        W 4164   0.102   5.998   9.444 -0.0380  0.0852 -0.1400
 4165W        W 4165   5.172   9.521   8.906 -0.2451 -0.0211 -0.0567
 4166W        W 4166   4.279  10.067   7.415  0.3032 -0.2212  0.4539
 4167W        W 4167   9.704   4.408   8.019 -0.0612 -0.2700  0.1052
 4168W        W 4168   6.734   5.167   6.965  0.1382 -0.0885  0.0140
 4169W        W 4169   2.440   5.225   6.123 -0.0763  0.0325 -0.1337
 4170W        W 4170   9.753   1.052   0.863 -0.0736  0.0983  0.1907
 4171W        W 4171   8.994   5.438   6.409 -0.2098  0.1432 -0.1045
 4172W        W 4172   1.159   1.591   7.651  0.0290  0.0282  0.1391
 4173W        W 4173   1.614   9.195   8.759  0.0352 -0.1411 -0.2693
 4174W        W 4174   2.034   5.559   2.438 -0.0441  0.2409  0.0404
 4175W        W 4175   3.563   4.668   4.807 -0.2802  0.0227 -0.0482
 4176W        W 4176   4.477   0.325   7.058  0.0076  0.0040 -0.2842
 4177W        W 4177   4.570   7.698   8.317  0.1312 -0.0001 -0.1071
 4178W        W 4178   9.078   9.063   6.446  0.0211 -0.0525 -0.4677
 4179W        W 4179   7.066   0.115   2.880  0.0694  0.4151  0.1660
 4180W        W 4180   0.968   8.839   5.949 -0.0011 -0.3059 -0.0057
 4181W        W 4181   2.684   9.247   2.377  0.1700  0.2786 -0.1052
 4182W        W 4182   3.410   1.311   5.478 -0.1542 -0.2358  0.2938
 4183W        W 4183   2.575   4.777   6.971 -0.1627  0.4134  0.1073
 4184W        W 4184   0.050   7.124   8.303 -0.0636  0.2551  0.1490
 4185W        W 4185   7.070   9.898   0.467  0.2565  0.3836 -0.1301
 4186W        W 4186   6.059   2.617   0.819  0.3470  0.1322 -0.1830
 4187W        W 4187   1.875   2.606   8.742 -0.2836 -0.2462 -0.0011
 4188W        W 4188   6.056   7.045   3.032  0.1736  0.2137  0.0260
 4189W        W 4189   8.012   8.603   0.891  0.3237 -0.1065 -0.1820
 4190W        W 4190   4.815   2.086   1.767  0.0958  0.2945  0.1147
 4191W        W 4191   0.640   2.911   6.968 -0.1714 -0.2747 -0.0756
 4192W        W 4192   6.236   6.484   8.796  0.1099  0.0062  0.0023
 4193W        W 4193   7.851   9.926   2.534  0.0557  0.2129 -0.0778
 4194W        W 4194   1.951   1.515   4.220 -0.3153 -0.2028  0.2730
 4195W        W 4195   2.835   4.957   9.976  0.0206  0.2737  0.0100
 4196W        W 4196   0.176   6.465   1.840 -0.1498  0.1331 -0.0469
 4197W        W 4197   2.410   5.451   2.837  0.0367  0.1530 -0.1830
 4198W        W 4198   2.780   8.323   0.604 -0.2887  0.0205 -0.2625
 4199W        W 4199   2.118   9.376   6.347 -0.0022  0.2841 -0.1062
 4200W        W 4200   0.159   1.336   4.807 -0.0811  0.0826 -0.1117
 4201W        W 4201   9.671   0.070   9.628  0.1137  0.1554 -0.2463
 4202W        W 4202   7.343   7.522   2.969  0.2068  0.5714  0.4219
 4203W        W 4203   2.053   2.905   1.305  0.1402 -0.1046 -0.2121
 4204W        W 4204   5.369   9.597   7.171  0.3680  0.3128 -0.0684
 4205W        W 4205   5.496   1.146   2.086 -0.0062  0.1130  0.2626
 4206W        W 4206   3.493   6.231   0.367  0.1500  0.2514  0.3108
 4207W        W 4207   1.603   9.642   5.113  0.0229  0.2354 -0.0937
 4208W        W 4208   2.280   0.567  10.039  0.0188 -0.2252 -0.0364
 4209W        W 4209   3.875   7.031   0.552 -0.2641 -0.3219  0.1678
 4210W        W 4210   5.465   6.252   9.455  0.1915  0.1851  0.1787
 4211W        W 4211   3.992   8.837   0.908 -0.2745  0.1090  0.0471
 4212W        W 4212   8.338   8.096   5.570 -0.1112 -0.2753 -0.0398
 4213W        W 4213   9.325   5.859   6.996  0.2269  0.0632 -0.2109
 4214W        W 4214   7.637   3.059   5.565  0.3100 -0.2232 -0.2600
 4215W        W 4215   9.919  10.199   0.846  0.1239  0.0985 -0.0798
 4216W        W 4216   7.685   8.398   7.725 -0.1074  0.1597 -0.4076
 4217W        W 4217   5.931   8.238   0.208  0.1263 -0.1702 -0.2102
 4218W        W 4218   1.387   4.081   9.149 -0.1937 -0.1983  0.1181
 4219W        W 4219   4.897   2.920   1.594 -0.2477 -0.1376 -0.2711
 4220W        W 4220   7.310   9.422   3.207  0.0416 -0.0306 -0.2376
 4221W        W 4221   7.243   4.805   5.853  0.0320 -0.3597  0.0408
 4222W        W 4222   6.320   6.525   3.096 -0.0220  0.0258 -0.3156
 4223W        W 4223   7.398   0.989   1.516 -0.3365 -0.1432  0.1103
 4224W        W 4224   9.916   0.399   5.936 -0.2416 -0.1807 -0.2306
 4225W        W 4225   4.228   4.005   9.241 -0.1083 -0.2503 -0.0023
 4226W        W 4226  10.223   1.599   7.423  0.2976  0.0547 -0.0402
 4227W        W 4227   5.340  10.187   5.639  0.6005 -0.1611  0.0155
 4228W        W 4228   4.275   3.079   1.012  0.0868 -0.0627  0.0783
 4229W        W 4229   4.568   0.320   4.054 -0.0927  0.2906 -0.1718
 4230W        W 4230   8.087   6.263   5.359 -0.2340  0.1481 -0.1231
 4231W        W 4231   7.772  10.232   0.302  0.1341  0.0715  0.0299
 4232W        W 4232   6.415   7.526   1.454 -0.2259 -0.1937  0.0649
 4233W        W 4233  10.192   1.959   0.921  0.0388  0.3107 -0.0936
 4234W        W 4234   7.550   7.783   8.462 -0.2930  0.3608  0.0506
 4235W        W 4235   8.636   1.309   1.629  0.2296 -0.3599 -0.0729
 4236W        W 4236   4.237   7.393   7.965  0.2864  0.2717  0.3234
 4237W        W 4237   2.580  10.141   5.662 -0.1460 -0.0387  0.3088
 4238W        W 4238   4.964   6.486   6.915  0.0615 -0.0615  0.0534
 4239W        W 4239   9.678   4.632   8.472 -0.2373 -0.0891  0.0256
 4240W        W 4240   6.523   0.748   3.920  0.1167 -0.0077  0.1148
 4241W        W 4241   1.976   3.233   9.822 -0.0102  0.0425 -0.3530
 4242W        W 4242   8.566   1.887   3.432 -0.0327 -0.1790  0.0277
 4243W        W 4243   7.751   7.218   4.938  0.1217  0.0505  0.1650
 4244W        W 4244   8.017   0.011   7.220  0.0270  0.0560 -0.1841
 4245W        W 4245   8.768   0.295   9.279 -0.0831 -0.2675 -0.0018
 4246W        W 4246   7.030   8.758   9.635  0.1026 -0.1091 -0.1894
 4247W        W 4247  10.313   0.743   7.374  0.4924 -0.2207  0.0701
 4248W        W 4248  10.187   4.568   7.653  0.2797  0.1575  0.1784
 4249W        W 4249   1.788   7.774   1.187  0.0412 -0.3426 -0.1238
 4250W        W 4250   8.017   7.542   0.080 -0.1160 -0.0555  0.0265
 4251W        W 4251   2.241   1.966   7.635 -0.0728  0.2803  0.0941
 4252W        W 4252   9.305   4.695  10.232 -0.1615 -0.0862  0.1241
 4253W        W 4253   0.217   6.565   1.173  0.2202 -0.1345 -0.1855
 4254W        W 4254   4.998   8.887   7.558  0.1937 -0.2961 -0.0826
 4255W        W 4255   1.579  10.237   4.993 -0.0511 -0.0327 -0.2914
 4256W        W 4256   9.972   0.420   0.794  0.0875 -0.2723  0.1752
 4257W        W 4257   5.048   1.911   5.249 -0.0553 -0.0097 -0.1341
 4258W        W 4258   0.830   0.681   0.298 -0.2527 -0.0819 -0.1803
 4259W        W 4259   3.051   0.120   6.994 -0.0102  0.1744  0.1327
 4260W        W 4260   7.682  10.054   9.488  0.1201 -0.2574  0.2562
 4261W        W 4261   7.572   4.395   5.232  0.0144  0.1889  0.2981
 4262W        W 4262   1.621   5.957   3.587 -0.0033  0.2760 -0.0769
 4263W        W 4263   7.914   0.996   5.700  0.1549 -0.3323 -0.1383
 4264W        W 4264   7.429   7.791   9.963  0.0703  0.3166 -0.3686
 4265W        W 4265   5.301   0.696   1.909  0.2756 -0.3962 -0.1573
 4266W        W 4266   5.404   3.572   3.237  0.4093  0.0171  0.1687
 4267W        W 4267   1.824   2.233   7.843  0.0784  0.1455 -0.2721
 4268W        W 4268   7.387   0.949   3.081  0.3513  0.0040  0.0123
 4269W        W 4269  10.062   0.137   0.125 -0.2120 -0.2326 -0.1748
 4270W        W 4270   7.754   6.595   4.548 -0.0898 -0.1962 -0.3175
 4271W        W 4271  10.293   0.896   0.658 -0.0481 -0.1922 -0.3312
 4272W        W 4272   3.791   3.875   9.044 -0.0044  0.1219  0.1721
 4273W        W 4273   7.426   7.565   5.130  0.2785  0.0939  0.0883
 4274W        W 4274   0.532   6.592   5.549 -0.0618 -0.1231  0.0671
 4275W        W 4275   6.596   7.181   0.133  0.1965  0.1259 -0.2377
 4276W        W 4276   6.874   0.510   2.048  0.2217 -0.0791  0.0614
 4277W        W 4277   1.568   5.225   5.716  0.0039  0.2402 -0.2466
 4278W        W 4278   7.319   7.907   7.497  0.2138  0.0051 -0.0883
 4279W        W 4279   1.460   0.701   3.257 -0.2742  0.1791  0.2397
 4280W        W 4280  10.197   1.993   5.949 -0.1298  0.2690 -0.0372
 4281W        W 4281   0.258   4.601   9.559  0.0306 -0.1623 -0.0382
 4282W        W 4282   0.195   8.934   4.375  0.1170 -0.1028  0.0793
 4283W        W 4283   9.913   0.403   3.709 -0.0006 -0.3315  0.0452
 4284W        W 4284   4.237   4.488   7.978 -0.0800 -0.0755 -0.2116
 4285W        W 4285   0.446   8.910   2.843 -0.0647 -0.0327  0.0890
 4286W        W 4286   7.578   8.877   7.834 -0.1190 -0.1909 -0.2449
 4287W        W 4287   9.176   0.162   9.559 -0.0836  0.2670 -0.0775
 4288W        W 4288   5.537   2.547   1.667 -0.1685 -0.2289  0.3524
 4289W        W 4289   1.780   2.047   5.867 -0.1883  0.2819 -0.3547
 4290W        W 4290   5.488   3.296   6.290 -0.0809  0.5782 -0.0938
 4291W        W 4291   4.167   5.647   7.774  0.0388  0.3405 -0.1756
 4292W        W 4292   2.279   4.094   1.635 -0.1632 -0.2298  0.4355
 4293W        W 4293   2.493   5.878   3.519 -0.2323  0.1134  0.2012
 4294W        W 4294   7.795   9.502  10.341 -0.2225 -0.0130  0.2351
 4295W        W 4295   7.645   2.890   1.865  0.1641 -0.0173 -0.2526
 4296W        W 4296   5.074   8.259   6.094 -0.1623  0.0318  0.3398
 4297W        W 4297   1.436   7.930   0.059  0.0380  0.0918  0.1572
 4298W        W 4298   0.424   3.059   7.416 -0.1278  0.1261 -0.2616
 4299W        W 4299   4.522   3.982   5.664 -0.1003  0.1139  0.0672
 4300W        W 4300   4.701   6.390   1.393 -0.0348 -0.1027 -0.0682
 4301W        W 4301   1.851   4.658   7.753 -0.1002 -0.3100  0.0257
 4302W        W 4302   5.972   0.431   5.800  0.0443 -0.1615  0.2434
 4303W        W 4303   3.123   4.994   5.625 -0.0561  0.0391 -0.0047
 4304W        W 4304  10.094   6.650   5.105 -0.0785 -0.2948  0.2688
 4305W        W 4305   3.351   5.714   0.556  0.1546  0.0165 -0.4627
 4306W        W 4306   6.090   8.478   7.273  0.3169  0.0515  0.0822
 4307W        W 4307   2.370   9.947   1.194 -0.0148 -0.1790 -0.1501
 4308W        W 4308   7.634   4.681   0.676  0.0037 -0.0579  0.0026
 4309W        W 4309   4.204   4.685   6.159  0.0334  0.0909 -0.0465
 4310W        W 4310   9.506   0.993   7.902 -0.2482 -0.0592 -0.0511
 4311W        W 4311   5.649   6.832   7.553 -0.2017 -0.0501  0.0881
 4312W        W 4312   2.671   1.879   5.905 -0.5001  0.3072 -0.0778
 4313W        W 4313   4.952   2.962   7.575 -0.2134  0.0264 -0.3868
 4314W        W 4314   2.692   2.581   7.533  0.1697 -0.1730 -0.0498
 4315W        W 4315   7.811   5.018   7.081 -0.2904 -0.1382  0.2123
 4316W        W 4316   8.127   9.531   1.652 -0.0724  0.2606  0.0441
 4317W        W 4317   1.945   5.365   6.130  0.0382 -0.3049 -0.0462
 4318W        W 4318  10.330   1.293   2.611  0.1852 -0.0840 -0.2645
 4319W        W 4319   0.074   8.093   1.310 -0.0804 -0.0140  0.1339
 4320W        W 4320   1.547   3.938   1.624 -0.0803 -0.1265 -0.0336
 4321W        W 4321   9.347   0.646   5.014 -0.0078 -0.0474  0.0607
 4322W        W 4322   4.051   6.461   9.885  0.0157 -0.0194  0.0477
 4323W        W 4323   8.155   1.881   9.716 -0.3362  0.3345  0.0959
 4324W        W 4324   9.700   1.531   5.327 -0.2645  0.1936  0.3269
 4325W        W 4325   1.625   3.868   3.440 -0.1477 -0.1933  0.3299
 4326W        W 4326   1.637   0.390   3.638 -0.0756 -0.0358 -0.0690
 4327W        W 4327   8.024   7.912   9.163  0.0675  0.0642  0.0224
 4328W        W 4328   6.278   9.309   7.258 -0.0297  0.0316 -0.0519
 4329W        W 4329   1.825   0.296   4.131 -0.1504 -0.2718  0.4059
 4330W        W 4330  10.283   8.906   4.898 -0.1999 -0.0706  0.0330
 4331W        W 4331   7.869   7.491   1.322  0.2360 -0.1557  0.0234
 4332W        W 4332   1.849   4.926   6.453  0.1768  0.1340 -0.0773
 4333W        W 4333   4.362   6.607   0.705 -0.0303 -0.2457  0.1085
 4334W        W 4334   1.828   2.215   7.370  0.1639 -0.2911 -0.2007
 4335W        W 4335   1.943   5.472   0.671  0.0245  0.1376 -0.1452
 4336W        W 4336   0.860   3.016   4.415 -0.1120  0.1134 -0.0296
 4337W        W 4337   7.301   6.587   6.822 -0.0560  0.1829  0.1414
 4338W        W 4338   5.118   5.591   0.098  0.0709 -0.6022 -0.0931
 4339W        W 4339   5.225   2.706   3.093  0.0499  0.0556  0.1473
 4340W        W 4340   9.189   3.165   4.150 -0.0210  0.0261  0.0876
 4341W        W 4341   9.499   0.326   1.745 -0.2778  0.0119  0.0684
 4342W        W 4342   8.585   1.830   1.979 -0.0157 -0.0839  0.3300
 4343W        W 4343   0.935   5.967   8.420 -0.1405  0.2159 -0.1043
 4344W        W 4344   2.344   1.340   3.914  0.2667  0.0194 -0.0688
 4345W        W 4345   1.796   6.647   2.851 -0.0876  0.1694 -0.1158
 4346W        W 4346   4.263   8.258   7.423  0.2661  0.0068 -0.1599
 4347W        W 4347   0.688   4.675   7.121  0.2202 -0.0315  0.1191
 4348W        W 4348   4.088   6.675   3.098 -0.1000  0.1450 -0.0295
 4349W        W 4349   7.579   0.961   9.920  0.0934  0.1483 -0.0154
 4350W        W 4350  10.000   5.154   2.029 -0.0392 -0.0211 -0.1060
 4351W        W 4351   7.595   7.240   6.703  0.1586 -0.0561 -0.2304
 4352W        W 4352   4.668   4.943   2.194  0.3026 -0.0829  0.0229
 4353W        W 4353   1.172   5.791   7.351 -0.1781 -0.0744 -0.0008
 4354W        W 4354   9.127   0.683   8.965  0.1373  0.0211 -0.1454
 4355W        W 4355   7.415   1.957   1.209  0.1861  0.0604 -0.0969
 4356W        W 4356   0.773   7.952   6.983 -0.2132  0.1202  0.1506
 4357W        W 4357   1.766   9.365   3.782  0.0417  0.0240 -0.2744
 4358W        W 4358   3.915   7.402   5.090  0.0898  0.2406 -0.1723
 4359W        W 4359   6.152   7.788   1.858 -0.2432  0.0204  0.0633
 4360W        W 4360   2.042   6.232   2.459  0.2123 -0.5233  0.0064
 4361W        W 4361   8.529   1.172   9.681  0.0036  0.0749 -0.1493
 4362W        W 4362   2.657   0.577   3.570  0.0675  0.1222 -0.1524
 4363W        W 4363   3.790   7.578   0.557  0.0471 -0.0910  0.0954
 4364W        W 4364   5.200   8.927   5.469 -0.2442 -0.0857  0.1980
 4365W        W 4365   3.515   3.326   4.186 -0.2216  0.1812  0.0698
 4366W        W 4366   2.534   1.131   4.315  0.0693  0.1697 -0.0842
 4367W        W 4367   3.704   7.845   3.483 -0.3571 -0.0272  0.2492
 4368W        W 4368   5.025   9.878   6.380 -0.0315  0.1834 -0.2377
 4369W        W 4369   7.376   4.323   2.044  0.1170  0.1859 -0.2764
 4370W        W 4370   1.416   4.976   2.050  0.0720  0.0467 -0.0279
 4371W        W 4371   8.448   3.310   6.022 -0.1426  0.0401 -0.0304
 4372W        W 4372   6.200  10.272   3.170 -0.0857 -0.1282  0.1042
 4373W        W 4373   5.225   7.060   6.805  0.0329  0.0790 -0.1477
 4374W        W 4374   8.313   4.314   6.981  0.4031  0.1354 -0.0499
 4375W        W 4375  10.101   2.436   0.785 -0.1291 -0.3117 -0.1344
 4376W        W 4376   8.381   1.912   1.486  0.2196  0.3227 -0.0008
 4377W        W 4377   8.715   7.742   9.787 -0.0368  0.0981  0.0887
 4378W        W 4378   1.083   9.634   4.882  0.3584 -0.1793  0.1750
 4379W        W 4379   5.773   9.857   1.644 -0.0593  0.1304 -0.0051
 4380W        W 4380   5.628   0.859   1.010 -0.0263 -0.0534 -0.1380
 4381W        W 4381   3.994   8.069   0.460  0.1435  0.2341 -0.1707
 4382W        W 4382   0.702   5.278   4.981  0.2068  0.3254 -0.0675
 4383W        W 4383   1.603   1.276   2.711 -0.2264 -0.1152 -0.0103
 4384W        W 4384   7.486   2.105   9.859 -0.1216  0.1731  0.0592
 4385W        W 4385   3.800   7.635   8.025 -0.0931  0.2512  0.2420
 4386W        W 4386   8.725   8.191   2.077  0.0652  0.1380 -0.2085
 4387W        W 4387  10.103   8.697   4.321 -0.1295 -0.2132  0.0122
 4388W        W 4388   8.804   0.418   4.990 -0.4408  0.0443 -0.0171
 4389W        W 4389   2.341   4.322   3.800  0.0149 -0.2549  0.1946
 4390W        W 4390   6.294   7.169   3.497 -0.0206 -0.0013 -0.0262
 4391W        W 4391   7.913   6.207   3.593 -0.0152  0.3324 -0.1552
 4392W        W 4392   6.068   6.597   6.692 -0.3042 -0.2970  0.4203
 4393W        W 4393   3.500   1.815   3.656  0.1058  0.2930 -0.2085
 4394W        W 4394   5.675   9.359   6.902 -0.1504  0.0906  0.0761
 4395W        W 4395   0.018   6.963   4.621 -0.1906  0.0114  0.0155
 4396W        W 4396   5.449   9.161   1.658 -0.2368  0.0966 -0.1338
 4397W        W 4397   0.442   4.131   9.392  0.0595  0.1904 -0.1882
 4398W        W 4398   8.404   9.901   4.563 -0.0053 -0.0028  0.0922
 4399W        W 4399   2.278   0.923   0.907 -0.3766  0.0229  0.2358
 4400W        W 4400   8.752   8.406   8.523  0.1167  0.0972  0.0801
 4401W        W 4401   1.850   1.329   3.755  0.0190  0.0404  0.0374
 4402W        W 4402   9.049   6.488   0.596 -0.0983  0.2986 -0.1280
 4403W        W 4403   7.330   7.440   1.276 -0.1983  0.2557  0.0090
 4404W        W 4404   7.352   8.007   7.019  0.2048 -0.3425  0.0526
 4405W        W 4405   7.296   3.458   2.341 -0.0880 -0.2452 -0.1264
 4406W        W 4406   3.526   1.964   8.983  0.2825  0.1838 -0.1208
 4407W        W 4407   5.767  10.131   7.796  0.1208 -0.0990 -0.1535
 4408W        W 4408   2.916   5.545   0.297  0.1856  0.2141  0.1079
 4409W        W 4409   0.077  10.023   6.692  0.0664  0.0760 -0.2677
 4410W        W 4410   8.848   2.604   1.304 -0.0403 -0.0064 -0.0059
 4411W        W 4411   8.571   1.520   3.082  0.0012  0.0221  0.0379
 4412W        W 4412   9.852   5.018   9.230  0.0618  0.1422 -0.0219
 4413W        W 4413   7.228   4.943   0.303 -0.0676  0.0188 -0.3094
 4414W        W 4414   4.891  10.345   4.219  0.3079 -0.0487  0.0207
 4415W        W 4415   7.374   8.362   5.959  0.0715 -0.0871 -0.3502
 4416W        W 4416   1.600   6.466   2.475  0.0382  0.0680 -0.0218
 4417W        W 4417   3.958   7.595   2.792  0.0377 -0.1018  0.1507
 4418W        W 4418   6.690   6.218   3.542  0.0140  0.1467  0.1509
 4419W        W 4419   7.712   9.230   1.324  0.3355 -0.2085 -0.0646
 4420W        W 4420   4.881   0.955   3.324 -0.0281  0.0136  0.1757
 4421W        W 4421   1.921   4.225   2.087  0.2097  0.0029  0.0038
 4422W        W 4422   9.110   3.334  10.195  0.0588 -0.3483  0.1806
 4423W        W 4423   1.195   3.844   1.997  0.0709  0.0753 -0.0581
 4424W        W 4424   4.494   5.996   9.265  0.0340  0.0426 -0.0952
 4425W        W 4425   1.279   2.235   4.899  0.1735 -0.1756 -0.0999
 4426W        W 4426   1.404   2.482   1.854  0.0161 -0.0911  0.5943
 4427W        W 4427   4.642   2.946   3.294 -0.3008  0.1084  0.1213
 4428W        W 4428   8.920   6.469   5.096  0.0596  0.0443  0.1337
 4429W        W 4429   2.737   2.120   0.819 -0.1464 -0.1687 -0.1937
 4430W        W 4430   9.944   8.704   2.453 -0.1425  0.1643 -0.0393
 4431W        W 4431   7.276   8.732   2.248  0.2393  0.2222  0.0964
 4432W        W 4432   4.323   3.859   4.667  0.3022  0.3262  0.0211
 4433W        W 4433   1.515   4.194   8.162 -0.4605  0.1087  0.4628
 4434W        W 4434   5.732   8.786   6.035 -0.0743  0.3149 -0.0263
 4435W        W 4435   5.654   0.097   5.396 -0.0293 -0.0307 -0.0363
 4436W        W 4436   3.703   1.049   8.752 -0.0207 -0.1096  0.1086
 4437W        W 4437   3.806   4.274   2.027  0.2574  0.2702  0.2475
 4438W        W 4438   6.368   4.238   7.672  0.3534 -0.2603 -0.1217
 4439W        W 4439   0.250   8.401   4.237 -0.2396 -0.0670 -0.2720
 4440W        W 4440   4.865   5.702   0.727  0.1050 -0.3309 -0.4744
 4441W        W 4441   2.002   3.375   1.586 -0.1002 -0.1413  0.3339
 4442W        W 4442   3.405   9.786   3.403  0.3028  0.0951  0.2044
 4443W        W 4443   4.054   4.167   0.727 -0.5948 -0.0066  0.1315
 4444W        W 4444   8.195   9.117   3.622 -0.3679 -0.3253  0.0106
 4445W        W 4445   3.835   9.322   9.832 -0.3182 -0.0332 -0.1533
 4446W        W 4446   3.395   0.998  10.099 -0.2217  0.0904  0.1701
 4447W        W 4447   5.156   5.676   8.074  0.1971  0.0113  0.2567
 4448W        W 4448   8.207   6.417   5.993  0.1168  0.0472 -0.1633
 4449W        W 4449   6.125   9.304   5.274 -0.0122  0.3299  0.2916
 4450W        W 4450   2.134   0.760   5.079 -0.1179 -0.1100  0.0661
 4451W        W 4451   6.011   6.978   7.879  0.4078  0.1744  0.0279
 4452W        W 4452   8.775   9.237   8.493 -0.1199  0.2300  0.0840
 4453W        W 4453   3.573   9.369   4.323  0.1897  0.0482  0.1519
 4454W        W 4454   5.754   6.148   3.659 -0.0391 -0.2123  0.1247
 4455W        W 4455   1.226   4.938   7.089 -0.2578  0.0130 -0.3246
 4456W        W 4456   6.345   6.948   6.167 -0.1674 -0.3934  0.2847
 4457W        W 4457   3.297   4.299   1.249 -0.1836 -0.0247 -0.2107
 4458W        W 4458   3.977   7.742   8.935  0.1317  0.1748 -0.0597
 4459W        W 4459   9.190   0.329   5.946 -0.1767  0.1007  0.1045
 4460W        W 4460   0.088   9.391   4.469  0.0926  0.0142  0.1125
 4461W        W 4461   9.408   7.197   8.392 -0.0126  0.0138  0.0899
 4462W        W 4462   7.840   7.511   9.897  0.1249 -0.2124  0.0124
 4463W        W 4463   4.107   3.372   4.886  0.1223  0.0232  0.1420
 4464W        W 4464   8.256   0.673   6.011  0.0763  0.0436 -0.1914
 4465W        W 4465   5.632   6.125   6.780  0.0503 -0.0608  0.0861
 4466W        W 4466   3.660   5.948  10.292 -0.0859  0.2165  0.2395
 4467W        W 4467   2.881   6.060   7.997  0.1884  0.0513  0.0215
 4468W        W 4468   1.765   3.252   0.386  0.2647  0.0635  0.1034
 4469W        W 4469   1.331   0.465  10.135  0.1939 -0.3475  0.0988
 4470W        W 4470   4.858   8.083   6.594 -0.2229 -0.0908 -0.0500
 4471W        W 4471   8.937   7.910   1.654  0.2307  0.0287  0.2320
 4472W        W 4472   5.626   0.964   0.063  0.0637  0.1523  0.0766
 4473W        W 4473   6.221   8.656   4.311  0.0762  0.0276 -0.3243
 4474W        W 4474   0.458   8.583   1.587  0.1488 -0.2391  0.0869
 4475W        W 4475   4.274   1.588   4.537  0.4048 -0.2085 -0.1038
 4476W        W 4476   7.636   0.803   0.165 -0.2271  0.1975 -0.1383
 4477W        W 4477   5.151   9.194   7.991 -0.0391  0.1521  0.1643
 4478W        W 4478   8.859   2.088   2.999 -0.3939  0.1240 -0.1653
 4479W        W 4479   4.294   3.083   2.805 -0.0929 -0.2595  0.0876
 4480W        W 4480   4.459   5.882   8.670  0.1096 -0.0378 -0.0586
 4481W        W 4481   9.229   1.123   5.293 -0.2487  0.3109  0.0711
 4482W        W 4482   2.352   2.521   5.166 -0.0456 -0.0213 -0.0624
 4483W        W 4483   8.712   1.387   5.320 -0.0616  0.2238  0.0075
 4484W        W 4484   8.209   1.933   4.797  0.0431 -0.0642  0.1290
 4485W        W 4485   1.499   3.453   1.655 -0.1729  0.0719  0.1556
 4486W        W 4486   0.574  10.345   4.255  0.1047 -0.0900 -0.2629
 4487W        W 4487   1.138   2.986   1.824 -0.1171  0.1586  0.1613
 4488W        W 4488   0.050   3.109   9.719  0.1616  0.0242  0.0193
 4489W        W 4489   8.496   1.385   6.050 -0.4107 -0.2524  0.2416
 4490W        W 4490   7.947   5.698   4.274 -0.0114 -0.1648  0.1623
 4491W        W 4491  10.171   5.315   3.027 -0.1084 -0.4914  0.0465
 4492W        W 4492   4.387   1.452   6.160 -0.1105  0.1229 -0.1433
 4493W        W 4493   5.499   1.057   4.399 -0.2197  0.3569  0.0635
 4494W        W 4494   9.090   3.187   1.133 -0.0712  0.0003  0.0679
 4495W        W 4495   8.991   2.180   9.900  0.1137 -0.0580  0.1531
 4496W        W 4496   2.410   2.167   2.741  0.2407 -0.0086 -0.0635
 4497W        W 4497   6.556   8.475   5.054  0.0260 -0.0782 -0.0088
 4498W        W 4498   8.045   1.441   3.316  0.2322 -0.1641 -0.0336
 4499W        W 4499   4.568   8.509   8.550 -0.0019  0.1774  0.3082
 4500W        W 4500   7.601   7.581   5.708 -0.3678  0.0406 -0.1975
 4501W        W 4501   6.877   8.175   5.765  0.3101 -0.1943  0.1331
 4502W        W 4502   8.699   3.791   6.228 -0.0613  0.2056 -0.0546
 4503W        W 4503   6.134   5.148   4.799 -0.0415 -0.0571  0.0868
 4504W        W 4504   9.620   5.498   5.685 -0.1064  0.1584  0.1011
 4505W        W 4505   2.747   3.975   3.911 -0.0856  0.0708  0.0263
 4506W        W 4506   7.762   6.683   5.163  0.0560 -0.2033 -0.2547
 4507W        W 4507   9.552   0.332   5.582 -0.4501  0.0711 -0.1820
 4508W        W 4508   5.814  10.255   6.486  0.0445  0.1368 -0.2521
 4509W        W 4509   7.059   7.357  10.171  0.1690 -0.2645 -0.0298
 4510W        W 4510   3.462   3.907   4.512  0.0875 -0.1729  0.3669
 4511W        W 4511   0.057   1.812   7.901 -0.3861 -0.1829  0.2466
 4512W        W 4512   0.065   5.333   8.159 -0.1608 -0.2913 -0.3637
 4513W        W 4513   3.554   5.117   2.207  0.3134  0.1282  0.0151
 4514W        W 4514   4.677   3.915   6.160  0.1810 -0.1593 -0.0038
 4515W        W 4515   9.465   3.010   0.689  0.1047  0.0194 -0.1117
 4516W        W 4516   6.093   1.184   0.911  0.1398  0.2496  0.1412
 4517W        W 4517   7.990   8.440   0.079 -0.2934  0.0011  0.0178
 4518W        W 4518   8.483   4.125   1.769  0.2089  0.2324  0.0086
 4519W        W 4519   4.071   6.046   5.900 -0.0908  0.0288 -0.0978
 4520W        W 4520   5.980   6.384   9.716 -0.0244 -0.0845 -0.0241
 4521W        W 4521   5.337   4.021   0.157 -0.1287  0.1076 -0.1496
 4522W        W 4522   1.669   1.033   9.578  0.1747 -0.0628 -0.1372
 4523W        W 4523   9.876   2.341   0.059  0.4926  0.3058  0.0323
 4524W        W 4524   5.177   4.952   3.714  0.2132  0.0189  0.2087
 4525W        W 4525   0.734   1.516   4.245 -0.1404  0.3755 -0.0350
 4526W        W 4526   8.774   0.634   5.840  0.0876 -0.0649 -0.1342
 4527W        W 4527   3.799   7.863   6.160 -0.1701 -0.1128  0.0861
 4528W        W 4528   5.185   4.134   1.917  0.0527 -0.0360  0.1225
 4529W        W 4529   1.367   2.944   3.431  0.2233  0.0600  0.3808
 4530W        W 4530   2.583   5.086   3.198  0.0177  0.0508 -0.0822
 4531W        W 4531   4.121   5.472   7.281  0.0695 -0.1108  0.0563
 4532W        W 4532   8.029   9.634   9.553  0.0583 -0.1156 -0.2192
 4533W        W 4533   6.448   1.620   7.334 -0.2439 -0.3094 -0.0134
 4534W        W 4534   3.225   6.680   7.368 -0.0820  0.0565  0.0049
 4535W        W 4535   9.217  10.084   4.628 -0.3838  0.3141  0.1153
 4536W        W 4536   9.898   9.637   3.227  0.0181  0.3977 -0.1101
 4537W        W 4537   8.878   1.100   3.848 -0.2108  0.3023 -0.0597
 4538W        W 4538   4.768   0.449   5.473  0.2007 -0.2395 -0.1335
 4539W        W 4539   0.457   9.790   6.965  0.1402  0.0642 -0.0382
 4540W        W 4540   0.690   4.906   1.347 -0.0235  0.0682 -0.0153
 4541W        W 4541   5.765   6.839   4.825  0.0224  0.0146 -0.2276
 4542W        W 4542   6.291   5.093   2.981  0.0417  0.0743 -0.1757
 4543W        W 4543   1.024   8.409   8.913 -0.3227 -0.0401 -0.1082
 4544W        W 4544   5.652   6.695   5.677  0.0121 -0.1167 -0.0651
 4545W        W 4545   2.655   0.015   0.420 -0.0523  0.1143 -0.0061
 4546W        W 4546   8.358   3.310   9.966  0.1647 -0.0652 -0.1219
 4547W        W 4547   5.522   4.367   1.082  0.0409 -0.0170 -0.3572
 4548W        W 4548   4.288   8.112   8.715 -0.0523  0.0589 -0.0335
 4549W        W 4549   9.019  10.345   2.483  0.1692 -0.1952 -0.1754
 4550W        W 4550   4.275   6.907   8.206 -0.0782 -0.1788  0.1996
 4551W        W 4551   9.723   2.795   0.209 -0.0670 -0.4888 -0.0555
 4552W        W 4552   2.981   7.194   5.228 -0.0380  0.0829 -0.0126
 4553W        W 4553   0.536   9.756   2.361 -0.0749  0.3159  0.1510
 4554W        W 4554  10.241   1.756   3.809 -0.2013 -0.1806  0.1981
 4555W        W 4555   3.571   8.762   9.192 -0.0230 -0.0322  0.1648
 4556W        W 4556   6.042   3.431   6.220 -0.1242  0.3789 -0.2115
 4557W        W 4557   2.370   7.771   1.852  0.0678  0.0007  0.0126
 4558W        W 4558   6.124   1.492   7.036 -0.0857 -0.1367  0.1904
 4559W        W 4559   5.572   9.252   5.908 -0.0289  0.0438  0.2207
 4560W        W 4560   4.931   6.533   0.348  0.3914  0.1881  0.1676
 4561W        W 4561   5.965   8.689  10.238  0.1550 -0.1520 -0.0283
 4562W        W 4562   7.224   3.694   1.070 -0.2029  0.0342  0.2177
 4563W        W 4563   5.865   2.406   0.343 -0.0445 -0.0503 -0.0461
 4564W        W 4564   7.537   3.111   8.908 -0.0742 -0.2897 -0.2807
 4565W        W 4565   4.465   8.435   1.612  0.0945  0.4711 -0.1259
 4566W        W 4566   9.376   0.250   3.921 -0.2039  0.0984 -0.0540
 4567W        W 4567   1.796   3.361   3.322  0.0180  0.2302 -0.1320
 4568W        W 4568   2.554   0.314   1.046  0.0170 -0.1162 -0.2159
 4569W        W 4569   8.031   0.409   0.228  0.3755  0.3345  0.0022
 4570W        W 4570   5.425   6.310   3.348 -0.5233  0.1184  0.0472
 4571W        W 4571   5.373   7.691   3.266 -0.0695 -0.2093  0.0593
 4572W        W 4572   1.134   6.070   9.449 -0.1849  0.0976  0.1948
 4573W        W 4573   3.163   2.448   0.760 -0.2042 -0.3053 -0.2964
 4574W        W 4574   6.284   1.075  10.342  0.3524  0.0770 -0.1088
 4575W        W 4575   7.990   8.807   2.952  0.0500 -0.2080 -0.2194
 4576W        W 4576   0.445   0.064   9.679 -0.1192 -0.0672  0.0857
 4577W        W 4577   6.100   6.655   4.440  0.2774  0.3035  0.1735
 4578W        W 4578   7.584   4.119   5.673 -0.4902 -0.0489 -0.3374
 4579W        W 4579   7.478   8.508   3.137 -0.0125  0.1674  0.0907
 4580W        W 4580   3.415   1.482   4.005  0.2543  0.0039 -0.0304
 4581W        W 4581   0.307   3.487   0.214 -0.0565 -0.0862  0.0176
 4582W        W 4582   0.193   0.986   3.315 -0.2001  0.0692 -0.0111
 4583W        W 4583   6.398   2.647   2.851  0.1224 -0.1021  0.0801
 4584W        W 4584   6.368   1.120   3.661 -0.2380 -0.3198 -0.0264
 4585W        W 4585   8.418   2.460   7.885  0.1385 -0.0949  0.0845
 4586W        W 4586   8.389   3.331   6.942  0.2738  0.2685 -0.1789
 4587W        W 4587   7.566   7.230   0.608 -0.3229  0.1151  0.0321
 4588W        W 4588   1.124   4.794   1.159 -0.0526 -0.1114  0.5089
 4589W        W 4589   4.276   1.796   1.693  0.0033  0.1407  0.0997
 4590W        W 4590   0.434   6.554   6.436 -0.2475  0.1326 -0.0063
 4591W        W 4591   6.117   1.002   2.202  0.0495  0.0047 -0.2504
 4592W        W 4592   7.305   3.035   2.640  0.0792 -0.0050 -0.0105
 4593W        W 4593   0.310   2.422   6.399 -0.1215  0.1086 -0.1337
 4594W        W 4594   1.919   0.739   3.393  0.2818  0.1518  0.1758
 4595W        W 4595   0.076   9.600   9.624 -0.1678  0.0889 -0.0569
 4596W        W 4596   9.272   5.168   3.933  0.0478  0.1753  0.0454
 4597W        W 4597   5.542   2.105   9.459  0.1943 -0.1673  0.4370
 4598W        W 4598   5.414   6.861   3.253 -0.0977 -0.3115  0.1989
 4599W        W 4599   2.812   2.222   7.177  0.2272  0.1701 -0.3383
 4600W        W 4600   2.169   6.485   5.217 -0.0125  0.1775  0.3995
 4601W        W 4601   9.512   1.143   1.365  0.1638  0.0866  0.2236
 4602W        W 4602   7.618   9.030   8.857  0.2302  0.0523  0.1100
 4603W        W 4603   0.314   3.127   6.135  0.3131  0.1316 -0.1688
 4604W        W 4604   5.654   5.597   4.187 -0.1642  0.0510 -0.1040
 4605W        W 4605   7.143   4.806   9.568 -0.0082 -0.0650 -0.1694
 4606W        W 4606  10.006   2.259   1.280  0.0923  0.0652  0.0096
 4607W        W 4607   4.979   1.278   3.633 -0.0482  0.1162  0.1457
 4608W        W 4608   8.325   0.953   3.113 -0.0719 -0.1125  0.0984
 4609W        W 4609   1.884   8.629   1.460 -0.0802 -0.0428  0.2023
 4610W        W 4610   6.669   9.815   6.693  0.2388  0.0817 -0.2056
 4611W        W 4611   5.732   1.207   3.772 -0.0085  0.3211 -0.1293
 4612W        W 4612   1.585   7.202   7.279  0.2270  0.1063  0.1438
 4613W        W 4613   5.985   1.056   3.321 -0.2800 -0.0684  0.0132
 4614W        W 4614   0.248   8.111   0.500  0.0752 -0.0218 -0.1446
 4615W        W 4615   5.382   6.843   0.300 -0.0334  0.2513 -0.1900
 4616W        W 4616   5.189   1.485   4.493 -0.3310 -0.0240 -0.2358
 4617W        W 4617   4.167   7.874   5.101 -0.1094 -0.1014 -0.2500
 4618W        W 4618   7.057   7.711   1.804 -0.0217  0.1331  0.1536
 4619W        W 4619   2.517   1.151   9.190 -0.2792 -0.0689 -0.1684
 4620W        W 4620   6.998   2.138   6.872  0.1202  0.1076  0.2321
 4621W        W 4621   9.733   1.561   0.206  0.4604 -0.0468  0.1288
 4622W        W 4622   8.482   3.525   4.025 -0.0823  0.0939  0.0098
 4623W        W 4623   5.627   5.915   7.255 -0.0320  0.3259 -0.0949
 4624W        W 4624   1.104   1.615   7.120 -0.0917  0.0416  0.0835
 4625W        W 4625   9.256   4.685   8.230 -0.1701  0.3143  0.0788
 4626W        W 4626   7.460   1.822   5.165 -0.2492 -0.1205 -0.2688
 4627W        W 4627   2.101   9.894  10.116 -0.0437 -0.2851 -0.1721
 4628W        W 4628   2.323   5.248   3.805 -0.0804 -0.2009 -0.3586
 4629W        W 4629   9.863   8.586   1.939 -0.0683  0.3254  0.1081
 4630W        W 4630   4.780   6.453   0.903 -0.0695  0.0261  0.2914
 4631W        W 4631   9.933   0.747   0.187 -0.3014  0.5856  0.1563
 4632W        W 4632   1.501   1.565   2.309 -0.0378 -0.3032  0.0833
 4633W        W 4633   6.688   3.171   2.003 -0.0612  0.0394  0.3823
 4634W        W 4634   8.818   2.135   0.569 -0.1275  0.0987  0.1503
 4635W        W 4635   9.002   1.089   9.803 -0.2167 -0.3219 -0.0062
 4636W        W 4636   5.205   3.969   4.598  0.0148  0.0617 -0.0879
 4637W        W 4637   3.771   8.755   2.549 -0.0552 -0.1642 -0.2206
 4638W        W 4638   6.406   1.633   9.661 -0.1582 -0.0380  0.1785
 4639W        W 4639   5.290   3.095   4.097  0.0720  0.1110  0.1323
 4640W        W 4640   1.670   3.427   1.189 -0.1868 -0.2570  0.3535
 4641W        W 4641   4.567   2.386   5.516  0.1762 -0.1193 -0.1304
 4642W        W 4642   2.156  10.310   4.037 -0.0710  0.2797 -0.0414
 4643W        W 4643   2.477  10.312   4.666  0.0600 -0.1205 -0.2615
 4644W        W 4644   7.794   5.460   7.920 -0.0708  0.1753  0.3340
 4645W        W 4645   5.528   8.533   1.045 -0.3780 -0.0531  0.0695
 4646W        W 4646   5.332   7.431   1.905 -0.4954 -0.0643  0.3528
 4647W        W 4647   7.754   1.769   8.723 -0.1919  0.0452 -0.0047
 4648W        W 4648   2.657   4.130   8.966 -0.1751  0.1317 -0.3218
 4649W        W 4649   7.515   5.249  10.311 -0.0739  0.0633 -0.2986
 4650W        W 4650   6.068   0.720   3.719 -0.0469  0.1613 -0.0203
 4651W        W 4651   6.503   5.448   6.536  0.0836 -0.0971  0.0434
 4652W        W 4652   3.640   6.628   2.903 -0.0196 -0.1464 -0.0892
 4653W        W 4653   2.132   7.413   6.644  0.0014  0.0741  0.1190
 4654W        W 4654   5.234   6.386   5.540 -0.3727 -0.2191 -0.0328
 4655W        W 4655   2.768   6.923   5.818  0.1894  0.0269  0.0663
 4656W        W 4656   1.136   8.046   4.177  0.0949 -0.0805  0.3568
 4657W        W 4657   2.007   5.684   3.828  0.2350  0.3144  0.1598
 4658W        W 4658   8.723   6.669   7.094 -0.0777  0.3641  0.0637
 4659W        W 4659   5.568   1.684   7.983 -0.2264 -0.3384  0.0713
 4660W        W 4660   4.169   2.989   3.368  0.1605  0.0291 -0.1274
 4661W        W 4661   2.581   4.872   2.215 -0.0759 -0.1122 -0.1371
 4662W        W 4662   7.170   5.535   1.183 -0.1092 -0.1889  0.2044
 4663W        W 4663   6.697   6.591   2.270  0.2271 -0.1332 -0.1056
 4664W        W 4664   1.699   9.645   6.797 -0.2286 -0.1001  0.0214
 4665W        W 4665   9.261   5.688   2.090  0.0414  0.0511 -0.4329
 4666W        W 4666   9.897   1.065   2.156  0.1639 -0.0181  0.0117
 4667W        W 4667   6.265   3.190   5.268 -0.1555 -0.1754  0.2936
 4668W        W 4668   1.429   4.982   0.006  0.2745 -0.0724 -0.3121
 4669W        W 4669   3.960   3.323   8.163  0.4459 -0.0050  0.0908
 4670W        W 4670   8.838   5.404   2.897 -0.1946 -0.0003 -0.0393
 4671W        W 4671   6.390   5.176   5.396  0.2396  0.0770  0.2243
 4672W        W 4672   6.041   5.850   4.125 -0.0519 -0.0019  0.1231
 4673W        W 4673   0.917   7.933   4.648 -0.0211 -0.0638 -0.0274
 4674W        W 4674   4.563   2.077   3.860  0.0301 -0.1574  0.1182
 4675W        W 4675   6.640   8.018   1.870 -0.4221  0.0405 -0.2465
 4676W        W 4676   4.380   4.866   5.296  0.0026  0.0072 -0.1369
 4677W        W 4677   1.622   4.478   0.291  0.4712 -0.0495 -0.0096
 4678W        W 4678   2.204   9.998   8.769 -0.0087 -0.1488  0.2954
 4679W        W 4679   2.970   6.029   0.584 -0.0044 -0.0673  0.1299
 4680W        W 4680  10.220   9.144   4.012 -0.0190  0.3344 -0.0534
 4681W        W 4681   7.328   6.202   1.542  0.3042 -0.0724 -0.0852
 4682W        W 4682   5.718   2.725   3.317  0.0497  0.0146 -0.1006
 4683W        W 4683   5.931   2.510   4.847 -0.0290  0.4712  0.2295
 4684W        W 4684   2.262   9.460   0.420  0.2752  0.1810 -0.0096
 4685W        W 4685   0.759   6.164   0.428  0.0364 -0.0740 -0.0399
 4686W        W 4686  10.041   7.358   4.855  0.0174 -0.0639  0.2984
 4687W        W 4687   1.025   1.113   5.455  0.0076  0.2236  0.1872
 4688W        W 4688   3.845   4.218   4.672 -0.2170 -0.0130 -0.0054
 4689W        W 4689   7.996   2.733   7.797  0.1953 -0.1648  0.0700
 4690W        W 4690   2.725   2.364   4.849 -0.1049 -0.0801 -0.0639
 4691W        W 4691   1.678   0.494   5.041  0.0596 -0.2178 -0.1663
 4692W        W 4692   0.121   7.429   6.419 -0.1789  0.0362 -0.0457
 4693W        W 4693   0.010   9.700   4.039  0.2613 -0.0668 -0.0622
 4694W        W 4694   1.274   6.978   7.846 -0.1607 -0.1406 -0.0159
 4695W        W 4695   8.547   4.247   3.292 -0.1622  0.4751  0.2224
 4696W        W 4696   4.728  10.053   0.720  0.1987  0.1982 -0.1216
 4697W        W 4697   9.325   6.747   5.309 -0.0849 -0.2583  0.0104
 4698W        W 4698   7.682   9.305   9.835 -0.0093  0.3249 -0.0580
 4699W        W 4699   8.264   6.093   6.372 -0.0953  0.2161  0.4499
 4700W        W 4700   9.590   5.299   2.238  0.2856 -0.0397  0.0770
 4701W        W 4701   3.391   8.223   9.881  0.1622  0.2892 -0.0616
 4702W        W 4702   1.102   3.902   3.251  0.1346 -0.0271 -0.0585
 4703W        W 4703   3.936   0.944   3.463 -0.0673  0.0679  0.2502
 4704W        W 4704   9.708   4.963   1.181 -0.1542  0.1344  0.1443
 4705W        W 4705   8.253   9.220   5.360 -0.0351 -0.4064  0.1849
 4706W        W 4706   3.366   9.637   5.170 -0.0308 -0.2867  0.0992
 4707W        W 4707   9.155   9.368  10.134 -0.0857  0.0286 -0.0370
 4708W        W 4708   8.538   8.410   4.217  0.1832  0.1380 -0.0341
 4709W        W 4709   9.859   5.090   7.445 -0.2688 -0.1561 -0.0561
 4710W        W 4710   1.993   8.737  10.295  0.0930 -0.1603  0.2081
 4711W        W 4711   3.821   5.861   7.221  0.0980 -0.0929 -0.0904
 4712W        W 4712   1.094   9.854   0.877  0.0337  0.0310  0.1171
 4713W        W 4713   4.490   5.174   8.602  0.0167 -0.2154 -0.0681
 4714W        W 4714   5.828   7.406   9.951 -0.0785  0.2562 -0.0825
 4715W        W 4715   5.603   7.857   7.950 -0.0495 -0.1230  0.1296
 4716W        W 4716   4.181   5.240   4.291  0.0169 -0.0187  0.1076
 4717W        W 4717   4.358   8.305   0.732  0.0457 -0.1930  0.0423
 4718W        W 4718   1.214   7.435   0.033 -0.1303  0.1484  0.2415
 4719W        W 4719   2.678   6.286   5.131  0.1237 -0.0758 -0.0763
 4720W        W 4720   0.807   7.732   7.870 -0.1020  0.1095  0.1052
 4721W        W 4721   0.686   1.492   2.670  0.2653  0.0373  0.1482
 4722W        W 4722   0.097   7.854   2.484 -0.1682  0.0979 -0.0388
 4723W        W 4723   0.139   9.113   1.457  0.1321  0.1277  0.2518
 4724W        W 4724   0.461   9.929   9.694  0.1840  0.0789  0.1210
 4725W        W 4725   8.672   2.456   3.212 -0.4017  0.2538 -0.1151
 4726W        W 4726   5.903   3.286   3.261 -0.3256 -0.1009 -0.1177
 4727W        W 4727   1.780   2.719   3.283 -0.0210  0.2559 -0.0375
 4728W        W 4728   9.776   9.654   8.715 -0.3618 -0.2638 -0.2321
 4729W        W 4729   2.323   3.716   5.635 -0.0281 -0.0362  0.0577
 4730W        W 4730   9.098   8.214   3.183 -0.2587 -0.1022  0.2422
 4731W        W 4731   6.798   8.522   1.654 -0.2413 -0.0529 -0.0042
 4732W        W 4732   9.565   2.457   2.707  0.1290 -0.2370  0.0446
 4733W        W 4733   6.547   1.450   0.979 -0.1869 -0.2822  0.1038
 4734W        W 4734   8.272   8.512   2.332 -0.0036  0.3760  0.2027
 4735W        W 4735   4.730   4.262   7.944 -0.0620 -0.0218  0.0200
 4736W        W 4736   9.356   4.864   0.741 -0.0192 -0.0098  0.2567
 4737W        W 4737   0.392   4.865   4.224  0.1943  0.0788  0.2439
 4738W        W 4738   5.986   0.576   1.931  0.1361  0.3422 -0.2034
 4739W        W 4739  10.037   0.970   6.008  0.3240 -0.2200 -0.0178
 4740W        W 4740   0.406   6.137   5.533 -0.1140  0.4188  0.2941
 4741W        W 4741   2.648   0.100   3.362  0.1004  0.0881 -0.0164
 4742W        W 4742   3.520   9.417   0.942 -0.1131 -0.3126 -0.1492
 4743W        W 4743   5.845   8.938   7.281 -0.1536 -0.2083  0.4273
 4744W        W 4744   7.256   0.267   3.428  0.0432  0.0087 -0.0893
 4745W        W 4745   4.476   2.062   4.317 -0.0978  0.2928 -0.3638
 4746W        W 4746   1.299   1.249   4.959 -0.2288 -0.1393 -0.2028
 4747W        W 4747   8.313   8.434   7.791  0.1874  0.2861 -0.0489
 4748W        W 4748   3.428   2.838   2.592  0.1318 -0.1720  0.2836
 4749W        W 4749   1.887   1.362   5.332  0.1701 -0.1733  0.0084
 4750W        W 4750  10.110   4.725   7.051  0.2362  0.0023 -0.3547
 4751W        W 4751   1.458   8.202   5.497  0.5285 -0.4759 -0.0687
 4752W        W 4752   1.795   2.653   5.704  0.1374  0.4637  0.0821
 4753W        W 4753   5.861   9.533   3.350 -0.1887  0.1400  0.1665
 4754W        W 4754  10.188   2.516   2.089  0.1822 -0.1604 -0.0636
 4755W        W 4755   6.245   6.838   2.129 -0.1660 -0.2585  0.1867
 4756W        W 4756   4.178   0.086   1.905 -0.1328  0.1910  0.1080
 4757W        W 4757   8.733  10.274   2.871 -0.0700  0.1160  0.1511
 4758W        W 4758   7.831   1.866   3.909  0.0849 -0.0655 -0.2280
 4759W        W 4759   6.234   5.118   6.284  0.0724  0.0038  0.2906
 4760W        W 4760   6.727   8.594   4.587  0.0059 -0.4482  0.0358
 4761W        W 4761   8.632   0.450   8.820  0.1566  0.0197 -0.0131
 4762W        W 4762   8.352   5.853   8.665  0.0884  0.0242  0.0763
 4763W        W 4763   2.305   9.797   8.233 -0.1513  0.1058 -0.0394
 4764W        W 4764   0.880   3.508   2.982 -0.1781 -0.2622 -0.0240
 4765W        W 4765   1.147   9.573   1.554 -0.2853  0.3049  0.0425
 4766W        W 4766   6.445   0.730   7.081 -0.1405 -0.2023  0.0212
 4767W        W 4767   8.133   8.388   1.844 -0.1008 -0.1229  0.3472
 4768W        W 4768   5.702   6.794   6.971 -0.1196  0.0948 -0.0422
 4769W        W 4769   3.544   0.758   9.676 -0.1195 -0.1437 -0.0302
 4770W        W 4770   0.620   0.329   3.872  0.4003  0.1134  0.1256
 4771W        W 4771   3.718   6.055   4.883 -0.1428 -0.1849  0.2691
 4772W        W 4772   6.305   7.048   7.059  0.2484 -0.0138  0.1955
 4773W        W 4773   8.157   3.007   1.179 -0.1215 -0.0860 -0.1093
 4774W        W 4774   0.208   2.087   2.948  0.1577  0.0173 -0.3010
 4775W        W 4775   5.634   5.115   0.770  0.0376  0.0259  0.3440
 4776W        W 4776   6.478   7.119   4.393 -0.3052 -0.0921  0.1342
 4777W        W 4777   4.330   4.270   4.980  0.0151  0.1539  0.0034
 4778W        W 4778   0.223   0.075   2.578 -0.3601  0.0925 -0.0388
 4779W        W 4779   0.705   8.328   0.655  0.1556 -0.1909 -0.0251
 4780W        W 4780   6.758   6.217   8.689 -0.0566 -0.2930  0.0401
 4781W        W 4781   9.980   1.923   6.523  0.2254 -0.0453 -0.0740
 4782W        W 4782   2.668  10.135   4.162  0.5430 -0.3901  0.3648
 4783W        W 4783   2.283   0.939   3.611 -0.1634 -0.3457  0.2311
 4784W        W 4784   8.347   9.621   5.823 -0.1861 -0.1381  0.0903
 4785W        W 4785   2.561   9.245   5.552 -0.1758  0.1140  0.0740
 4786W        W 4786   9.552   9.616   4.517  0.3055 -0.0094 -0.1105
 4787W        W 4787   2.681   1.365   8.287 -0.0295  0.0689 -0.3000
 4788W        W 4788   8.633   9.322   6.681 -0.1744 -0.1339  0.1562
 4789W        W 4789   3.681   0.704   0.779  0.0685  0.0667 -0.0020
 4790W        W 4790   6.793   8.115   9.512 -0.1925 -0.3184  0.1463
 4791W        W 4791   6.222   9.416   2.967 -0.1196  0.0325  0.3114
 4792W        W 4792   4.400   2.710   7.311  0.0005  0.0516 -0.3158
 4793W        W 4793   3.269   8.615   5.807 -0.1342 -0.1057  0.1475
 4794W        W 4794   7.530   3.348   9.348  0.0001 -0.2465  0.0097
 4795W        W 4795   5.201   3.715   4.144 -0.1103  0.2159 -0.2032
 4796W        W 4796   3.446   2.784   5.178 -0.1767 -0.0095 -0.0059
 4797W        W 4797   1.283   8.845   9.296  0.0491 -0.1001  0.2981
 4798W        W 4798   1.444   1.387   6.216  0.4802 -0.0671 -0.0735
 4799W        W 4799   8.092   1.942  10.197  0.1122  0.1481 -0.1398
 4800W        W 4800   3.340   2.706   1.185  0.0771  0.2872 -0.6058
 4801W        W 4801   4.087   8.897   5.368  0.3683  0.1563  0.1432
 4802W        W 4802   3.357   1.637  10.129 -0.2531 -0.0755  0.0739
 4803W        W 4803   6.201   3.705   3.301  0.3611 -0.1577  0.0300
 4804W        W 4804   9.827   4.553   4.823  0.0255 -0.1688  0.1359
 4805W        W 4805   3.759   7.159   8.003  0.5789 -0.1315  0.0430
 4806W        W 4806   2.359   6.550   5.674 -0.0558 -0.0995 -0.0949
 4807W        W 4807   6.061   9.099   4.570  0.1115  0.0520  0.2303
 4808W        W 4808   3.730   3.188   4.650 -0.0115  0.2106 -0.1921
 4809W        W 4809   8.346   0.003   9.077  0.1006 -0.2064 -0.1584
 4810W        W 4810   6.395   5.575   7.789 -0.1625  0.1209 -0.0198
 4811W        W 4811   1.769   4.531   6.821  0.5241  0.1065 -0.4107
 4812W        W 4812   4.413   5.369   5.464  0.2114 -0.0218  0.0039
 4813W        W 4813   3.902   2.007   2.004 -0.1650  0.2201  0.0236
 4814W        W 4814   5.002   2.707   5.634  0.0366 -0.0850 -0.6195
 4815W        W 4815   5.338   3.572   6.674  0.0302 -0.2592  0.1734
 4816W        W 4816   8.075   3.704   1.739  0.0682  0.2376 -0.1899
 4817W        W 4817   9.777   6.403   1.724  0.0301  0.0300  0.0164
 4818W        W 4818   3.226   4.724   1.930 -0.1538  0.0821  0.3198
 4819W        W 4819   5.015   2.253   9.255 -0.2657 -0.1507 -0.0435
 4820W        W 4820   7.127   0.793   3.503  0.3307 -0.2063 -0.0882
 4821W        W 4821   3.971   9.037   5.812 -0.0407  0.0353  0.0062
 4822W        W 4822   9.910   9.148   7.339 -0.0595 -0.1275 -0.1398
 4823W        W 4823   0.682   8.529  10.006 -0.1024 -0.1366  0.3770
 4824W        W 4824   0.600   8.089   6.516 -0.2440 -0.1018 -0.1308
 4825W        W 4825   1.793   3.768   9.097 -0.1529 -0.0092  0.0637
 4826W        W 4826   0.392   8.634   4.694  0.0544 -0.1833 -0.0622
 4827W        W 4827   1.033   7.992   9.237 -0.0186 -0.1370  0.0038
 4828W        W 4828   1.960   6.424   3.445  0.0513  0.0048  0.3245
 4829W        W 4829   3.878   1.313   5.301  0.1663  0.0039 -0.1109
 4830W        W 4830   8.945   9.858   8.535  0.1665 -0.0563  0.2494
 4831W        W 4831   1.593   6.538   1.765  0.0293  0.0083 -0.0216
 4832W        W 4832   3.679   8.717   5.060 -0.2212 -0.1974  0.3000
 4833W        W 4833   1.773   0.633   9.832 -0.2261 -0.0771 -0.2362
 4834W        W 4834   1.599   4.712   8.229  0.1381 -0.0988  0.2821
 4835W        W 4835   5.741   7.092   5.268 -0.0695 -0.1889  0.1963
 4836W        W 4836  10.194   3.695   6.798  0.2158 -0.0826  0.0938
 4837W        W 4837   8.108   5.360   8.796  0.2325 -0.0876  0.2628
 4838W        W 4838   0.668   0.318   5.861  0.0889 -0.1322 -0.0206
 4839W        W 4839   5.726   0.872   1.652  0.1307 -0.3885  0.0759
 4840W        W 4840   6.882   0.387   3.816 -0.0306  0.1005 -0.1079
 4841W        W 4841   4.627   4.195   8.963  0.1801 -0.0385  0.1761
 4842W        W 4842   0.764   7.229  10.070  0.1729  0.1880  0.2673
 4843W        W 4843   6.354   3.269   8.849 -0.1826  0.2416 -0.2758
 4844W        W 4844   2.418   4.697   7.641  0.0627  0.0479 -0.2685
 4845W        W 4845   2.634   7.364   6.628  0.0044 -0.0172 -0.1096
 4846W        W 4846   1.561   8.174   1.058 -0.1072  0.0129  0.0331
 4847W        W 4847   5.519   6.136   2.370  0.0336  0.3122 -0.0639
 4848W        W 4848   8.344   6.637   0.445 -0.0415  0.2398 -0.1143
 4849W        W 4849   2.468   8.291   5.533  0.0141 -0.0462 -0.1211
 4850W        W 4850   5.312   1.649   1.335  0.1253 -0.2362  0.2617
 4851W        W 4851   2.774   3.990   5.275 -0.0460  0.1736  0.1578
 4852W        W 4852   9.821   1.661   8.881 -0.2510  0.2899 -0.5457
 4853W        W 4853   5.442   8.362   2.033  0.0169 -0.0044  0.0598
 4854W        W 4854   0.551   2.652   3.453 -0.0683  0.0880 -0.3884
 4855W        W 4855   2.756  10.133   7.501 -0.2248  0.1304 -0.2234
 4856W        W 4856   6.662   8.035   8.958 -0.2901  0.0980 -0.2446
 4857W        W 4857   0.088   1.089   0.102 -0.0506  0.0970 -0.1842
 4858W        W 4858   6.246   6.944   4.815 -0.0268 -0.1779  0.0153
 4859W        W 4859   0.748   9.324   5.045  0.0881 -0.0182 -0.2484
 4860W        W 4860   8.996   7.487   1.241  0.0751 -0.2832 -0.1288
 4861W        W 4861   0.075   7.447   4.444 -0.1822 -0.0670  0.1698
 4862W        W 4862   9.430   4.678   4.061 -0.0952 -0.0846  0.0185
 4863W        W 4863   5.778   1.831   3.191  0.1159 -0.0473  0.1357
 4864W        W 4864   8.288   9.764   0.838 -0.0183 -0.0254  0.0515
 4865W        W 4865   0.677   5.274   5.547  0.4638 -0.0044  0.2605
 4866W        W 4866   8.024   8.728   8.100  0.0579  0.2706 -0.0953
 4867W        W 4867   8.976   8.207   7.582 -0.2316 -0.1118 -0.0939
 4868W        W 4868   1.639   7.299   5.713 -0.0427  0.0466 -0.2265
 4869W        W 4869   0.362   8.852   5.181 -0.0988  0.2198 -0.1258
 4870W        W 4870   3.176   7.221   8.428  0.0316 -0.1120 -0.0176
 4871W        W 4871   7.595   4.144   6.878  0.3776 -0.4070 -0.1040
 4872W        W 4872   8.989   4.573   3.285  0.2078 -0.3201 -0.1660
 4873W        W 4873   9.030   4.419   0.240  0.2017 -0.1053  0.2423
 4874W        W 4874   8.156   1.622   6.296 -0.0410 -0.1867  0.1600
 4875W        W 4875   8.422   0.171   5.224  0.1413 -0.0534  0.1046
 4876W        W 4876   2.867   8.266   2.658  0.0131  0.3064  0.2612
 4877W        W 4877   7.230   9.362   3.731  0.0322  0.0345  0.0455
 4878W        W 4878   5.145   1.552   1.895  0.1780  0.1804  0.0986
 4879W        W 4879   7.688   7.978   1.873 -0.0405  0.2533 -0.0113
 4880W        W 4880   5.444   9.617   3.150  0.1933 -0.1698  0.0367
 4881W        W 4881   1.117   2.109   0.601  0.2948 -0.1977  0.1335
 4882W        W 4882   6.893   3.718   1.482  0.2020 -0.0128  0.0010
 4883W        W 4883   5.832   4.115   5.619 -0.0010  0.2218  0.2740
 4884W        W 4884   1.907   2.089   9.306  0.1624 -0.2546  0.1361
 4885W        W 4885   4.495   4.415   6.542  0.1952  0.2294  0.4184
 4886W        W 4886   0.840   4.711   9.456 -0.0639  0.1543 -0.0405
 4887W        W 4887   2.397   5.112   7.895  0.1956 -0.0284 -0.2348
 4888W        W 4888   9.862   4.096   8.490  0.3364 -0.1367  0.0655
 4889W        W 4889   7.333   3.330   8.186 -0.0582  0.0726 -0.1838
 4890W        W 4890   9.578   7.482   1.436  0.1838 -0.1087  0.1262
 4891W        W 4891   8.885   7.760   6.252  0.1698  0.3029  0.0684
 4892W        W 4892   0.923   0.336   1.619 -0.0956 -0.0385 -0.2047
 4893W        W 4893   0.187  10.012   8.135 -0.1433  0.0781 -0.0773
 4894W        W 4894   6.792  10.159   5.738 -0.0545  0.0288  0.1598
 4895W        W 4895   3.973   4.252  10.127  0.0049  0.0275 -0.1326
 4896W        W 4896   3.525   0.249   3.494 -0.3622 -0.0661  0.0856
 4897W        W 4897   0.754   3.088   2.762 -0.0285 -0.0445  0.2362
 4898W        W 4898   7.751   7.778   7.102  0.2937  0.2181 -0.2355
 4899W        W 4899   2.192   2.362  10.136 -0.0236  0.0465 -0.2631
 4900W        W 4900   9.711   6.911   1.845 -0.0601 -0.0871  0.2820
 4901W        W 4901   5.070   3.670   9.587 -0.0490 -0.0161 -0.0610
 4902W        W 4902   1.766   4.798   5.535  0.0398  0.0259  0.1575
 4903W        W 4903   4.199   0.985   9.502  0.3480 -0.4145 -0.2025
 4904W        W 4904   8.296   4.860   6.823 -0.0017 -0.1325 -0.2625
 4905W        W 4905   2.991   5.854   5.015  0.2374  0.0642  0.1766
 4906W        W 4906   9.815  10.263   5.852  0.0394  0.2344  0.0700
 4907W        W 4907   0.495   8.624   6.501  0.0539 -0.0754 -0.0699
 4908W        W 4908   0.683   6.127   7.850  0.5192 -0.0605  0.2543
 4909W        W 4909   7.425   4.015   9.968 -0.3369  0.0957  0.0410
 4910W        W 4910   0.604   8.234   3.360 -0.2777 -0.0953 -0.0323
 4911W        W 4911   2.740   5.070   6.489  0.1951 -0.1426 -0.0586
 4912W        W 4912   1.105   5.850   3.742  0.3845 -0.0436  0.1235
 4913W        W 4913   5.053   0.110   6.066  0.1270  0.2097  0.0102
 4914W        W 4914   8.989   9.666   6.393  0.0742 -0.0009 -0.0368
 4915W        W 4915  10.197   6.197   6.875  0.0463  0.0225 -0.2659
 4916W        W 4916   1.103   7.075   0.298 -0.0605 -0.0910  0.1383
 4917W        W 4917   7.630   1.214   3.440  0.1486 -0.1297 -0.3279
 4918W        W 4918   2.468   9.703  10.345 -0.0892 -0.1280  0.1552
 4919W        W 4919   4.319   4.894   3.024 -0.2021 -0.0432 -0.1585
 4920W        W 4920   0.810   2.086   3.532 -0.3201  0.1313  0.0617
 4921W        W 4921   5.341   8.161   2.847  0.0515 -0.0265  0.0679
 4922W        W 4922   4.216   4.678   7.452 -0.3071 -0.0324 -0.0703
 4923W        W 4923   0.516   6.214   0.848  0.1112 -0.3804 -0.4561
 4924W        W 4924   7.592   2.631   2.526  0.0241  0.0491 -0.0706
 4925W        W 4925   8.861   0.775   6.715 -0.2445  0.2410  0.3321
 4926W        W 4926   0.680   0.812   4.142 -0.2848 -0.1275 -0.1834
 4927W        W 4927   3.048   6.644   5.017 -0.1719  0.1534 -0.1723
 4928W        W 4928   8.543   7.978   7.876 -0.0688  0.0433 -0.0952
 4929W        W 4929   5.284   9.483   5.445  0.1469  0.0315 -0.1809
 4930W        W 4930   9.703   3.655   1.268  0.0261 -0.0083 -0.0684
 4931W        W 4931   1.676   1.700   7.445 -0.2031 -0.0271  0.0243
 4932W        W 4932   1.050   9.346   7.747 -0.1901  0.1276 -0.0410
 4933W        W 4933   8.190   7.369   9.154 -0.1654 -0.1199 -0.0444
 4934W        W 4934   0.628   6.746   9.935  0.0533  0.3592  0.2658
 4935W        W 4935   0.067   4.198   0.743  0.1456 -0.0020  0.3903
 4936W        W 4936   6.819   9.490   4.486  0.2584 -0.0822  0.1066
 4937W        W 4937   4.612   3.735   3.754 -0.3867 -0.0959 -0.0184
 4938W        W 4938   8.034  10.296   3.894 -0.2381  0.2973 -0.2708
 4939W        W 4939   0.288   1.555   3.068 -0.3322 -0.0647  0.6170
 4940W        W 4940   3.130   7.509   0.052 -0.0430 -0.0556 -0.1537
 4941W        W 4941   5.839   3.158   1.922 -0.2061  0.1457 -0.3623
 4942W        W 4942   2.205   3.949   9.727 -0.0739  0.0099  0.0708
 4943W        W 4943   5.051   3.416   1.665 -0.0006 -0.2397 -0.2675
 4944W        W 4944   8.479   8.454   6.824 -0.0087 -0.0289  0.0857
 4945W        W 4945   8.967   4.226   3.672  0.1378 -0.2131  0.0917
 4946W        W 4946   2.305   5.790   9.500  0.2583  0.0007 -0.1039
 4947W        W 4947   2.952  10.101   4.621  0.7693  0.1877  0.5234
 4948W        W 4948   6.926   6.090   0.451 -0.0182 -0.1447  0.1785
 4949W        W 4949   9.127   0.052   1.953 -0.0739  0.1037 -0.1425
 4950W        W 4950   3.595   0.300   7.856 -0.3273  0.0453  0.0832
 4951W        W 4951   5.469   6.683   1.850 -0.0519  0.5490 -0.1706
 4952W        W 4952   6.405   4.324   0.022  0.1477 -0.1560 -0.1735
 4953W        W 4953   1.332   0.638   2.752 -0.2726  0.0785 -0.0470
 4954W        W 4954   4.466   8.239   6.925  0.1430  0.0282  0.0966
 4955W        W 4955   0.834   0.937   6.889 -0.1675 -0.2376 -0.0652
 4956W        W 4956   8.520   0.589   9.811 -0.0137  0.0358 -0.2345
 4957W        W 4957   1.956   5.914   2.833 -0.0485 -0.1909 -0.0869
 4958W        W 4958   1.025   0.948   3.442  0.4891 -0.1822  0.1976
 4959W        W 4959   9.737   3.711   7.635 -0.0657 -0.1878 -0.2017
 4960W        W 4960   2.240   3.743   6.363 -0.2536 -0.1846  0.1626
 4961W        W 4961   0.737   7.406   0.273  0.1942 -0.0190 -0.2960
 4962W        W 4962   8.370   5.722   7.873 -0.0882  0.0090  0.0900
 4963W        W 4963   4.660   5.710   6.672 -0.0038  0.3189  0.0423
 4964W        W 4964   2.858   9.886   1.549  0.1839 -0.2120 -0.1409
 4965W        W 4965   3.357   8.436   2.577 -0.2824  0.5305  0.0606
 4966W        W 4966   5.815   4.118   8.388  0.2180  0.0296  0.0370
 4967W        W 4967   9.707   2.181   7.189  0.0761 -0.1534 -0.0642
 4968W        W 4968   2.821   9.037   4.577 -0.3133 -0.2237 -0.2673
 4969W        W 4969   4.666   5.461   5.981 -0.0563  0.1966  0.0352
 4970W        W 4970   6.397   0.966   4.478 -0.0113 -0.0005  0.2767
 4971W        W 4971   1.135   0.070   2.714  0.2521 -0.0330  0.2800
 4972W        W 4972   4.619   5.695   9.667 -0.0074 -0.3433 -0.2030
 4973W        W 4973   8.515  10.019   5.518 -0.1807  0.1079 -0.1270
 4974W        W 4974   7.544   9.435   2.597  0.0648  0.0434  0.0698
 4975W        W 4975   8.516   9.607   6.320  0.2578  0.2116 -0.0501
 4976W        W 4976   7.918  10.124   0.837  0.0324 -0.0756  0.2366
 4977W        W 4977   2.475   3.106   1.552  0.2991 -0.3496  0.2041
 4978W        W 4978   0.205   5.440   9.194  0.0731  0.3033 -0.0539
 4979W        W 4979   7.786   9.023   3.856 -0.6407 -0.3955  0.4190
 4980W        W 4980   5.249   8.110   7.691  0.0499 -0.4542 -0.1699
 4981W        W 4981   3.464   1.392   2.810  0.2071 -0.0604  0.1673
 4982W        W 4982   7.634   5.362   4.041 -0.0603  0.0288  0.0639
 4983W        W 4983   7.108   4.543   8.070  0.1270  0.0413 -0.1796
 4984W        W 4984   3.469   8.862   0.783  0.4059  0.0666  0.1183
 4985W        W 4985   3.230   5.279   7.473  0.3032  0.1739  0.0892
 4986W        W 4986   2.433   2.763   4.590  0.1649  0.2633  0.1621
 4987W        W 4987   8.654   2.803   4.914 -0.1471  0.0431 -0.1121
 4988W        W 4988   7.592   8.118   9.196 -0.1766 -0.1233  0.0441
 4989W        W 4989   3.432   7.326  10.021 -0.0073  0.3050  0.2081
 4990W        W 4990   5.448   7.527   4.528  0.1164 -0.1013  0.4710
 4991W        W 4991   6.796   1.300   4.606  0.1936 -0.2187  0.1648
 4992W        W 4992   1.973   6.149   1.961 -0.2286  0.3005 -0.1977
 4993W        W 4993   6.176   9.910   2.826  0.2266 -0.2712  0.2430
 4994W        W 4994   2.872   1.985   3.046 -0.1629  0.0172  0.2039
 4995W        W 4995   7.995   3.371   9.059  0.1829  0.1441 -0.2033
 4996W        W 4996   1.214   7.587   4.896 -0.2753  0.0324  0.0350
 4997W        W 4997   5.073   3.476   4.541 -0.2601  0.0710 -0.2614
 4998W        W 4998   6.050   6.196   8.353 -0.1483 -0.1501 -0.1000
 4999W        W 4999   5.180   0.973   7.246 -0.0811 -0.0107 -0.1073
 5000W        W 5000  10.105   7.589   0.380 -0.0264  0.0153 -0.1982
 5001W        W 5001   7.115   9.053   7.793 -0.0076 -0.1814 -0.2670
 5002W        W 5002   0.457   7.411   5.372 -0.0760 -0.2675 -0.1170
 5003W        W 5003   4.103   7.258   0.970  0.2232  0.2176  0.2204
 5004W        W 5004  10.004   1.222   0.392 -0.0278  0.3970  0.1248
 5005W        W 5005   3.107   7.125   7.452  0.2553 -0.0809 -0.0983
 5006W        W 5006   3.108   0.190   0.695 -0.1797  0.0556  0.0031
 5007W        W 5007   4.145   5.133   7.764  0.0227 -0.2553  0.3701
 5008W        W 5008   9.829  10.069   4.187 -0.0127  0.0343 -0.0994
 5009W        W 5009   2.185   3.360   2.066  0.1762 -0.3171  0.0838
 5010W        W 5010   9.634   4.148   6.021 -0.2608 -0.0342  0.2101
 5011W        W 5011   6.207  10.056   4.153 -0.1069  0.0630 -0.0138
 5012W        W 5012   2.482   7.213   6.180  0.2192  0.0739  0.1922
 5013W        W 5013   1.825   5.186   7.860  0.1196 -0.0773 -0.0589
 5014W        W 5014  10.223   4.362   6.276  0.2346  0.2456  0.0509
 5015W        W 5015   2.412   5.177   8.941 -0.0056 -0.1492 -0.0672
 5016W        W 5016   9.900   6.614   3.031  0.0883 -0.3080  0.1372
 5017W        W 5017   4.428   9.678   7.151  0.1554  0.1237  0.1306
 5018W        W 5018   6.174   6.458   7.921 -0.1247 -0.3598  0.1205
 5019W        W 5019   5.404   3.038   1.726  0.0533 -0.2545  0.1317
 5020W        W 5020   1.937   2.093   6.369 -0.0479 -0.1502 -0.0713
 5021W        W 5021   4.778   3.769   1.190  0.3556  0.1573 -0.1300
 5022W        W 5022   7.585   4.451   1.552  0.1240  0.1654 -0.3316
 5023W        W 5023   0.029  10.028   7.188 -0.0333 -0.1974 -0.3126
 5024W        W 5024   8.462   1.296   8.088 -0.3392 -0.0851 -0.0202
 5025W        W 5025   9.715   7.299   2.618 -0.3003  0.0759  0.0236
 5026W        W 5026   9.265   8.122   4.407  0.1006 -0.1961 -0.1163
 5027W        W 5027   1.528   4.009   8.643  0.2064  0.0006 -0.4313
 5028W        W 5028   5.395   1.989   6.894  0.1051  0.0412  0.0779
 5029W        W 5029   0.365   6.041   4.627  0.1551  0.1977 -0.0204
 5030W        W 5030   6.394  10.319   9.302 -0.1183  0.0852 -0.0082
 5031W        W 5031   7.926   8.061   0.829  0.1243 -0.1695 -0.0571
 5032W        W 5032   9.285   3.422   7.925  0.1609  0.2156 -0.1132
 5033W        W 5033   3.263   2.469   7.175 -0.0008 -0.3645 -0.0478
 5034W        W 5034   8.417   6.773   8.890  0.1013 -0.2396  0.3630
 5035W        W 5035   1.545   6.208   6.626 -0.1056  0.1336 -0.1232
 5036W        W 5036   3.537   8.930   6.418 -0.1708 -0.2980  0.2095
 5037W        W 5037   4.701   9.530   1.448 -0.0846 -0.0767 -0.1536
 5038W        W 5038  10.137   8.811   7.711  0.0558  0.0155 -0.0591
 5039W        W 5039   3.932   4.565   0.437  0.1408  0.3832  0.1876
 5040W        W 5040   5.075   9.418   6.669  0.3655 -0.2084  0.1261
 5041W        W 5041   5.337   0.345   3.786 -0.0100  0.1599 -0.3411
 5042W        W 5042   4.366   4.728   4.105  0.1948 -0.0294  0.1092
 5043W        W 5043   5.872   3.989   3.050  0.0442  0.1407  0.0264
 5044W        W 5044   4.003   8.434   2.898 -0.1032  0.0797 -0.0147
 5045W        W 5045  10.178   7.290   5.860 -0.0006 -0.0696 -0.1947
 5046W        W 5046   1.740   6.294   8.717 -0.1248  0.1372  0.5230
 5047W        W 5047   7.353   2.491   6.186  0.0729 -0.1336 -0.0580
 5048W        W 5048   6.230   6.058   7.514 -0.0538 -0.0313 -0.0203
 5049W        W 5049   1.880   6.973   9.131 -0.1211  0.2219  0.0163
 5050W        W 5050   5.930   6.011   9.338  0.2042 -0.2772 -0.0177
 5051W        W 5051   7.877   9.932   5.711  0.2297  0.0542  0.1998
 5052W        W 5052   7.802   3.173   5.052  0.3249 -0.1491  0.1584
 5053W        W 5053   9.029   7.363   7.567 -0.0492  0.1514  0.0706
 5054W        W 5054   5.660   4.612   5.574  0.3408  0.1443 -0.0559
 5055W        W 5055   1.657   0.421   7.306 -0.0638  0.0414 -0.0069
 5056W        W 5056   1.266   9.278   9.495  0.2075 -0.1352 -0.1912
 5057W        W 5057   0.396   6.751   8.504  0.0621  0.1442  0.0916
 5058W        W 5058   1.824   0.087   2.205 -0.0327 -0.1765 -0.0377
 5059W        W 5059   8.305   9.963   7.398 -0.0694 -0.0895 -0.3122
 5060W        W 5060   7.752   7.715   0.476 -0.0947 -0.1901  0.0025
 5061W        W 5061   1.742   7.105   4.100 -0.1406 -0.0530  0.1039
 5062W        W 5062   5.411   1.648   9.786 -0.2804 -0.3468 -0.1610
 5063W        W 5063   1.548   7.536   8.011 -0.1881 -0.0313 -0.0935
 5064W        W 5064   5.363   7.267   4.959 -0.1343  0.0173 -0.0202
 5065W        W 5065   8.021   3.830   6.976 -0.4570  0.0559 -0.0867
 5066W        W 5066   7.055   1.805   3.708  0.2942 -0.0310 -0.0490
 5067W        W 5067   0.995   2.802   8.790 -0.3137 -0.1788  0.1338
 5068W        W 5068   1.330   2.458   9.659 -0.2187  0.0113  0.0075
 5069W        W 5069   2.331   0.485   3.142  0.1485  0.1916 -0.0500
 5070W        W 5070   6.757   3.002   8.880 -0.0117 -0.1410 -0.3322
 5071W        W 5071   0.353   6.548   8.979  0.2452 -0.1345  0.3290
 5072W        W 5072  10.343   4.174   1.242  0.0245 -0.1334 -0.0727
 5073W        W 5073   5.410  10.099   6.164 -0.0976  0.1602 -0.0995
 5074W        W 5074   5.727   1.528  10.247  0.1499  0.1795  0.3880
 5075W        W 5075   5.792   3.344   8.740 -0.0465  0.2597  0.0501
 5076W        W 5076   9.112   3.408   5.380 -0.1583  0.2686 -0.0846
 5077W        W 5077   1.885   4.177   0.713  0.2456 -0.2580  0.0627
 5078W        W 5078   6.509   2.261   6.918  0.2041 -0.0368  0.2385
 5079W        W 5079   4.113   8.785   4.735 -0.1492  0.0080  0.0469
 5080W        W 5080   1.174   3.271  10.315  0.2627  0.3597 -0.0831
 5081W        W 5081   7.142   0.903   2.111 -0.2942  0.1566 -0.0007
 5082W        W 5082   3.677   0.924   2.867 -0.1809  0.1013  0.3643
 5083W        W 5083   8.180   7.624   9.569  0.0772 -0.0676 -0.0874
 5084W        W 5084   6.715   1.094   2.772 -0.0423  0.0875  0.1349
 5085W        W 5085   8.103   4.492  10.007 -0.0794 -0.0825 -0.3028
 5086W        W 5086   2.676   7.460  10.081 -0.1087 -0.0063  0.0395
 5087W        W 5087   0.661   3.183   8.369  0.0373  0.1098 -0.1117
 5088W        W 5088   4.393   9.175   1.171 -0.0928  0.0453 -0.1745
 5089W        W 5089   1.308   1.923   0.161 -0.0220 -0.0274 -0.1198
 5090W        W 5090   4.822   4.099   7.463  0.0743  0.4443 -0.2239
 5091W        W 5091   7.574   5.980   6.051  0.2024  0.1132  0.5847
 5092W        W 5092   4.712   8.238   4.278 -0.2477 -0.1040 -0.0497
 5093W        W 5093   3.499   2.621  10.273 -0.1644 -0.1749 -0.1159
 5094W        W 5094   1.402   5.090   1.556 -0.0429 -0.2307  0.1268
 5095W        W 5095   6.790   7.070   9.794  0.0430  0.1008 -0.0965
 5096W        W 5096   7.546   4.662   4.295 -0.1362 -0.0834 -0.1688
 5097W        W 5097   4.772   1.048   1.188  0.0587 -0.1798 -0.0224
 5098W        W 5098   3.047   3.393   3.192  0.2405  0.1156 -0.2299
 5099W        W 5099   1.388   4.422   5.509 -0.0855  0.1842 -0.2070
 5100W        W 5100   1.918  10.034   5.325  0.0277  0.1588 -0.0125
 5101W        W 5101   1.723   9.566  10.267 -0.3312 -0.3860 -0.2103
 5102W        W 5102   1.287   1.938   5.849  0.0098 -0.0304 -0.0044
 5103W        W 5103   1.135   6.775  10.200  0.2095  0.0037  0.1016
 5104W        W 5104   8.478   0.152   7.386  0.1844 -0.3697 -0.4285
 5105W        W 5105   5.308   8.374   6.673  0.0767  0.2095 -0.2915
 5106W        W 5106   3.125  10.331   3.979 -0.2520  0.2312  0.1775
 5107W        W 5107   9.819   6.568   8.883  0.0252 -0.2964 -0.2591
 5108W        W 5108   9.965   2.025   5.492 -0.1709 -0.0680 -0.0392
 5109W        W 5109   2.535   4.254   7.226 -0.1567  0.0878 -0.0443
 5110W        W 5110   7.341   9.873   5.590  0.0174 -0.3836  0.0997
 5111W        W 5111   3.333   5.339   7.982 -0.2104  0.0303  0.1519
 5112W        W 5112   2.718   9.496   9.521  0.1794  0.1648  0.0496
 5113W        W 5113   6.325   4.187   1.031  0.0337 -0.1797 -0.2722
 5114W        W 5114   4.507   7.673   3.902  0.1050  0.0389  0.0557
 5115W        W 5115   2.824   1.558   4.838 -0.0401 -0.1277 -0.0941
 5116W        W 5116   4.780   7.752   6.037  0.0703 -0.0988 -0.0780
 5117W        W 5117   0.100   3.590   5.187 -0.0127  0.2196 -0.0186
 5118W        W 5118   3.407   4.338   2.259  0.1113 -0.1303  0.0952
 5119W        W 5119   0.047   5.042   9.893  0.3216 -0.1034  0.0546
 5120W        W 5120  10.244   0.845   9.854 -0.1750  0.2575 -0.1440
 5121W        W 5121   1.983   8.430   8.918  0.1435 -0.2978 -0.2735
 5122W        W 5122   5.925   4.671   4.732  0.1371  0.3689  0.1725
 5123W        W 5123   7.390   1.978   3.087 -0.1937 -0.1186 -0.0164
 5124W        W 5124   0.164   6.726   3.454 -0.2661 -0.1078 -0.2427
 5125W        W 5125   9.857   9.654   7.514 -0.1992 -0.0185  0.1964
 5126W        W 5126   8.030   6.279   1.342  0.0127  0.1237 -0.1013
 5127W        W 5127   2.728   1.285   9.678 -0.1025 -0.1845  0.1877
 5128W        W 5128   2.305   2.950   0.614 -0.1501  0.0546 -0.0094
 5129W        W 5129   5.495  10.190   1.937 -0.2533 -0.1439 -0.0838
 5130W        W 5130   7.000   3.663   7.976  0.1872 -0.0977  0.0508
 5131W        W 5131   2.226   3.254   0.238  0.1192 -0.1096  0.0770
 5132W        W 5132   3.121   7.298   9.141  0.0850 -0.1922 -0.1127
 5133W        W 5133   9.840   1.089   4.135 -0.0174 -0.1508  0.2605
 5134W        W 5134  10.236   7.111   5.278 -0.1119 -0.0537  0.1323
 5135W        W 5135   2.683  10.056   3.663 -0.0680  0.1549 -0.0210
 5136W        W 5136   9.273   7.002   2.349 -0.0848 -0.0222 -0.0779
 5137W        W 5137  10.315   6.895   2.544  0.2019 -0.0314 -0.0458
 5138W        W 5138   7.137   1.601   8.025  0.0060  0.0606  0.1587
 5139W        W 5139   4.366   8.487   3.777  0.1479  0.2552 -0.0409
 5140W        W 5140   0.601   1.597   4.708 -0.1519 -0.1538  0.1244
 5141W        W 5141   5.879   9.839   8.272 -0.3609  0.1010  0.1781
 5142W        W 5142   0.043   7.560   1.273  0.0557  0.4311 -0.1832
 5143W        W 5143   7.429   4.379   6.159 -0.3396  0.2606  0.0587
 5144W        W 5144   8.539   5.298   0.373  0.5845 -0.2989 -0.0802
 5145W        W 5145   7.449   9.890   8.510 -0.0050  0.1050  0.0144
 5146W        W 5146   2.458  10.242  10.241  0.0134  0.0573 -0.2923
 5147W        W 5147   6.764   7.116   2.229 -0.0885 -0.1673  0.0212
 5148W        W 5148   1.689   4.945   7.080 -0.0861 -0.0577 -0.3646
 5149W        W 5149   3.423   4.939   8.263 -0.1498  0.0708  0.0427
 5150W        W 5150   7.057  10.228   8.686  0.1130 -0.3526  0.3963
 5151W        W 5151   4.969   2.408   0.915 -0.3530 -0.1169  0.0824
 5152W        W 5152   2.100   4.924   8.192 -0.0773 -0.3422 -0.0750
 5153W        W 5153   6.934   1.176   1.263  0.0428  0.1761  0.2316
 5154W        W 5154   2.470  10.090   6.689  0.1892 -0.1207 -0.0686
 5155W        W 5155   0.784   2.323   3.984  0.2273 -0.0451  0.2271
 5156W        W 5156   2.125   7.342   1.916  0.2434 -0.1560 -0.0962
 5157W        W 5157   6.002   6.334   4.016 -0.1887 -0.0157 -0.3148
 5158W        W 5158   0.727   8.172   8.326  0.2318 -0.1464 -0.0393
 5159W        W 5159   5.035   8.516   7.895 -0.1074 -0.1113  0.2040
 5160W        W 5160   9.829   3.029   3.883  0.0911 -0.2069 -0.3072
 5161W        W 5161   7.795   3.093   2.290  0.0436 -0.1289  0.2092
 5162W        W 5162   0.767   9.588   5.712 -0.2270  0.4244 -0.2203
 5163W        W 5163   0.475   1.132   8.247  0.1033  0.1012 -0.0582
 5164W        W 5164   8.560   2.156   5.502 -0.2852  0.2260  0.0187
 5165W        W 5165   5.819   5.260   2.847  0.3115 -0.1899 -0.1243
 5166W        W 5166   3.251   5.364   3.861  0.2170 -0.2657 -0.1520
 5167W        W 5167   2.513   7.078   4.620  0.0269  0.2580  0.0053
 5168W        W 5168   9.144   1.462   6.079  0.0262 -0.0061 -0.0020
 5169W        W 5169   5.161   6.176   1.107 -0.4147 -0.0824 -0.0283
 5170W        W 5170   8.125   4.414   0.482 -0.1547 -0.1269 -0.0365
 5171W        W 5171   8.739   3.307   4.461  0.2570 -0.3354  0.1948
 5172W        W 5172   4.549   3.795   7.066 -0.0122 -0.0182  0.0375
 5173W        W 5173   0.347   9.480   5.399  0.0974 -0.4378  0.2452
 5174W        W 5174   0.068   3.737   9.181 -0.1671  0.0177 -0.2326
 5175W        W 5175   6.802   6.700   0.373 -0.0777  0.0949  0.2469
 5176W        W 5176   8.010   6.889  10.063  0.0826  0.1860 -0.0679
 5177W        W 5177   2.737   1.926   7.566  0.1155  0.0866 -0.0808
 5178W        W 5178   5.924   5.282  10.195 -0.0147  0.1029  0.0977
 5179W        W 5179   1.408   3.486   8.125  0.0813  0.0631 -0.0132
 5180W        W 5180   1.930   4.435   6.295  0.1982  0.1401  0.1738
 5181W        W 5181   8.891   2.807   4.195  0.1804  0.0047 -0.5938
 5182W        W 5182   7.214   7.838   5.437 -0.0042 -0.4037 -0.0504
 5183W        W 5183   2.203   7.533  10.203 -0.1256  0.2413  0.1842
 5184W        W 5184   1.559   8.965   2.619 -0.2869  0.1701  0.2540
 5185W        W 5185   1.153   4.333   9.624  0.1072  0.0981  0.0735
 5186W        W 5186   2.889   2.200   6.351 -0.1185 -0.0339 -0.0536
 5187W        W 5187   0.487   5.340   7.770 -0.0402 -0.3665 -0.3984
 5188W        W 5188   2.319   9.285   8.059  0.0761 -0.0377  0.0712
 5189W        W 5189   6.341   5.141   9.002 -0.0260  0.2118  0.2566
 5190W        W 5190   9.087   1.403  10.118  0.2092 -0.1869  0.1170
 5191W        W 5191   9.290   7.314   3.490 -0.3149  0.0937  0.0086
 5192W        W 5192   8.847   8.348   4.562 -0.0543 -0.1681  0.0944
 5193W        W 5193   5.054   0.362   1.545  0.0576  0.1228 -0.1023
 5194W        W 5194   7.869   6.541   0.797  0.0133 -0.1276 -0.0419
 5195W        W 5195   6.740   4.823   9.929  0.1309 -0.0829  0.0863
 5196W        W 5196   8.461   3.277   0.468  0.0657 -0.1153  0.0882
 5197W        W 5197   6.985   9.279   8.760  0.1375  0.2053 -0.3139
 5198W        W 5198   2.323   4.825   8.629  0.0512 -0.1446  0.0006
 5199W        W 5199  10.068   1.102   5.498 -0.0013 -0.0200  0.3928
 5200W        W 5200   5.905   7.835   1.438  0.1027  0.0700 -0.2825
 5201W        W 5201   1.514   5.391   9.722  0.0765  0.1101  0.1069
 5202W        W 5202   9.181   9.205   8.160 -0.0015 -0.2956 -0.0455
 5203W        W 5203   4.995   3.840   7.999 -0.1712  0.1364  0.0373
 5204W        W 5204   1.116   2.138   2.629  0.0177 -0.1074  0.2186
 5205W        W 5205   3.675   8.786   3.068 -0.0996 -0.0867  0.1538
 5206W        W 5206   6.907   3.047   4.445  0.3712 -0.2142  0.2064
 5207W        W 5207   8.743   6.371   2.848  0.1896 -0.1851  0.0004
 5208W        W 5208   9.568   5.704   8.494 -0.0733  0.0442  0.0564
 5209W        W 5209   9.203   5.340   1.265 -0.1020  0.0879  0.0654
 5210W        W 5210   5.728  10.200   2.798  0.2370 -0.1484  0.1663
 5211W        W 5211   5.713   6.972   9.379 -0.0652  0.1624 -0.0256
 5212W        W 5212   8.592   8.166   3.522  0.0274 -0.2662 -0.2488
 5213W        W 5213   7.026   0.794   4.044 -0.1285  0.0782 -0.1038
 5214W        W 5214   0.450   9.519   9.272  0.2861 -0.1865 -0.0656
 5215W        W 5215   1.759   1.665   8.952 -0.0600 -0.2669  0.0720
 5216W        W 5216   8.431   0.041   6.912  0.0961  0.0206  0.2225
 5217W        W 5217   2.264   9.801   2.269  0.0818  0.0700 -0.0646
 5218W        W 5218   1.930   0.261   6.837  0.1803  0.0641  0.0894
 5219W        W 5219   5.394   8.777   9.074  0.0777 -0.3039 -0.1341
 5220W        W 5220   1.404   0.919   2.377  0.4978 -0.2143 -0.0557
 5221W        W 5221   2.927   8.305   5.836  0.4078 -0.1329 -0.1407
 5222W        W 5222   5.764   6.886   2.613 -0.0909  0.0888  0.3427
 5223W        W 5223   1.248   4.412   2.860  0.0412  0.1879  0.2408
 5224W        W 5224   1.032   4.036   6.715 -0.0188  0.2563 -0.2425
 5225W        W 5225   0.907   9.496   8.290  0.2259  0.0237  0.2832
 5226W        W 5226   8.049   8.435   9.148 -0.2043  0.3342  0.1266
 5227W        W 5227   2.031  10.066   6.991 -0.0701  0.1028  0.1791
 5228W        W 5228   7.189   2.073   2.646  0.1350  0.1830  0.1580
 5229W        W 5229   3.260   0.638   7.120 -0.2525 -0.1399 -0.0539
 5230W        W 5230   6.378   9.224   3.383  0.1459  0.2595  0.0153
 5231W        W 5231   2.576   9.277   9.943  0.4481 -0.1414  0.0591
 5232W        W 5232   5.091   3.835   9.020  0.0523 -0.0168  0.1010
 5233W        W 5233   7.493   4.191   3.940 -0.1251  0.2236 -0.1448
 5234W        W 5234   8.968   9.782   3.770  0.0197 -0.0098 -0.0245
 5235W        W 5235   2.253   3.695   7.428  0.0494  0.0359 -0.2382
 5236W        W 5236   9.006   6.786   4.180  0.2769  0.0040  0.1332
 5237W        W 5237   8.795   4.934   0.969  0.0647  0.1208 -0.0695
 5238W        W 5238   7.221   3.213   7.186 -0.1129  0.0915 -0.1183
 5239W        W 5239   2.584   1.501   7.292  0.1537  0.1193 -0.1317
 5240W        W 5240   0.791   1.166   4.615  0.0806  0.0493  0.0064
 5241W        W 5241   7.582   7.873   6.138 -0.1398  0.2983  0.0782
 5242W        W 5242   0.786   7.441   6.117  0.0009 -0.3465 -0.0618
 5243W        W 5243   7.054   5.645   4.778  0.0005 -0.1548  0.1235
 5244W        W 5244   5.913  10.076   9.199 -0.0855  0.3619  0.3617
 5245W        W 5245   8.551   0.322   1.043 -0.1065 -0.1876 -0.3238
 5246W        W 5246   1.443   7.071   5.303  0.0642 -0.0824  0.0448
 5247W        W 5247   4.521   3.377   8.348 -0.0498  0.0018 -0.3785
 5248W        W 5248   3.295   3.317   8.147  0.2412  0.2806 -0.0095
 5249W        W 5249   5.785   3.240   6.691 -0.1767 -0.1378 -0.1895
 5250W        W 5250   7.581   1.381   2.946 -0.3408  0.0201  0.0456
 5251W        W 5251   7.219   2.463   5.135 -0.1756  0.0653  0.0323
 5252W        W 5252   0.893   0.754   2.231  0.3087  0.1033 -0.3203
 5253W        W 5253   6.354   9.901   8.509  0.0407 -0.0292 -0.1799
 5254W        W 5254   3.862  10.307   6.537 -0.2495  0.0482 -0.1733
 5255W        W 5255   7.138   8.165   8.953  0.1079 -0.3126  0.0656
 5256W        W 5256   8.034   4.185   6.530  0.0700 -0.0027 -0.2418
 5257W        W 5257   9.601   0.717   7.300 -0.0768 -0.0227  0.4142
 5258W        W 5258   2.571   4.948   5.711 -0.2676  0.0913  0.0763
 5259W        W 5259   3.728   1.634   1.504 -0.0009 -0.2951 -0.0240
 5260W        W 5260   9.391  10.166   9.994  0.2052 -0.0187  0.0436
 5261W        W 5261   3.998   0.529   9.780  0.2502  0.2081 -0.1897
 5262W        W 5262   8.401   3.779   3.110 -0.1055 -0.5469  0.1274
 5263W        W 5263   3.384   0.819   5.366  0.1087 -0.0007 -0.1057
 5264W        W 5264   0.323   5.850   8.453  0.1368 -0.0061 -0.0177
 5265W        W 5265   3.794   2.311   5.354  0.1540  0.0815  0.1266
 5266W        W 5266   4.621   6.500   3.868  0.2367 -0.0055 -0.0868
 5267W        W 5267   6.477  10.200   9.800 -0.2752  0.0358 -0.0592
 5268W        W 5268   0.606   6.812   0.160 -0.0973 -0.1597 -0.3608
 5269W        W 5269   6.724   9.897   6.190  0.0229  0.2877 -0.0405
 5270W        W 5270   8.484   8.116   0.096 -0.1806  0.1790 -0.3000
 5271W        W 5271   0.847   1.807  10.198 -0.2041  0.2250  0.1585
 5272W        W 5272   0.435   3.732   2.828  0.0617  0.1493  0.0243
 5273W        W 5273   8.284   8.466  10.001 -0.0442  0.0706 -0.1098
 5274W        W 5274   3.544   5.743   5.720  0.0070 -0.0585 -0.0078
 5275W        W 5275   1.548   0.638   6.876  0.0511  0.0969  0.0154
 5276W        W 5276   6.054   9.682   0.666 -0.0903  0.0754 -0.1721
 5277W        W 5277   3.464   4.147  10.118  0.1221 -0.1443 -0.0723
 5278W        W 5278   4.093   9.582   0.326 -0.1324  0.0767 -0.2558
 5279W        W 5279   5.735  10.007   3.301 -0.1105  0.1047 -0.0202
 5280W        W 5280   2.337   6.773   9.268 -0.0218  0.0035 -0.1808
 5281W        W 5281   6.513   3.677   1.844 -0.2296 -0.0153 -0.1531
 5282W        W 5282   9.554   7.528   9.274  0.0327  0.0234  0.0124
 5283W        W 5283   6.870   8.028   0.391 -0.0059 -0.0702  0.0481
 5284W        W 5284   6.994   7.997   0.953 -0.2444  0.1570  0.0121
 5285W        W 5285   0.797   8.702   1.003 -0.2738  0.3055  0.0156
 5286W        W 5286   5.731   3.867   8.807 -0.0788  0.2835 -0.1186
 5287W        W 5287   5.287   9.400   4.915 -0.2034 -0.1260  0.0401
 5288W        W 5288   7.260   8.373   5.375 -0.2894 -0.1393 -0.2184
 5289W        W 5289   8.842   9.901   9.136 -0.1103 -0.2315  0.1579
 5290W        W 5290   2.594   8.662   6.230 -0.0689  0.0516 -0.3725
 5291W        W 5291   7.670   2.056   6.090 -0.1162  0.0084 -0.0832
 5292W        W 5292   9.723   3.257   4.360  0.0965  0.0340  0.1177
 5293W        W 5293   9.587   4.873   2.605  0.1017  0.3118 -0.1071
 5294W        W 5294   0.867   0.257   2.123  0.1475 -0.0139 -0.1589
 5295W        W 5295   0.286   1.469   0.413  0.0383  0.0394  0.0623
 5296W        W 5296   3.838   2.531   9.196 -0.4052  0.2734  0.0103
 5297W        W 5297   1.331   5.115   8.094 -0.1455  0.1363  0.3322
 5298W        W 5298   8.340   3.752   5.743 -0.1076  0.2330 -0.4027
 5299W        W 5299   1.858   9.922   2.023  0.0479  0.3851  0.2305
 5300W        W 5300   5.267   6.039   0.530 -0.2389 -0.4307  0.2387
 5301W        W 5301   2.011   5.405   7.010  0.1027  0.2191  0.1482
 5302W        W 5302   7.835   0.577   5.242  0.0080  0.0785 -0.5131
 5303W        W 5303   1.932   5.357   2.973  0.2850 -0.1399 -0.2080
 5304W        W 5304   9.114   9.662   3.149 -0.2132  0.0144  0.0936
 5305W        W 5305   0.971   0.306   4.252 -0.1305 -0.1992  0.1127
 5306W        W 5306   7.484   0.779   0.738  0.0744 -0.5360  0.2191
 5307W        W 5307   9.084   8.690   0.679 -0.3164  0.0247 -0.2602
 5308W        W 5308   2.103   6.208   9.611 -0.2259 -0.1474  0.2552
 5309W        W 5309   3.986   2.558   0.138  0.0027 -0.0266 -0.1602
 5310W        W 5310   9.160   6.080   2.918  0.0434 -0.0697 -0.0828
 5311W        W 5311   7.946   3.804   4.138 -0.0567 -0.0043  0.0330
 5312W        W 5312   8.158   5.512   8.291  0.0410  0.0600  0.0258
 5313W        W 5313   1.451   4.113  10.306  0.3824 -0.1109 -0.0774
 5314W        W 5314   0.881   1.455   5.087  0.1243 -0.3567 -0.2696
 5315W        W 5315   1.505   9.010   3.579 -0.2876  0.1847  0.0156
 5316W        W 5316   2.217   0.629   6.778  0.1138 -0.0682  0.1328
 5317W        W 5317   4.500   0.406   5.062 -0.0305 -0.0193 -0.0652
 5318W        W 5318   2.238   5.582   4.765  0.0377 -0.0414  0.1260
 5319W        W 5319   4.293   3.489   0.055 -0.0206 -0.0011  0.0501
 5320W        W 5320   0.901   1.747   1.289  0.2396  0.0916 -0.1195
 5321W        W 5321   7.177   8.461   4.886 -0.0855 -0.0070 -0.0206
 5322W        W 5322   6.584   7.305   2.676 -0.0160 -0.0701  0.1495
 5323W        W 5323   9.691   5.684   3.818  0.1752  0.0046  0.1687
 5324W        W 5324   1.250  10.276   6.403  0.2748  0.4543 -0.1497
 5325W        W 5325   3.289   5.768   9.898  0.1704 -0.0810 -0.1917
 5326W        W 5326   2.000   5.907   1.134  0.0602 -0.0079  0.1146
 5327W        W 5327   7.228   1.862   1.747  0.4431 -0.0975 -0.2722
 5328W        W 5328   1.428   9.910   1.333  0.0580 -0.0719 -0.1117
 5329W        W 5329   7.673   3.194   0.845  0.1288 -0.0176 -0.0212
 5330W        W 5330   8.591   5.983   5.775 -0.1983 -0.0886 -0.1428
 5331W        W 5331   5.625   4.555   9.090  0.1733  0.4701 -0.0421
 5332W        W 5332   9.040   5.362   7.313 -0.0247 -0.1107  0.0319
 5333W        W 5333   1.360   6.328   3.407  0.2377  0.1072 -0.4158
 5334W        W 5334   6.449   4.576   1.778 -0.2456  0.0163 -0.0565
 5335W        W 5335   7.324   4.615   2.421  0.4301 -0.4266  0.0093
 5336W        W 5336   7.701   4.209   0.643  0.0800  0.1066 -0.0815
 5337W        W 5337   9.014   9.907   2.659  0.1064 -0.2097 -0.2519
 5338W        W 5338   2.270   5.018   4.745  0.0664 -0.1095 -0.1077
 5339W        W 5339   7.745   0.654   4.635 -0.3367  0.0604 -0.0050
 5340W        W 5340   6.184   1.780   2.791  0.2156 -0.1184  0.2448
 5341W        W 5341   2.074   8.848   2.927 -0.0638 -0.4813 -0.1873
 5342W        W 5342   0.542   5.887   3.656 -0.4475 -0.1012 -0.2067
 5343W        W 5343   7.578   6.541   1.245 -0.0598  0.2149  0.0471
 5344W        W 5344   4.569  10.127   7.873  0.4164  0.0916  0.1647
 5345W        W 5345   4.162   0.713  10.289  0.1482 -0.0172 -0.0438
 5346W        W 5346   4.107   0.367   0.937  0.0464  0.0323 -0.2707
 5347W        W 5347   7.825   0.707   1.051  0.0030 -0.0232  0.0405
 5348W        W 5348   6.306   5.930   8.737  0.0130  0.1832 -0.0796
 5349W        W 5349   4.076   9.718   4.497  0.0063  0.1371 -0.0261
 5350W        W 5350   6.466   8.849   7.007  0.0686 -0.0200  0.2348
 5351W        W 5351   6.892   4.255   2.319  0.2443  0.0923 -0.0654
 5352W        W 5352   2.632   6.178   4.213 -0.1386 -0.4535 -0.4321
 5353W        W 5353   2.763   7.881   5.540 -0.1827  0.1131 -0.1224
 5354W        W 5354   9.384   7.791   1.837 -0.3673 -0.1455  0.3206
 5355W        W 5355   6.505   8.031   9.960 -0.0567 -0.2577  0.0276
 5356W        W 5356   8.916   8.737   4.853  0.0656 -0.2926  0.0404
 5357W        W 5357   0.338   7.579   7.835  0.0169  0.1282  0.1053
 5358W        W 5358   3.518   8.929   9.826  0.1785  0.0590 -0.0464
 5359W        W 5359   5.725   1.644   1.056 -0.2034  0.0807  0.0702
 5360W        W 5360   9.599   7.793   2.784  0.2076 -0.0351  0.0784
 5361W        W 5361   9.180   0.682   3.190  0.2089 -0.0108  0.1719
 5362W        W 5362   2.226   7.458   3.228  0.0347 -0.0718  0.0153
 5363W        W 5363   3.037   9.197   0.885  0.0571  0.3300  0.1569
 5364W        W 5364   3.574   7.531   0.982 -0.0310  0.0230  0.2146
 5365W        W 5365  10.122   1.975   4.615  0.1519 -0.1217 -0.2594
 5366W        W 5366   7.510   1.041   3.940  0.0161  0.3004  0.1581
 5367W        W 5367   3.678   7.209   1.875  0.1476 -0.2292  0.1462
 5368W        W 5368   3.458   2.875   7.892  0.2382  0.0269 -0.2476
 5369W        W 5369   2.156   0.343   7.836  0.0372 -0.0573  0.5873
 5370W        W 5370   7.902   0.395   2.569 -0.2052 -0.1096  0.0837
 5371W        W 5371  10.057   0.481   9.493  0.1707  0.0220 -0.0289
 5372W        W 5372  10.157   7.350   0.848 -0.0898 -0.0726 -0.1943
 5373W        W 5373   2.969   6.371   2.021  0.1337 -0.3179 -0.1826
 5374W        W 5374   6.336   5.201   9.938 -0.3149 -0.0538  0.0098
 5375W        W 5375   2.521   8.282   4.275 -0.2847  0.1279  0.4045
 5376W        W 5376   0.261   3.908   7.066 -0.1015  0.1226 -0.3680
 5377W        W 5377   8.554   7.553   1.514 -0.0469  0.0756 -0.1104
 5378W        W 5378   8.538   7.425   4.233  0.0810  0.1266 -0.2070
 5379W        W 5379   7.067   4.437   4.006  0.0753  0.2126 -0.1551
 5380W        W 5380   6.119   9.944   9.620  0.0286  0.0994  0.0693
 5381W        W 5381   6.282   8.235   5.334 -0.1804  0.0903 -0.2650
 5382W        W 5382   4.387   0.076   0.431  0.3135 -0.0033 -0.0822
 5383W        W 5383   8.300   4.698   3.476  0.1400  0.1650  0.1445
 5384W        W 5384   8.667   9.578  10.299 -0.1124  0.0763  0.1437
 5385W        W 5385   7.211   0.100   5.627  0.2180  0.1414 -0.1129
 5386W        W 5386   8.406   1.030   5.666 -0.2694 -0.1431 -0.3355
 5387W        W 5387   9.492   4.822   7.791 -0.2925 -0.0079 -0.4162
 5388W        W 5388   1.982   7.510   7.542  0.0723 -0.0258 -0.1333
 5389W        W 5389   5.985   9.097   3.677  0.2225  0.0513  0.0214
 5390W        W 5390   1.195   7.473   5.797  0.0798  0.0436 -0.0054
 5391W        W 5391   8.507   8.749   0.572 -0.3498  0.0379 -0.1995
 5392W        W 5392   0.489  10.292   1.577  0.2350  0.2593 -0.2085
 5393W        W 5393   4.742   6.043   2.368  0.1136  0.1397 -0.0280
 5394W        W 5394   8.522   9.200   2.653 -0.1363  0.1285 -0.0174
 5395W        W 5395   7.216   0.345   0.835  0.1236  0.1317 -0.1200
 5396W        W 5396   1.586   9.471   6.356  0.2272 -0.0294  0.1827
 5397W        W 5397   1.560   8.084   4.991  0.3508  0.1667  0.3581
 5398W        W 5398   5.665   4.130  10.003 -0.0155 -0.3257 -0.0640
 5399W        W 5399   0.528   7.539   4.107  0.2205  0.2866 -0.4684
 5400W        W 5400   1.402   4.021   7.270  0.0745 -0.0645 -0.0988
 5401W        W 5401   4.433   0.653   7.584  0.0692 -0.0386 -0.4081
 5402W        W 5402   4.024   6.164   1.958  0.2722  0.0301  0.0820
 5403W        W 5403   9.503   4.853   3.588 -0.3643  0.0714  0.3105
 5404W        W 5404   6.800   8.965   9.226  0.3109  0.2356 -0.3467
 5405W        W 5405   3.393   8.923   0.189 -0.0747  0.2990  0.4080
 5406W        W 5406   7.539   4.586   8.378  0.5059 -0.2016  0.3711
 5407W        W 5407   6.712   8.554   5.479  0.1360  0.3618 -0.3111
 5408W        W 5408   4.611   6.663   8.584  0.1854 -0.4326  0.0741
 5409W        W 5409   5.443   2.514   5.785  0.2211  0.2409  0.2302
 5410W        W 5410   8.871   0.056   6.718  0.0743 -0.0069 -0.0993
 5411W        W 5411   6.348   6.727   0.077  0.1928 -0.1518 -0.0210
 5412W        W 5412   6.757   5.324   0.586 -0.0185  0.0299 -0.0075
 5413W        W 5413   6.041   6.717   8.362  0.2693  0.0391 -0.0110
 5414W        W 5414   9.115   1.910   8.139  0.1375 -0.2074 -0.4273
 5415W        W 5415   8.980   3.805   2.414  0.1760  0.2127 -0.2636
 5416W        W 5416   5.872   5.740   5.914  0.2956 -0.0142  0.4082
 5417W        W 5417   1.381   0.329   8.296 -0.0212 -0.0055  0.2240
 5418W        W 5418   3.988   3.516   8.653  0.1709  0.0449 -0.0119
 5419W        W 5419   6.584   3.390   1.051  0.0742 -0.1983  0.2093
 5420W        W 5420   7.164   9.870   9.916 -0.1102  0.0822 -0.1032
 5421W        W 5421   6.384   4.099   9.434  0.0903  0.1712 -0.0408
 5422W        W 5422   4.822   4.134   0.266  0.2340 -0.1306  0.0879
 5423W        W 5423   0.492   0.836  10.290 -0.1219  0.0154  0.2566
 5424W        W 5424   3.316   6.068   1.521 -0.2144  0.0152 -0.0606
 5425W        W 5425   1.900   9.498   1.206  0.1826  0.0035  0.0328
 5426W        W 5426   3.012   1.095   5.680 -0.2651  0.0908 -0.0110
 5427W        W 5427   3.916   1.133   1.613  0.0135 -0.0181  0.6044
 5428W        W 5428   7.107   0.008   5.020 -0.1961  0.0463 -0.0905
 5429W        W 5429   0.021   8.041   9.942  0.1482  0.1068  0.2673
 5430W        W 5430   5.916   7.793   2.293  0.2062 -0.0373  0.1145
 5431W        W 5431   8.862   3.758   4.314 -0.0059 -0.0486  0.0382
 5432W        W 5432   2.699   2.798   1.919 -0.0060  0.0263 -0.0168
 5433W        W 5433   9.114   7.922   4.903 -0.1184  0.0806  0.0480
 5434W        W 5434   9.500   3.182   1.848 -0.3429  0.1190  0.1704
 5435W        W 5435   9.569   2.536   0.600 -0.2916  0.1005 -0.1534
 5436W        W 5436   7.519  10.313   3.098  0.3031 -0.0736  0.2750
 5437W        W 5437   9.571   6.037   5.729  0.1475  0.1334  0.0090
 5438W        W 5438   1.323   6.840   8.819 -0.1572  0.1512 -0.0308
 5439W        W 5439   4.259   6.557   1.197  0.1908  0.3090 -0.0633
 5440W        W 5440   7.306   0.029   2.082 -0.1065  0.0293  0.3294
 5441W        W 5441   4.073   8.716   1.541 -0.0125  0.2724  0.1160
 5442W        W 5442   7.258   9.620   1.258  0.0128 -0.0543  0.2347
 5443W        W 5443   2.846   8.298   5.212  0.1708 -0.0583 -0.1571
 5444W        W 5444   3.058   7.001  10.013 -0.1201 -0.1183 -0.1686
 5445W        W 5445   2.378   4.544   1.389  0.0003 -0.1029  0.2343
 5446W        W 5446   3.734   7.953   9.293  0.0551  0.3056  0.2007
 5447W        W 5447   7.231   6.234   5.766  0.1278 -0.0904  0.1942
 5448W        W 5448   3.281   7.126   5.924  0.0705 -0.0892  0.0372
 5449W        W 5449   3.293   1.029   6.717  0.2899  0.1377 -0.0322
 5450W        W 5450   8.376   0.166   5.820 -0.0055  0.2232 -0.2793
 5451W        W 5451   9.019   5.992   4.916 -0.0518 -0.1817  0.1251
 5452W        W 5452   0.812   2.688   7.645 -0.3011 -0.3896 -0.1775
 5453W        W 5453  10.189   2.708   0.345  0.0401 -0.0335  0.1493
 5454W        W 5454   5.849   5.142   4.419 -0.2223  0.0539 -0.0596
 5455W        W 5455   2.306   9.138   2.066  0.3234  0.1131  0.0512
 5456W        W 5456   9.147   2.924   7.643  0.0951  0.1378 -0.0601
 5457W        W 5457   8.074   2.224   8.197 -0.1997  0.0360  0.2029
 5458W        W 5458   3.555   3.356   8.551  0.0960 -0.2499 -0.0155
 5459W        W 5459   9.706   7.395   5.685 -0.1556 -0.1540  0.2133
 5460W        W 5460   0.022   7.592   7.432  0.0498  0.1750  0.2507
 5461W        W 5461   1.218   6.487   6.040  0.1516 -0.0006  0.0474
 5462W        W 5462   3.068   7.017   0.185  0.2248 -0.0810  0.1907
 5463W        W 5463   2.413   0.543   0.565 -0.0493  0.2591 -0.4543
 5464W        W 5464   6.821   2.610   6.303 -0.1394  0.0259  0.2753
 5465W        W 5465   0.734   7.495   9.146 -0.0646 -0.2250 -0.1532
 5466W        W 5466   1.714   6.410   6.032 -0.1559 -0.1077 -0.5040
 5467W        W 5467   1.603   3.988   6.771 -0.0954  0.0982  0.2939
 5468W        W 5468   6.068   2.211   2.988  0.0090  0.1219 -0.0762
 5469W        W 5469   0.011   6.185  10.175 -0.1016  0.1143  0.1367
 5470W        W 5470   2.534   5.271   7.049 -0.0038 -0.1913 -0.0050
 5471W        W 5471   4.267  10.085   4.786  0.1757  0.1954 -0.1212
 5472W        W 5472   1.368   4.489   4.923  0.0390  0.0338  0.2224
 5473W        W 5473   8.223   5.779   9.550 -0.1283 -0.1011 -0.1582
 5474W        W 5474   3.876   9.693   7.230  0.1030  0.0624  0.1186
 5475W        W 5475   1.226  10.234   4.396 -0.2214 -0.0075  0.1775
 5476W        W 5476   4.881   3.364   0.876 -0.0915 -0.0635 -0.1490
 5477W        W 5477   2.192   0.057   1.236 -0.2046 -0.0630 -0.0901
 5478W        W 5478   3.695   1.366   3.218 -0.0143 -0.0147 -0.1652
 5479W        W 5479   6.241   4.643   9.804 -0.0459 -0.0865  0.0671
 5480W        W 5480   5.337   6.778  10.155 -0.1366  0.3519 -0.0610
 5481W        W 5481   1.490   2.539   5.343  0.3726  0.1228 -0.0197
 5482W        W 5482   2.547   3.323   8.634 -0.1316  0.1914  0.2586
 5483W        W 5483   0.150   8.239   9.465  0.2709  0.2692  0.0228
 5484W        W 5484   2.428   0.108   8.756  0.1155 -0.0990  0.0890
 5485W        W 5485   1.313   8.224   7.228  0.1298 -0.3324 -0.0472
 5486W        W 5486   7.915   9.464   5.602 -0.0355  0.1216 -0.2337
 5487W        W 5487   4.330   5.389   1.736 -0.2091 -0.1979 -0.0091
 5488W        W 5488   8.528   6.497   5.608 -0.0928  0.0946  0.2767
 5489W        W 5489   6.382   9.485   9.582  0.4138 -0.0249 -0.1048
 5490W        W 5490   4.216   6.329   3.481 -0.3299 -0.1778 -0.1583
 5491W        W 5491   3.402   8.621   8.001 -0.0865 -0.2682 -0.1097
 5492W        W 5492   0.026   4.478   4.974 -0.3001 -0.2703 -0.0412
 5493W        W 5493   6.452   6.988   8.812  0.0688  0.0092  0.0095
 5494W        W 5494   6.102   4.511   0.355 -0.0435  0.2611  0.1159
 5495W        W 5495   6.783   4.183   8.007 -0.1181 -0.0282  0.1040
 5496W        W 5496   9.818  10.097   1.507 -0.0432 -0.0154 -0.1479
 5497W        W 5497   0.996   4.377   0.851  0.1033 -0.0480  0.0329
 5498W        W 5498   0.737   5.722   4.621 -0.0779  0.0448 -0.1164
 5499W        W 5499   2.918   6.178   7.486  0.0651  0.0427 -0.1082
 5500W        W 5500   6.955   0.018   7.665 -0.1725  0.0178 -0.0797
 5501W        W 5501   0.305   5.340   4.456  0.0961  0.0756  0.0370
 5502W        W 5502   9.241   1.587   7.044 -0.2563  0.0921 -0.3769
 5503W        W 5503   1.882   9.285   0.767  0.2914 -0.0526  0.0730
 5504W        W 5504   0.326   4.979   6.824 -0.0087 -0.0914 -0.3607
 5505W        W 5505   3.882   0.747   1.228 -0.3873 -0.2914 -0.0480
 5506W        W 5506   6.105  10.214   0.203  0.0522  0.1515  0.0615
 5507W        W 5507   2.521   5.376   2.337 -0.0432  0.0238  0.0654
 5508W        W 5508   3.185   0.091   1.359 -0.0837  0.1805  0.2679
 5509W        W 5509   8.734   8.435   8.023  0.0192 -0.0634  0.0912
 5510W        W 5510   3.760   4.102   2.558  0.1438  0.0949  0.0581
 5511W        W 5511   5.663   1.820   6.468  0.4789 -0.0464 -0.0809
 5512W        W 5512   2.740   4.297   2.877 -0.6635  0.1143 -0.0820
 5513W        W 5513   9.097   7.881   2.812  0.0683  0.0476 -0.0458
 5514W        W 5514   8.390   8.903   6.639  0.0166  0.3368 -0.0688
 5515W        W 5515   8.718   6.781   1.152 -0.3539 -0.0545  0.0885
 5516W        W 5516   1.303  10.059   0.423  0.3210  0.1419  0.3841
 5517W        W 5517   3.646   0.674   2.321  0.3438 -0.4413  0.1489
 5518W        W 5518   5.471   3.825   5.486 -0.0766  0.0484  0.2354
 5519W        W 5519   8.991   3.737   9.723 -0.0779 -0.0716  0.1557
 5520W        W 5520   7.438   4.467  10.337  0.1845  0.1254  0.0275
 5521W        W 5521   5.101   7.170   8.740  0.0421 -0.3567  0.1282
 5522W        W 5522   7.137   0.516   0.399  0.1851  0.1120  0.0933
 5523W        W 5523   2.812   9.428   0.243 -0.2724 -0.1274  0.4228
 5524W        W 5524   2.334   1.769   8.525 -0.1854 -0.0402  0.0454
 5525W        W 5525   3.239   9.073   7.914 -0.0654  0.2391  0.1157
 5526W        W 5526   4.909   9.255   0.842 -0.2996  0.1982  0.0055
 5527W        W 5527   3.753   1.415   2.367 -0.0309  0.2800 -0.2321
 5528W        W 5528   2.405   1.690   6.339 -0.1624  0.2085 -0.0684
 5529W        W 5529   9.097   7.215   4.066 -0.6323 -0.4734  0.0083
 5530W        W 5530   8.595   9.131   0.230 -0.1512  0.0277 -0.1010
 5531W        W 5531   0.086   4.322   9.056  0.1762 -0.0210  0.1127
 5532W        W 5532   5.298   5.410   2.768 -0.4954 -0.1778 -0.0456
 5533W        W 5533   1.472   2.436   3.625 -0.3028  0.3210  0.1434
 5534W        W 5534   1.936   1.281   1.018 -0.0382  0.0723 -0.0630
 5535W        W 5535   8.087   8.023   3.607 -0.0124  0.0001 -0.1242
 5536W        W 5536   9.512   2.349   6.294  0.1724 -0.2777  0.2834
 5537W        W 5537   9.623   8.787   7.664  0.2512 -0.1662  0.2021
 5538W        W 5538   5.455   7.102   5.775  0.2264 -0.2433  0.0445
 5539W        W 5539   0.212   5.827   4.034 -0.1777  0.0278 -0.1519
 5540W        W 5540   2.093   3.058   8.666  0.1787  0.0498 -0.2168
 5541W        W 5541   0.558   6.220   4.045  0.3887 -0.2091 -0.3253
 5542W        W 5542   1.529   5.615   2.703  0.1199 -0.2489 -0.2520
 5543W        W 5543   1.390   9.440   1.110 -0.3347 -0.1154 -0.0017
 5544W        W 5544   8.582   4.799   6.076 -0.0218 -0.3495  0.0888
 5545W        W 5545   0.525   3.517   1.513  0.1656  0.0116 -0.2933
 5546W        W 5546   4.360   1.276   3.265 -0.2830 -0.0659  0.0778
 5547W        W 5547   1.324   7.821   6.810 -0.0453 -0.1242 -0.1270
 5548W        W 5548   1.779   7.674   3.161  0.3258  0.1130  0.1656
 5549W        W 5549   1.205   2.519   8.003  0.2549 -0.2196 -0.1113
 5550W        W 5550   2.240   4.419   3.349 -0.1906  0.0167  0.0770
 5551W        W 5551   3.561   8.281   2.174 -0.1520  0.0759  0.1421
 5552W        W 5552   9.525   2.528   3.250 -0.0197  0.2515  0.0986
 5553W        W 5553   6.393   0.783   2.992 -0.4031 -0.0252  0.1602
 5554W        W 5554   8.172   9.289   4.102 -0.2428  0.0040 -0.0198
 5555W        W 5555   3.749   9.290   5.306 -0.1375 -0.0248 -0.1253
 5556W        W 5556   8.406   0.930   8.493 -0.1152 -0.0580  0.1022
 5557W        W 5557   1.308   3.870   9.601 -0.3036  0.0780  0.0985
 5558W        W 5558   4.163   1.766   4.117  0.2806 -0.3310 -0.1461
 5559W        W 5559  10.161   2.504   9.919 -0.0672 -0.0405 -0.2835
 5560W        W 5560   6.774   0.168   4.673  0.2946 -0.1553  0.1051
 5561W        W 5561   4.995   8.029   4.633 -0.1862 -0.3441 -0.0727
 5562W        W 5562   7.395  10.113   1.304 -0.0324 -0.1817  0.2595
 5563W        W 5563   1.641   7.302   1.345  0.0276 -0.2804  0.1354
 5564W        W 5564   0.999   6.511   3.098 -0.0025 -0.1651 -0.1497
 5565W        W 5565   6.152   3.704   0.808  0.0796 -0.0393  0.1310
 5566W        W 5566   4.059   3.023   6.085 -0.1904 -0.1214  0.0433
 5567W        W 5567   3.899   3.036   8.640 -0.1145 -0.2188 -0.0620
 5568W        W 5568   1.917   0.654   1.413  0.0292 -0.3252  0.0940
 5569W        W 5569  10.310   6.214   8.199 -0.1442  0.3030 -0.0101
 5570W        W 5570   9.039   4.463   6.260 -0.1340  0.0515  0.0178
 5571W        W 5571   7.868   5.496   3.652 -0.0274 -0.0041 -0.1093
 5572W        W 5572   5.911   6.165   6.286 -0.1330 -0.1760  0.0761
 5573W        W 5573   7.696   7.622   7.598  0.1687  0.0836  0.0986
 5574W        W 5574   5.274   1.105   5.824  0.1936 -0.2244 -0.2064
 5575W        W 5575   5.628   2.843   0.495 -0.1743 -0.1713  0.1037
 5576W        W 5576   3.445   2.831   8.369  0.0462  0.0619 -0.1073
 5577W        W 5577   4.735   5.440   2.019  0.0574  0.3721 -0.1568
 5578W        W 5578   3.771   8.476   1.156  0.0221 -0.0474  0.2612
 5579W        W 5579   3.273   5.152   2.652  0.0420  0.3273  0.0595
 5580W        W 5580   6.554   3.281   1.534 -0.2021  0.0328  0.1318
 5581W        W 5581   6.613   0.723   3.428 -0.2076  0.1438 -0.1637
 5582W        W 5582   5.675   1.377   2.996 -0.0527 -0.4839 -0.0801
 5583W        W 5583   8.605   7.645   2.011 -0.0641 -0.4486 -0.0757
 5584W        W 5584   7.992   7.794   8.222 -0.0723  0.2132  0.1345
 5585W        W 5585   5.161   0.726   5.440 -0.0589 -0.1000  0.1945
 5586W        W 5586   9.178   0.449   7.023 -0.3793  0.0150 -0.0625
 5587W        W 5587   8.083   5.979   5.799 -0.0703  0.2506  0.0088
 5588W        W 5588   9.763   2.916   6.687  0.3752 -0.2364  0.1574
 5589W        W 5589   8.982   9.695   4.689 -0.1555  0.1763 -0.0746
 5590W        W 5590   5.748   6.617   6.204 -0.3417  0.0258 -0.1610
 5591W        W 5591  10.221   6.404   9.160  0.4401  0.3915  0.1899
 5592W        W 5592   4.981   2.780   6.115  0.2348 -0.0029  0.0096
 5593W        W 5593   8.967   8.876  10.213 -0.0369 -0.3194 -0.0441
 5594W        W 5594   1.177   9.927   9.048 -0.3326 -0.2052 -0.2194
 5595W        W 5595   2.127   8.916   1.089 -0.2246 -0.2544 -0.1144
 5596W        W 5596   1.146   3.068   6.949 -0.0891  0.2409  0.1872
 5597W        W 5597   9.206   2.174   7.293  0.0378 -0.0505  0.0113
 5598W        W 5598  10.220   3.058   8.682  0.1440 -0.2847 -0.1373
 5599W        W 5599   5.019   1.118   4.130  0.0170  0.1208 -0.2653
 5600W        W 5600   9.570   8.034   9.532  0.0376  0.0485  0.0657
 5601W        W 5601   8.362   4.056   4.047 -0.0232  0.5120 -0.0922
 5602W        W 5602   0.478   5.792   8.951 -0.3009 -0.2046  0.0631
 5603W        W 5603   3.534   1.160   2.022  0.2338 -0.0314  0.0465
 5604W        W 5604   5.745   4.618   4.279 -0.1140  0.0800 -0.0085
 5605W        W 5605   1.205   5.781   9.875 -0.0175 -0.0481  0.3484
 5606W        W 5606   7.752   4.337   9.217 -0.2285  0.1295 -0.1327
 5607W        W 5607   3.313   6.036   3.551  0.2485 -0.4348  0.2097
 5608W        W 5608   6.156   2.082   1.184 -0.0290 -0.2029 -0.0829
 5609W        W 5609   0.569   4.601   0.525  0.0345 -0.1070 -0.2302
 5610W        W 5610  10.163   0.256   9.979  0.0444 -0.2306  0.3668
 5611W        W 5611   9.451   9.112   4.785 -0.0322 -0.1285 -0.1860
 5612W        W 5612   0.376   2.711   1.980 -0.2117 -0.0062 -0.0744
 5613W        W 5613  10.095   9.976   2.915  0.1592 -0.1855  0.0375
 5614W        W 5614   1.586   6.604   6.971 -0.1624 -0.0113 -0.1033
 5615W        W 5615   7.290  10.282  10.270  0.0976  0.1177  0.0967
 5616W        W 5616   4.948   8.643   8.824 -0.0560 -0.1515  0.0136
 5617W        W 5617   9.744   5.193   3.991  0.1913 -0.3906 -0.3189
 5618W        W 5618   1.585   6.870   5.974 -0.1338 -0.1086  0.1593
 5619W        W 5619   7.691   2.979   1.355  0.0184  0.0315 -0.2198
 5620W        W 5620   9.101   8.594   1.960  0.0272 -0.0193 -0.0069
 5621W        W 5621   3.956   7.605   7.516 -0.3402  0.3526 -0.2727
 5622W        W 5622   6.101   6.472   0.437  0.0312 -0.0790 -0.1278
 5623W        W 5623   4.257   3.712   9.606 -0.0287  0.3182  0.1291
 5624W        W 5624   7.112   9.253   9.757 -0.1680 -0.2521  0.0036
 5625W        W 5625   4.614   0.912   7.069  0.1464  0.1969  0.0043
 5626W        W 5626   2.577   7.477   4.819 -0.1033  0.0186 -0.1696
 5627W        W 5627   2.109   6.484   0.956 -0.0361  0.2164 -0.3161
 5628W        W 5628   8.474   1.741   0.577 -0.1299  0.3658 -0.1923
 5629W        W 5629   6.606   8.435   3.524 -0.1349 -0.1267 -0.0531
 5630W        W 5630   3.809   7.061   9.566  0.2225 -0.0980 -0.1121
 5631W        W 5631   7.568   2.408   7.723 -0.2692 -0.1360  0.1772
 5632W        W 5632   1.826   5.882   6.313  0.1497  0.0431  0.2768
 5633W        W 5633   6.523   1.172   9.334 -0.2661 -0.2098  0.1430
 5634W        W 5634   8.446   2.380   1.664 -0.2918  0.1055  0.0747
 5635W        W 5635   7.170  10.000   6.566  0.2186 -0.0905  0.2831
 5636W        W 5636   1.685   0.913   5.290  0.0209 -0.1732 -0.1596
 5637W        W 5637   2.616   3.723   9.912 -0.1383 -0.1819 -0.3576
 5638W        W 5638   7.784   0.797   6.140  0.1728  0.2225  0.1401
 5639W        W 5639  10.019   4.101   1.637  0.1002  0.2882  0.1102
 5640W        W 5640   5.986  10.149   0.663 -0.0447 -0.0723  0.0137
 5641W        W 5641   8.343   9.254   8.183  0.0836 -0.0726  0.1022
 5642W        W 5642   4.067   9.514   2.374  0.0090  0.1732 -0.3393
 5643W        W 5643   9.037   2.643   7.042  0.0378 -0.2191  0.0016
 5644W        W 5644   2.562   6.409   9.640 -0.1515  0.1141  0.2129
 5645W        W 5645   5.932   6.381  10.262 -0.2663  0.0384  0.0176
 5646W        W 5646   0.778   2.502   0.587  0.0549  0.1040  0.1213
 5647W        W 5647   9.319   6.282   6.782 -0.3053 -0.1700 -0.1935
 5648W        W 5648   4.957   0.664   5.906  0.1634 -0.1363 -0.0959
 5649W        W 5649   6.231   8.699   5.966 -0.2869  0.0848 -0.0620
 5650W        W 5650   2.995   0.177   5.888  0.1014 -0.0950  0.2863
 5651W        W 5651  10.318   3.907  10.012 -0.1306  0.3368 -0.1502
 5652W        W 5652   3.524   7.311   7.592 -0.2879  0.0811  0.0149
 5653W        W 5653   7.165   2.959   6.304 -0.1552  0.0777 -0.0006
 5654W        W 5654   1.356  10.076   7.507  0.2355 -0.4523 -0.2051
 5655W        W 5655   6.565   5.992   6.444  0.0322  0.0289 -0.2025
 5656W        W 5656   9.327   8.592   4.614  0.4134  0.2582 -0.1825
 5657W        W 5657   3.798   9.970   6.100  0.1678 -0.0342  0.1827
 5658W        W 5658   8.823   4.222   9.652 -0.0779 -0.0313 -0.0342
 5659W        W 5659   1.353   7.974   2.494 -0.0024 -0.0276 -0.1689
 5660W        W 5660  10.045   9.327   1.371  0.1149 -0.1650  0.1005
 5661W        W 5661   7.555   1.270   5.909  0.0124 -0.0121  0.0284
 5662W        W 5662   2.911   9.633   3.206  0.2216  0.2454  0.1697
 5663W        W 5663   2.219   6.239   8.649 -0.0719 -0.0752 -0.1855
 5664W        W 5664   8.593   2.207   4.911 -0.0528  0.1786 -0.0883
 5665W        W 5665   7.619   3.411   1.897  0.1836  0.0688 -0.1875
 5666W        W 5666   8.203   7.095   9.607  0.2245  0.0456 -0.3573
 5667W        W 5667   9.625  10.326   6.719  0.0212 -0.1737 -0.1229
 5668W        W 5668   9.518   6.496   7.812  0.2033 -0.1611 -0.1219
 5669W        W 5669   8.571   2.074   3.846  0.1543 -0.2856 -0.0878
 5670W        W 5670   1.326   9.675   3.524  0.2333 -0.1121  0.1013
 5671W        W 5671   2.346   1.739   1.726  0.0728  0.2298 -0.0400
 5672W        W 5672   2.923   9.325   2.835 -0.0521 -0.0107  0.2086
 5673W        W 5673   2.703   4.298   6.716  0.1436  0.0860  0.1848
 5674W        W 5674   8.856   2.458   7.480 -0.0332 -0.3234 -0.0580
 5675W        W 5675   2.711   0.704   4.069 -0.0077 -0.1779  0.0149
 5676W        W 5676   0.178   5.709   6.390 -0.0324 -0.0096  0.0662
 5677W        W 5677   8.494   3.929   0.263  0.1007  0.1872 -0.0181
 5678W        W 5678   2.640   9.870   9.847 -0.0522  0.0441 -0.1075
 5679W        W 5679   1.093   9.211   3.470  0.2291 -0.1154 -0.0892
 5680W        W 5680   4.553   7.383   1.424  0.2386 -0.2557 -0.4839
 5681W        W 5681   0.048   6.728   9.488  0.2192  0.0452  0.1418
 5682W        W 5682   6.246   1.129   6.771  0.0213 -0.0120 -0.0254
 5683W        W 5683   9.263  10.136   3.674 -0.1420  0.0734 -0.3105
 5684W        W 5684   2.024   6.120   7.730 -0.2348 -0.0574  0.2346
 5685W        W 5685   3.140   0.524   0.347  0.0261  0.2124 -0.0962
 5686W        W 5686   3.962   2.772  10.050  0.1175  0.0743 -0.0403
 5687W        W 5687   9.325  10.322   1.456  0.1837 -0.0720 -0.2435
 5688W        W 5688   3.807   0.652   8.255 -0.0565 -0.3693  0.0051
 5689W        W 5689   4.267   5.364   8.187  0.1691  0.1568  0.2434
 5690W        W 5690   5.122   5.666   1.187 -0.1686 -0.0588  0.1663
 5691W        W 5691   9.284   9.543   7.799 -0.1213  0.1325  0.1141
 5692W        W 5692   7.314   0.405   5.228 -0.0024 -0.3382 -0.3624
 5693W        W 5693   8.192   6.583   4.960  0.0657 -0.1669  0.0610
 5694W        W 5694   0.110   8.578   8.196  0.3867  0.0980 -0.2044
 5695W        W 5695   1.407   0.994   3.733 -0.2522 -0.0198 -0.2772
 5696W        W 5696   4.864   0.843   1.597 -0.0317 -0.1250  0.1206
 5697W        W 5697   0.918   4.175   8.188  0.1501  0.0380  0.1099
 5698W        W 5698   7.334   8.138   6.451  0.0046  0.0338  0.3065
 5699W        W 5699   2.581   0.856   5.941 -0.1753 -0.2209  0.1150
 5700W        W 5700   5.876   2.142   0.811  0.0927  0.0776  0.3972
 5701W        W 5701   7.799   5.218   4.834  0.0610 -0.0692 -0.2907
 5702W        W 5702   2.957   0.663   5.094  0.1452 -0.0236 -0.1813
 5703W        W 5703   4.479   5.079   7.346  0.0007 -0.3468  0.1058
 5704W        W 5704   6.983   2.082   3.312 -0.2070 -0.0796 -0.0025
 5705W        W 5705   8.756   2.083   7.807 -0.0334 -0.1979  0.0304
 5706W        W 5706   7.864   7.198   3.613 -0.2962  0.0677  0.1238
 5707W        W 5707   5.352  10.220   2.452 -0.0748  0.1104 -0.3334
 5708W        W 5708   4.628   9.030   8.843  0.0215  0.1320  0.0078
 5709W        W 5709   8.893   6.483   9.667  0.0838  0.1443  0.0798
 5710W        W 5710   2.041   9.430   8.919 -0.0393  0.1695 -0.1723
 5711W        W 5711   9.712   0.783   9.809  0.0694  0.1200  0.3845
 5712W        W 5712   5.553   7.293   7.690 -0.1404  0.0752  0.1234
 5713W        W 5713   5.350   2.842   5.325 -0.0046  0.2634 -0.0149
 5714W        W 5714   7.009   3.991   9.183 -0.1614 -0.1552  0.0548
 5715W        W 5715   6.245   6.008   5.848 -0.0550  0.0144 -0.0321
 5716W        W 5716   5.102   9.754   0.843  0.1192 -0.1444  0.1077
 5717W        W 5717   4.797   4.038   9.432  0.1907 -0.0776  0.0893
 5718W        W 5718   0.176   3.945   2.012  0.1701  0.3370  0.2231
 5719W        W 5719   0.920  10.247   3.938 -0.0301 -0.2011 -0.1846
 5720W        W 5720   0.753  10.332   6.234 -0.1123 -0.2087  0.0542
 5721W        W 5721   2.474   8.234   3.736 -0.2907 -0.1685 -0.3275
 5722W        W 5722   3.130   7.554   6.737 -0.0500 -0.1352  0.3790
 5723W        W 5723   7.271   8.455   8.027 -0.1116 -0.0978 -0.1078
 5724W        W 5724   4.376   7.866   7.861  0.4120  0.3513  0.1279
 5725W        W 5725   5.308   1.978   0.913 -0.1180 -0.1473  0.0311
 5726W        W 5726  10.181   5.317   4.643  0.1374  0.1682 -0.1443
 5727W        W 5727   0.030  10.267   5.080 -0.0397 -0.0121  0.0756
 5728W        W 5728   7.777   1.833   6.549  0.1445 -0.0537 -0.2141
 5729W        W 5729   0.108   1.313   2.082 -0.1706 -0.0303  0.1949
 5730W        W 5730   3.373   6.004   5.266  0.0292 -0.1037 -0.1266
 5731W        W 5731   2.183   0.314   2.612 -0.1115 -0.1972 -0.0986
 5732W        W 5732   3.756   8.039   2.588  0.1009 -0.3452  0.0282
 5733W        W 5733   5.467   4.739   7.279  0.0177 -0.3812  0.0341
 5734W        W 5734   1.014   6.147   4.443  0.0395 -0.2188 -0.1579
 5735W        W 5735   4.523  10.180   3.800 -0.1644 -0.0455 -0.0608
 5736W        W 5736   7.244   6.543   0.301 -0.3327  0.1509 -0.1212
 5737W        W 5737   9.036   6.430   7.640 -0.2594 -0.1482  0.1251
 5738W        W 5738   9.756   8.489   8.946 -0.3188  0.2231 -0.2257
 5739W        W 5739   1.762   0.023   7.722 -0.0553  0.0722 -0.0393
 5740W        W 5740   9.820   8.779   6.341 -0.0117 -0.1660 -0.1439
 5741W        W 5741   6.812   1.714   7.645  0.3580  0.0845  0.0511
 5742W        W 5742   1.537   1.903   9.551 -0.2442 -0.0219  0.0493
 5743W        W 5743   2.979   7.129   4.752  0.0053 -0.1383  0.1705
 5744W        W 5744   0.471   0.285   3.351  0.4057 -0.2210  0.2246
 5745W        W 5745   3.222   6.126   2.447 -0.0591  0.0993 -0.0865
 5746W        W 5746   4.046   8.547   8.542  0.3996  0.0809  0.0174
 5747W        W 5747   1.591   8.930   2.118 -0.1485 -0.1151 -0.1848
 5748W        W 5748   8.491   9.635   5.148  0.1634 -0.1660  0.1439
 5749W        W 5749   9.289   7.404   6.261 -0.1288  0.0083  0.1014
 5750W        W 5750   5.266   1.181   1.097  0.0171  0.0910 -0.1045
 5751W        W 5751   4.961   7.834   1.194  0.0393  0.1839 -0.1818
 5752W        W 5752   4.145   2.745   5.464  0.0575  0.2410  0.1902
 5753W        W 5753   8.291   4.912   0.104  0.1997 -0.1111  0.0087
 5754W        W 5754   0.359   1.746   3.878 -0.0972 -0.4174  0.2604
 5755W        W 5755   3.418   7.520   1.543 -0.2933 -0.0331  0.0508
 5756W        W 5756   9.830   7.467   4.421  0.1680  0.1829 -0.2943
 5757W        W 5757   1.668   9.160   7.215  0.0354 -0.0957  0.1198
 5758W        W 5758   2.847   5.894   9.138 -0.0107 -0.1366 -0.2316
 5759W        W 5759   1.423   2.971   2.887 -0.0440 -0.4241  0.0694
 5760W        W 5760   4.279   3.586   7.452  0.1124  0.2385  0.1253
 5761W        W 5761   8.669   0.978   6.235 -0.3267  0.5932 -0.1637
 5762W        W 5762  10.194   8.923  10.263  0.1671  0.0849  0.1333
 5763W        W 5763   4.453   3.064  10.028  0.1513 -0.0207  0.3215
 5764W        W 5764   5.190   7.683   7.446  0.0891  0.0743 -0.1518
 5765W        W 5765   6.064   2.873   0.238 -0.3264 -0.1418  0.0981
 5766W        W 5766   3.546   9.733   7.643  0.0055  0.3960  0.0945
 5767W        W 5767   6.461  10.079   1.669  0.0596 -0.0274 -0.3030
 5768W        W 5768   2.291   3.352   4.153 -0.2169 -0.0455 -0.0760
 5769W        W 5769   0.494   5.016   9.231 -0.1299  0.2627 -0.1966
 5770W        W 5770   2.807   0.186   5.370  0.0434  0.1745  0.0019
 5771W        W 5771   3.856   6.053   1.504  0.0552  0.1185  0.2289
 5772W        W 5772   5.883   2.581   7.911  0.1896 -0.1479 -0.2951
 5773W        W 5773   0.557   3.610   0.682 -0.2749  0.1650 -0.1969
 5774W        W 5774   6.602   8.298   6.339  0.3834 -0.0839 -0.2275
 5775W        W 5775   8.890   0.077   4.388  0.1501 -0.0074  0.1156
 5776W        W 5776   7.207   1.881   9.512 -0.3281 -0.0248 -0.3316
 5777W        W 5777   8.604  10.015   6.665 -0.0539  0.0100 -0.0448
 5778W        W 5778   5.235   7.597   0.797 -0.1278 -0.5158 -0.0144
 5779W        W 5779   8.619   5.060   7.358 -0.1529  0.2381  0.1479
 5780W        W 5780   1.956   7.768   1.640 -0.0336  0.1808  0.0848
 5781W        W 5781   8.824   5.327   3.696  0.2343  0.1683 -0.0352
 5782W        W 5782   7.186   1.222  10.029  0.3790 -0.1125 -0.3660
 5783W        W 5783   2.858   2.576   5.375 -0.0117 -0.1960  0.1268
 5784W        W 5784   5.032   7.512   2.335 -0.0491 -0.1344  0.0016
 5785W        W 5785   8.088   7.562   1.791 -0.0220  0.1383 -0.1840
 5786W        W 5786   7.457   8.251   0.917 -0.1468 -0.3231 -0.1516
 5787W        W 5787   8.591   0.944  10.196 -0.0913  0.1754 -0.1090
 5788W        W 5788   6.294   5.067   0.480  0.2416 -0.1030  0.1986
 5789W        W 5789   3.548   0.179   7.153 -0.0112  0.0553 -0.1110
 5790W        W 5790   0.189   7.823   5.600  0.2748  0.1956 -0.2034
 5791W        W 5791   9.447   2.267   4.130  0.1780 -0.0151 -0.0118
 5792W        W 5792   7.732   6.990   9.564  0.0508 -0.0325 -0.1607
 5793W        W 5793   9.856   7.008   0.988 -0.0251 -0.0195  0.2435
 5794W        W 5794   2.744   3.192   4.012 -0.2713 -0.1814  0.0177
 5795W        W 5795   1.028   2.369   1.051 -0.0864 -0.0909 -0.2224
 5796W        W 5796  10.344   2.794   3.871  0.2227 -0.3079  0.2799
 5797W        W 5797   9.711   8.174   2.530  0.2664 -0.0467  0.2332
 5798W        W 5798   2.312   7.992   3.170  0.0001  0.0212  0.2369
 5799W        W 5799   1.817   5.805   4.751  0.0322  0.3496 -0.0706
 5800W        W 5800   9.629   0.902   6.586  0.0280  0.0673 -0.2904
 5801W        W 5801   2.192   5.063   2.656 -0.2747  0.0406 -0.0233
 5802W        W 5802   6.079   1.515   3.528  0.1892  0.2648  0.1384
 5803W        W 5803   3.025   8.685   1.019  0.0043 -0.1948  0.0726
 5804W        W 5804   6.619   5.666   9.919  0.0963 -0.0855  0.4524
 5805W        W 5805   0.214   9.131   3.248  0.2560  0.0268  0.1418
 5806W        W 5806   4.184   2.214   0.889  0.3466 -0.2361  0.4318
 5807W        W 5807   7.031   8.936   3.057 -0.1783 -0.0350 -0.0244
 5808W        W 5808   5.007   9.737   7.987 -0.3299 -0.1088  0.1964
 5809W        W 5809   9.780   5.791   2.297 -0.0414 -0.0801  0.3641
 5810W        W 5810   3.508   1.661   1.986 -0.0651 -0.1829 -0.1076
 5811W        W 5811   9.683   1.852   3.832 -0.2198  0.2417  0.0028
 5812W        W 5812   4.746   1.655   4.288  0.0556 -0.0667  0.0499
 5813W        W 5813   4.810   1.618   3.169 -0.3768  0.2243 -0.1865
 5814W        W 5814   7.957   2.336   3.821  0.4083 -0.0122  0.1102
 5815W        W 5815   4.110   3.170   7.285 -0.3349  0.1099 -0.0593
 5816W        W 5816   7.293   3.640   8.868 -0.0446  0.2960 -0.1263
 5817W        W 5817   6.925   7.759   7.137 -0.0420 -0.0983  0.0530
 5818W        W 5818   7.567   1.624   7.204  0.0954  0.0809 -0.0085
 5819W        W 5819   9.609   4.537   9.003 -0.1358  0.2700 -0.2207
 5820W        W 5820   1.875   4.745   1.816  0.2084  0.0910 -0.2082
 5821W        W 5821   1.561   8.491   6.455 -0.2192  0.0644  0.1754
 5822W        W 5822   6.159   8.407   9.772 -0.1456  0.1895 -0.1434
 5823W        W 5823   2.262   2.815   6.179  0.0664  0.0066 -0.2008
 5824W        W 5824   1.974   0.211   4.751 -0.0378  0.4780 -0.0276
 5825W        W 5825   7.895   6.207   9.467 -0.1772 -0.1448  0.1525
 5826W        W 5826   1.488   5.087   1.001  0.1520  0.0975  0.0218
 5827W        W 5827   8.947   7.206   8.040 -0.0159  0.1094 -0.2635
 5828W        W 5828   1.546   3.567   4.209  0.0260 -0.2121  0.2893
 5829W        W 5829   4.779   8.147   8.052 -0.2164  0.1119 -0.3284
 5830W        W 5830   2.217   2.747   9.125 -0.0944 -0.1160 -0.0412
 5831W        W 5831   1.950   3.751   1.891  0.0338 -0.1400 -0.1130
 5832W        W 5832   4.652   5.195   1.375  0.1358 -0.2498 -0.0250
 5833W        W 5833   9.939   6.239   3.960  0.0542  0.0626  0.0306
 5834W        W 5834   0.846  10.068   6.716 -0.0120  0.1771  0.0199
 5835W        W 5835   7.967   9.637   7.183 -0.1031 -0.0537  0.0711
 5836W        W 5836   9.783   2.419   6.735 -0.0804 -0.3076  0.0453
 5837W        W 5837   8.228   9.220   7.028 -0.3432  0.0503 -0.0228
 5838W        W 5838   3.390   0.129   4.579 -0.0061  0.2770 -0.2382
 5839W        W 5839   8.781  10.155   4.915  0.1838  0.1112 -0.0028
 5840W        W 5840   8.346   2.208   9.420 -0.0421 -0.1265 -0.0313
 5841W        W 5841   6.794   9.529   7.110  0.0702  0.0290 -0.2215
 5842W        W 5842   9.655  10.183   4.774 -0.0561 -0.1271  0.2693
 5843W        W 5843   9.450   0.223   4.444  0.2580  0.0896  0.1827
 5844W        W 5844   6.961   7.427   9.362  0.0001  0.2036  0.0818
 5845W        W 5845   0.540   3.913   8.321 -0.2162 -0.1612  0.0691
 5846W        W 5846   4.480  10.060   4.294  0.0792  0.3627 -0.0734
 5847W        W 5847   8.548   7.818   9.282  0.0505 -0.0260  0.0659
 5848W        W 5848   6.590   4.591   7.166 -0.0218 -0.1670  0.0530
 5849W        W 5849   0.754   5.388   2.440 -0.1959  0.2134  0.1240
 5850W        W 5850   6.440   7.528   9.272 -0.0592  0.1911  0.3167
 5851W        W 5851   3.592   7.425   4.232  0.2795 -0.0047  0.1184
 5852W        W 5852   4.608   0.120   4.648  0.0727  0.0351 -0.0486
 5853W        W 5853   2.275   5.334   6.589  0.1778 -0.0016  0.0222
 5854W        W 5854   4.525   5.128   9.545  0.1028 -0.0658  0.0093
 5855W        W 5855   0.382   3.725   3.756 -0.0474  0.2143  0.1446
 5856W        W 5856   1.288   4.899   9.759 -0.0007 -0.0208 -0.3012
 5857W        W 5857   0.473   5.043   9.710  0.1771 -0.2664 -0.2416
 5858W        W 5858   1.363   9.902   3.993 -0.1763  0.2799  0.0649
 5859W        W 5859   7.579   6.297   3.234 -0.2060 -0.1244  0.0040
 5860W        W 5860   2.237   2.097   0.896  0.2062  0.0748  0.1400
 5861W        W 5861   3.140   9.310   6.394  0.1735  0.0156  0.0990
 5862W        W 5862   4.400   1.815   1.216  0.0504  0.1465  0.1505
 5863W        W 5863   0.911  10.117   9.774  0.2246 -0.0659 -0.3017
 5864W        W 5864   3.828   4.542   6.748  0.1168  0.2383 -0.0763
 5865W        W 5865   3.841   7.434   3.245  0.1111  0.0629 -0.2495
 5866W        W 5866   6.676   3.848   6.760 -0.0840  0.1638 -0.2995
 5867W        W 5867   6.837   5.034   9.057 -0.2208  0.3699  0.1156
 5868W        W 5868   7.973   2.341   9.895  0.2299 -0.1778 -0.1616
 5869W        W 5869   3.469   0.409   4.950  0.0699  0.0105 -0.1809
 5870W        W 5870   1.892   9.148   0.199  0.1117 -0.0806 -0.0024
 5871W        W 5871   1.988   6.834   0.020 -0.1082 -0.2233 -0.1953
 5872W        W 5872   2.123   4.218   0.224  0.2872 -0.1458  0.0544
 5873W        W 5873   5.460   7.735   5.041 -0.2500  0.0857 -0.0734
 5874W        W 5874   2.138   6.898   3.374 -0.3733  0.0104 -0.0660
 5875W        W 5875   3.241   3.959   5.032  0.1719  0.2850  0.0716
 5876W        W 5876   5.929   5.899   2.327  0.0554  0.4147  0.0830
 5877W        W 5877   7.770   4.609   7.433  0.2382 -0.2982 -0.1569
 5878W        W 5878   5.961   1.328   0.326  0.2277  0.2008  0.4025
 5879W        W 5879   6.091   5.234   6.759 -0.0775 -0.1963 -0.2845
 5880W        W 5880   1.541   1.151   7.793  0.0245  0.2140  0.0338
 5881W        W 5881   8.599   5.599   7.212 -0.1801 -0.0984 -0.1332
 5882W        W 5882   3.234   9.311  10.198  0.0793 -0.0940  0.2241
 5883W        W 5883   8.870   0.890   7.238  0.2463 -0.2365  0.4013
 5884W        W 5884   6.027   0.980   4.150  0.1770 -0.2031  0.1475
 5885W        W 5885   6.779   2.470   8.075  0.1485 -0.1692 -0.1353
 5886W        W 5886   3.671   7.827   5.297  0.1385 -0.0681 -0.1643
 5887W        W 5887   4.229   9.452   5.413 -0.1975  0.2674  0.0408
 5888W        W 5888   7.000   2.616   0.775 -0.2721 -0.1242 -0.1416
 5889W        W 5889   3.886   9.791   3.324  0.2187 -0.0757  0.1853
 5890W        W 5890   4.035   0.221   7.343 -0.0466 -0.1213  0.0785
 5891W        W 5891   7.219   3.929   6.075 -0.4150 -0.1230  0.1497
 5892W        W 5892   9.798   0.227   1.304  0.0529  0.0099 -0.1268
 5893W        W 5893   6.919   6.101   9.185  0.1054 -0.1276 -0.0988
 5894W        W 5894   6.971   0.560   9.177 -0.0669 -0.1973 -0.0789
 5895W        W 5895   9.886   0.633   7.792  0.0522  0.2025  0.1301
 5896W        W 5896   6.251   0.212  10.118 -0.0490 -0.3619 -0.2196
 5897W        W 5897   9.532   9.721  10.120 -0.0774  0.1585  0.2101
 5898W        W 5898   1.880   0.369   3.035  0.1138 -0.3249  0.0613
 5899W        W 5899   4.515   6.170   2.808 -0.1605 -0.1591 -0.1442
 5900W        W 5900   7.409   3.243   3.685 -0.1227  0.0081 -0.4045
 5901W        W 5901   8.856   4.745   4.366  0.1017 -0.0341 -0.0009
 5902W        W 5902   0.681   2.461   2.409 -0.1955  0.4938  0.1357
 5903W        W 5903   3.742   9.804   1.184 -0.2779  0.0012 -0.0543
 5904W        W 5904   9.216   0.434   6.481 -0.0098 -0.0739  0.1401
 5905W        W 5905   2.152   5.581   7.762 -0.0342  0.1604  0.0542
 5906W        W 5906   3.494   9.795   9.179  0.1685  0.2878  0.1815
 5907W        W 5907   1.186   4.489   8.981  0.1472  0.1942  0.2266
 5908W        W 5908   4.787   9.437   8.536 -0.1130 -0.0064 -0.2444
 5909W        W 5909   0.124   2.729   5.251  0.0547  0.3006 -0.2050
 5910W        W 5910   8.523   5.660   9.124 -0.1091 -0.0819  0.1301
 5911W        W 5911   8.789   1.552   8.963 -0.1154 -0.2876 -0.1307
 5912W        W 5912   5.881   1.472   2.598  0.0284  0.0880 -0.2460
 5913W        W 5913   8.679   4.781   0.426  0.1742 -0.0690  0.2011
 5914W        W 5914   8.372   2.521   1.180 -0.0393  0.1153  0.1496
 5915W        W 5915   2.887   1.685   6.361 -0.0156 -0.0166 -0.0284
 5916W        W 5916   7.848   8.088   1.352 -0.1470 -0.0804  0.0840
 5917W        W 5917   7.759   8.043   4.067 -0.2128 -0.1548 -0.0351
 5918W        W 5918   1.323   9.806   9.915  0.1966  0.1062 -0.0311
 5919W        W 5919   4.849   0.660   6.481  0.0567  0.2390  0.0296
 5920W        W 5920   8.525   3.799   0.770  0.1340  0.2058  0.0969
 5921W        W 5921   5.115   5.600   6.976 -0.2090  0.1188 -0.3507
 5922W        W 5922   1.067   8.012   5.150 -0.3431 -0.2336 -0.0200
 5923W        W 5923   5.478   6.113   8.318 -0.0807  0.0744 -0.2947
 5924W        W 5924   2.183   9.792   3.795  0.2737 -0.0084 -0.0334
 5925W        W 5925   6.486   8.870   0.867 -0.1518 -0.2002 -0.0509
 5926W        W 5926   7.993   0.176   5.511  0.1663 -0.0245 -0.4210
 5927W        W 5927   6.765   0.140   5.400  0.0971 -0.1654  0.0399
 5928W        W 5928   3.560   4.172   6.998  0.2055 -0.0496 -0.1012
 5929W        W 5929   1.647   9.806   2.502  0.2671 -0.0615  0.2601
 5930W        W 5930   6.513   9.639   7.523  0.0613 -0.1551 -0.0514
 5931W        W 5931   1.912   3.185   3.928 -0.1213  0.2140 -0.1037
 5932W        W 5932   5.627   6.501   8.043 -0.0083 -0.0737 -0.1920
 5933W        W 5933   9.037   1.566   3.021  0.0011  0.2236 -0.3112
 5934W        W 5934   0.215   9.020   8.524 -0.0829 -0.0602 -0.0605
 5935W        W 5935   3.143   0.588   4.613 -0.0901 -0.1104 -0.0584
 5936W        W 5936   1.986   7.882   0.727 -0.1497 -0.2024 -0.0093
 5937W        W 5937   8.946   1.576   3.595 -0.2342  0.0910  0.0926
 5938W        W 5938  10.225   5.066   6.664 -0.0591 -0.1437  0.1956
 5939W        W 5939   1.636   9.289   9.824 -0.1895 -0.0662  0.0445
 5940W        W 5940   1.500   6.186   7.246 -0.1480 -0.0490  0.0866
 5941W        W 5941   1.885   9.579   7.908 -0.4944 -0.0634  0.0705
 5942W        W 5942   0.496   5.281   8.296  0.0841 -0.1722  0.2538
 5943W        W 5943   4.600   8.502  10.173  0.0205 -0.0289 -0.0024
 5944W        W 5944   7.823   2.914   2.829 -0.1156  0.4831 -0.0006
 5945W        W 5945   4.200   8.076   4.490 -0.1416 -0.4034  0.2674
 5946W        W 5946   4.621   5.760   8.120 -0.1493  0.0390 -0.1031
 5947W        W 5947   3.593   7.475   9.217 -0.0738  0.1245 -0.2347
 5948W        W 5948   8.177   3.001  10.336 -0.3487  0.2444  0.0135
 5949W        W 5949   4.491   3.892   3.172  0.2859  0.0478 -0.3745
 5950W        W 5950   0.055   3.667   1.423 -0.1118 -0.2072  0.0871
 5951W        W 5951   8.531   7.540   7.716  0.1330  0.0314  0.3394
 5952W        W 5952   2.730   9.086   3.363  0.0352 -0.3206  0.0222
 5953W        W 5953   0.147   7.556   9.696  0.0269  0.2523 -0.1875
 5954W        W 5954   7.879   1.729   1.462 -0.1979 -0.2848 -0.5518
 5955W        W 5955   7.063   1.136   5.697 -0.5632 -0.2659 -0.4161
 5956W        W 5956   5.861   4.511   2.424  0.1930  0.0637  0.3546
 5957W        W 5957   8.135   2.910   0.651  0.0605  0.1815 -0.0953
 5958W        W 5958   5.366   0.861   3.785  0.0421 -0.1185  0.3078
 5959W        W 5959   9.331   1.538   2.568 -0.1934  0.1516 -0.4890
 5960W        W 5960   3.875   3.748   2.216 -0.1639 -0.0208 -0.0111
 5961W        W 5961   0.316   6.121   6.636  0.2323 -0.0202 -0.2543
 5962W        W 5962   4.174   4.196   6.001 -0.2259 -0.2201  0.1377
 5963W        W 5963   9.061   2.445   5.004  0.1867 -0.3240 -0.2233
 5964W        W 5964   2.880   9.459   5.052  0.0960  0.2197  0.4024
 5965W        W 5965   5.522   7.030   6.300  0.1896 -0.2704 -0.0510
 5966W        W 5966   1.899   7.778   0.233 -0.0364  0.6667 -0.2053
 5967W        W 5967   3.046   2.676   8.713  0.0480  0.2484 -0.0559
 5968W        W 5968   6.379   4.090   0.473  0.0758 -0.0818 -0.0473
 5969W        W 5969   0.998   6.570   9.101  0.0611  0.4591  0.0291
 5970W        W 5970   0.135   1.195   1.063 -0.3359 -0.0019  0.3825
 5971W        W 5971   9.247   7.151   0.517 -0.0004 -0.1178 -0.2380
 5972W        W 5972   8.603   4.165   1.143 -0.3351 -0.1171 -0.0512
 5973W        W 5973   1.855   3.172   8.165 -0.1364 -0.1591  0.1349
 5974W        W 5974   1.306   2.443   0.324 -0.3417 -0.1718  0.3710
 5975W        W 5975   3.545   4.414   0.786 -0.2169 -0.2675 -0.1612
 5976W        W 5976   8.246  10.266   3.480 -0.0161  0.0661 -0.1658
 5977W        W 5977   5.414   4.184   8.105 -0.1830  0.2951  0.0656
 5978W        W 5978   3.905   8.692   2.024 -0.0952  0.0700 -0.3931
 5979W        W 5979   5.930   6.384   2.629 -0.1431 -0.2490 -0.1624
 5980W        W 5980   8.843   4.597  10.090  0.1118 -0.3012  0.0225
 5981W        W 5981   5.111   7.981   2.059 -0.0732 -0.0082 -0.5427
 5982W        W 5982   8.194   7.545   4.799  0.0739 -0.0480  0.1366
 5983W        W 5983   4.011   8.887   9.377 -0.0886 -0.1499  0.1608
 5984W        W 5984   6.444   5.754   2.192  0.1014  0.3375 -0.2944
 5985W        W 5985   9.451   5.284   7.723 -0.1988 -0.0917 -0.2994
 5986W        W 5986  10.184   5.783   8.439 -0.0537 -0.1197 -0.1461
 5987W        W 5987   7.998   0.134   8.769 -0.0702  0.1120 -0.1200
 5988W        W 5988   8.841   8.089   8.894  0.1709  0.5402 -0.0294
 5989W        W 5989   2.546   4.819   3.620  0.2758  0.0465  0.1601
 5990W        W 5990   9.432   8.822   8.765 -0.0622  0.1247 -0.0146
 5991W        W 5991   8.905   5.696   6.816  0.1379  0.2397  0.1681
 5992W        W 5992   5.056   1.830   3.950  0.2854 -0.0826 -0.0732
 5993W        W 5993   6.459   4.554   8.089  0.1259  0.0102  0.2685
 5994W        W 5994   3.073   2.164   8.839 -0.0472 -0.2925  0.1070
 5995W        W 5995  10.287   8.673   9.248  0.3305  0.1687 -0.2411
 5996W        W 5996   2.801   7.850   4.121  0.0367  0.1295  0.0002
 5997W        W 5997   1.051   4.582  10.050  0.1826  0.1273 -0.1639
 5998W        W 5998   2.652   5.942   5.900  0.0129 -0.0077  0.1679
 5999W        W 5999   9.435   6.385   3.220  0.0342  0.3823 -0.4630
 6000W        W 6000   4.472   7.187   9.268  0.2640 -0.0444 -0.0834
 6001W        W 6001   7.202   9.155   1.281 -0.0907  0.1287  0.1294
 6002W        W 6002   5.154   2.857   2.617 -0.0502 -0.1085 -0.2278
 6003W        W 6003   7.244   4.627   8.860  0.2943 -0.1445 -0.1267
 6004W        W 6004   5.227   9.950   5.054  0.1551  0.0719  0.1608
 6005W        W 6005   7.162   0.015   7.191  0.2210 -0.0880 -0.3750
 6006W        W 6006   7.622  10.262   7.542  0.0739 -0.0065 -0.2735
 6007W        W 6007   0.183   4.017   6.512 -0.3310 -0.2112 -0.1720
 6008W        W 6008   1.522  10.008   3.012  0.3038  0.1031 -0.1022
 6009W        W 6009   2.769   6.569  10.048  0.1059  0.2437  0.3256
 6010W        W 6010   9.184   0.892   5.930  0.1326  0.2608  0.1776
 6011W        W 6011   3.120   0.800   3.533 -0.1997  0.0811  0.1798
 6012W        W 6012   1.105   0.391   6.175  0.0462 -0.3096  0.3411
 6013W        W 6013   8.045   1.626   7.385 -0.0035 -0.0737 -0.1161
 6014W        W 6014   6.680   0.370   6.763  0.0805 -0.2504 -0.0628
 6015W        W 6015   1.215   5.426   6.936 -0.0514  0.0012  0.0941
 6016W        W 6016   7.547   5.445   6.644  0.2827 -0.2608 -0.0608
 6017W        W 6017   8.073   1.089   3.671  0.0232 -0.0550  0.1323
 6018W        W 6018   7.521   5.809   9.220 -0.0241 -0.0955 -0.1016
 6019W        W 6019   1.273   6.919   2.436  0.2142 -0.0087 -0.0723
 6020W        W 6020   5.468   9.926   6.761 -0.3032 -0.0371 -0.2290
 6021W        W 6021   6.715   2.920   1.051  0.1545 -0.1877  0.0300
 6022W        W 6022   9.706   3.140   9.557 -0.0140 -0.3953 -0.0779
 6023W        W 6023   6.072   0.381   8.225  0.0568 -0.1110  0.1504
 6024W        W 6024   3.639   9.737   3.946 -0.2192  0.0193 -0.1931
 6025W        W 6025   7.315   0.658   1.197 -0.0373  0.2598  0.2222
 6026W        W 6026   0.189   1.429   1.552 -0.0444 -0.1107  0.1405
 6027W        W 6027   8.510   3.608   9.550  0.0045 -0.0008  0.0636
 6028W        W 6028   4.686   3.835   4.295  0.0770 -0.0187  0.1599
 6029W        W 6029   3.756  10.202   7.567  0.0475  0.1237 -0.1185
 6030W        W 6030   0.714   7.299   4.950  0.1624 -0.0618 -0.1645
 6031W        W 6031   8.107   0.639   3.500 -0.1150 -0.0040 -0.0889
 6032W        W 6032   3.550   8.765   8.693  0.0127 -0.2197 -0.1911
 6033W        W 6033   0.234   5.703   7.460 -0.1681  0.0641 -0.1701
 6034W        W 6034  10.247   5.871   4.597 -0.0163  0.1981 -0.0784
 6035W        W 6035   4.620   2.205   0.040  0.1145  0.0051  0.0028
 6036W        W 6036   2.364   0.864   2.256  0.1731 -0.1014  0.2013
 6037W        W 6037   9.146   6.465   4.664 -0.1462 -0.1353  0.0722
 6038W        W 6038   1.032   6.404   0.916  0.2257 -0.0421  0.2310
 6039W        W 6039   3.988   5.656   5.501  0.1702  0.4190  0.0003
 6040W        W 6040   3.713   0.390   5.826 -0.3554  0.2464  0.3650
 6041W        W 6041   9.021   8.166   0.611  0.2707  0.1286 -0.1672
 6042W        W 6042   5.337   4.259   5.111  0.1915 -0.1382 -0.1091
 6043W        W 6043   3.719   7.692   4.702 -0.0581 -0.1280  0.0116
 6044W        W 6044   6.866   5.120   1.232  0.2215 -0.0670  0.0725
 6045W        W 6045   7.591   1.818   2.584  0.1773 -0.1929 -0.1458
 6046W        W 6046   1.149   3.659   7.063 -0.2004  0.1628  0.3140
 6047W        W 6047   4.945   4.303  10.116  0.1509  0.0722  0.2557
 6048W        W 6048   3.983   0.090   2.760 -0.1349  0.0448  0.0574
 6049W        W 6049   0.324   7.361   0.893  0.1343 -0.0241  0.1140
 6050W        W 6050   3.584   2.223   0.176  0.1922  0.2284  0.0324
 6051W        W 6051   4.557   0.157   7.516 -0.2126  0.3708  0.0998
 6052W        W 6052   2.166   2.060   8.174  0.0156  0.1255  0.1203
 6053W        W 6053   8.031   9.955   6.797 -0.1095  0.0667  0.2078
 6054W        W 6054   6.967   5.267   9.815  0.0887 -0.0479  0.1435
 6055W        W 6055   1.271   9.749   7.925 -0.0413 -0.1729 -0.1818
 6056W        W 6056   1.473   1.484   3.996 -0.1099 -0.0775 -0.0418
 6057W        W 6057   0.650   4.368   0.080  0.0265  0.1791 -0.0895
 6058W        W 6058   4.543   8.663   2.013 -0.0421  0.0659  0.2035
 6059W        W 6059   1.765   6.971   0.471  0.1818 -0.1482 -0.4148
 6060W        W 6060   3.686   4.063   0.334 -0.4061 -0.0279 -0.1090
 6061W        W 6061   0.039   9.631   5.767  0.0760  0.0748  0.0993
 6062W        W 6062   0.570   8.009   4.173 -0.0938  0.0238  0.1723
 6063W        W 6063   0.968   1.603   8.378  0.1132 -0.0133 -0.2130
 6064W        W 6064   2.991   1.527   2.808  0.1035 -0.2142 -0.1673
 6065W        W 6065  10.007   4.896   7.988  0.1252  0.3608  0.0825
 6066W        W 6066   0.666   4.351   9.811 -0.0372 -0.2059  0.1890
 6067W        W 6067   3.353   1.200   1.550  0.0310 -0.2525  0.0718
 6068W        W 6068   0.257   0.880   6.362  0.0124 -0.0658 -0.0078
 6069W        W 6069   9.835   9.937   9.678 -0.2288 -0.1786 -0.2461
 6070W        W 6070   2.956   3.103   5.343  0.1112 -0.2025 -0.0889
 6071W        W 6071  10.136   4.280   4.562  0.1627  0.4389 -0.2125
 6072W        W 6072   0.081   9.472   8.224 -0.0645 -0.0604  0.0616
 6073W        W 6073   8.970   5.173   0.577  0.2340  0.0044 -0.0294
 6074W        W 6074   8.515   2.848   9.954  0.1940  0.0079 -0.1302
 6075W        W 6075   5.804   4.512   9.581 -0.0897 -0.2941  0.1760
 6076W        W 6076   2.426   6.221   6.678 -0.2437  0.1173  0.1546
 6077W        W 6077   6.855   4.552   2.707 -0.1117 -0.0192  0.2191
 6078W        W 6078   4.740   5.691   1.602  0.0359 -0.2676 -0.2044
 6079W        W 6079   3.134   5.958   0.075 -0.0157  0.1258 -0.2208
 6080W        W 6080   7.429   9.832   0.145  0.2652 -0.2220  0.2105
 6081W        W 6081   2.379   7.592   9.693  0.2017 -0.2726 -0.2794
 6082W        W 6082   3.010   5.323   3.023 -0.0429 -0.1852  0.1375
 6083W        W 6083   4.075   9.082   7.977  0.0682 -0.0673 -0.2146
 6084W        W 6084   2.749   1.308   2.355  0.0507  0.1490  0.1231
 6085W        W 6085   4.352   1.346   1.375  0.1387  0.1170 -0.0740
 6086W        W 6086   3.931   2.996   9.594 -0.1134  0.1585  0.1020
 6087W        W 6087   1.078   7.372   8.688 -0.2757 -0.0861  0.0632
 6088W        W 6088   1.352   9.419   2.972 -0.2667  0.3686  0.2290
 6089W        W 6089   9.352   7.529   7.096  0.1142 -0.0522 -0.0858
 6090W        W 6090   9.844   5.938  10.151  0.0175  0.1826  0.0099
 6091W        W 6091   2.332   0.974   8.391  0.1171  0.1671 -0.2946
 6092W        W 6092   8.609   2.352   2.634 -0.1681  0.3295 -0.0086
 6093W        W 6093   9.224   3.148   8.836 -0.1278  0.0495  0.0109
 6094W        W 6094   9.468   9.650   3.933 -0.0032  0.1337 -0.1849
 6095W        W 6095   2.856   1.045   2.752 -0.1371  0.1638 -0.2210
 6096W        W 6096   7.904   4.558   6.910 -0.1631 -0.0096  0.0353
 6097W        W 6097   3.074   0.025   9.949  0.1440 -0.1439  0.0471
 6098W        W 6098   9.463  10.080   2.414 -0.0462  0.1079 -0.1340
 6099W        W 6099   1.341   7.464   2.224  0.3894  0.0715  0.2960
 6100W        W 6100   5.196   0.289   1.061  0.2515 -0.0233  0.2398
 6101W        W 6101   2.237   5.233   5.171  0.2174 -0.1309  0.0209
 6102W        W 6102   8.407   4.239   2.793 -0.1453  0.1105  0.1905
 6103W        W 6103   6.892   9.946   1.398 -0.0942 -0.0115  0.0377
 6104W        W 6104   6.715   0.841   0.197 -0.0278 -0.4043  0.1633
 6105W        W 6105   7.660   0.598   6.659  0.2776  0.0752 -0.1572
 6106W        W 6106   9.815   5.191   6.933 -0.0494 -0.0076  0.1368
 6107W        W 6107   5.555   0.337   1.734  0.0188  0.0035  0.1003
 6108W        W 6108   4.827   0.177   6.570  0.0531  0.2955  0.0123
 6109W        W 6109   7.296   5.689   9.780 -0.4422 -0.0689  0.0524
 6110W        W 6110   2.172   7.233   0.265 -0.1921 -0.0568  0.0077
 6111W        W 6111   3.321   5.646   2.425 -0.0154 -0.0316  0.0899
 6112W        W 6112   1.792   7.184   3.086  0.0873  0.0018 -0.0830
 6113W        W 6113   2.469   1.911   4.106  0.0642 -0.0549  0.0005
 6114W        W 6114   3.420   0.781   7.979 -0.1013 -0.2432  0.1095
 6115W        W 6115   6.687   1.531   3.630 -0.3041  0.1402  0.0114
 6116W        W 6116   3.674   2.119   3.282  0.1061  0.0016  0.0951
 6117W        W 6117   6.732   0.588   2.606 -0.1921 -0.0659  0.1308
 6118W        W 6118   1.186   0.770   5.015 -0.3382  0.0907 -0.0733
 6119W        W 6119   8.041   5.021   7.611  0.2081 -0.3326  0.0109
 6120W        W 6120   1.290   0.774   7.571 -0.2631  0.0711 -0.1371
 6121W        W 6121   6.796   3.692   3.183  0.0286 -0.0839 -0.1064
 6122W        W 6122   0.499   7.639   4.617  0.2871 -0.0260  0.0020
 6123W        W 6123   5.154   7.893   8.255  0.0199 -0.3647  0.0119
 6124W        W 6124   4.268   0.103   5.432  0.0012  0.0238 -0.2938
 6125W        W 6125   9.754   7.068   7.097 -0.0441  0.0250 -0.2314
 6126W        W 6126   2.595   7.010   7.433 -0.1090 -0.0456  0.2794
 6127W        W 6127   0.141   2.382   1.150 -0.2125 -0.0757 -0.2636
 6128W        W 6128   8.266   8.641   9.495 -0.0218  0.1512 -0.0721
 6129W        W 6129   4.450  10.102   2.609  0.1387  0.2031  0.1235
 6130W        W 6130   1.999   0.118   6.352  0.2391  0.1085 -0.1550
 6131W        W 6131   1.974   3.520   2.504  0.1192 -0.0333 -0.0624
 6132W        W 6132   6.202   3.122   8.392 -0.2321 -0.1949 -0.0614
 6133W        W 6133   2.655   5.497   1.803  0.1969 -0.0602  0.2462
 6134W        W 6134   4.686   5.228   2.893 -0.0504  0.0880  0.2282
 6135W        W 6135   2.065   9.488   7.349  0.2342 -0.2389 -0.2330
 6136W        W 6136   5.169   6.921   2.691  0.3438 -0.0778  0.0507
 6137W        W 6137   3.591   8.856   5.545  0.0486 -0.1277  0.0666
 6138W        W 6138   6.192   1.655   0.730  0.1836 -0.0110 -0.0072
 6139W        W 6139   9.816   5.880   7.042 -0.1798  0.0921  0.4277
 6140W        W 6140   0.724   6.393   6.864 -0.0005 -0.3164 -0.1078
 6141W        W 6141  10.335   0.062   3.117  0.4403 -0.0676 -0.0535
 6142W        W 6142   9.497   9.372   6.120  0.2179  0.2542 -0.0390
 6143W        W 6143   2.873   2.947   2.494  0.0772 -0.1069  0.2121
 6144W        W 6144   2.433   8.038   0.935  0.1847  0.4146 -0.0061
 6145W        W 6145   2.762   7.899   2.293 -0.1613  0.1256 -0.0983
 6146W        W 6146   0.414   0.677   8.850 -0.0016  0.0744  0.2071
 6147W        W 6147   7.056   5.445   4.309 -0.2029  0.2680  0.0313
 6148W        W 6148   9.870   7.977   6.232 -0.0884 -0.1535 -0.1805
 6149W        W 6149   4.795   4.287   5.212  0.1127 -0.3148  0.0544
 6150W        W 6150   7.877   1.350   4.124 -0.0704  0.1353 -0.0443
 6151W        W 6151   6.761   8.736   2.158 -0.0404  0.1400  0.2767
 6152W        W 6152   4.288   6.652   0.109  0.2015 -0.3215  0.0131
 6153W        W 6153   0.394   1.663   1.014  0.0156 -0.1340  0.0245
 6154W        W 6154   4.972   7.987   5.598 -0.1996 -0.0946  0.1067
 6155W        W 6155   9.672   9.264   9.089 -0.0833 -0.1087  0.1541
 6156W        W 6156   6.746   0.782   5.895  0.3465 -0.0804 -0.1331
 6157W        W 6157   9.044   7.665   2.245 -0.0269 -0.1380  0.2080
 6158W        W 6158   1.151   7.246   1.140 -0.1249  0.2677 -0.3138
 6159W        W 6159   8.415   1.687   5.598 -0.0361  0.2380 -0.0047
 6160W        W 6160   6.845   2.849   9.318 -0.0617 -0.3706 -0.2724
 6161W        W 6161   2.164   1.073   5.685 -0.2179  0.0612 -0.6038
 6162W        W 6162   6.799   3.876   8.396 -0.0203 -0.0940  0.0813
 6163W        W 6163   5.323   0.767   6.812 -0.0047  0.2137 -0.2512
 6164W        W 6164   0.559   6.951   3.629 -0.0843 -0.1550  0.0810
 6165W        W 6165   0.718   8.335   7.303 -0.1381  0.0365 -0.1394
 6166W        W 6166   1.650   8.439   2.074 -0.0842 -0.0781  0.0849
 6167W        W 6167   6.777   9.113   7.368 -0.0909  0.1628  0.3702
 6168W        W 6168   8.983   3.785   7.921  0.1110 -0.1621  0.0422
 6169W        W 6169   3.881   0.012   0.628 -0.2458  0.1663 -0.0410
 6170W        W 6170   4.449   4.329   1.153 -0.2826  0.3383  0.0627
 6171W        W 6171   4.290   2.480   4.516  0.0315 -0.1907  0.0182
 6172W        W 6172   2.043   7.191   9.785 -0.0999  0.1988  0.0353
 6173W        W 6173   1.739   2.491   6.613 -0.1203  0.3196 -0.0342
 6174W        W 6174   4.392   9.985   1.279  0.0618  0.0308 -0.4022
 6175W        W 6175   9.799   0.848   9.242 -0.0273 -0.1753  0.3580
 6176W        W 6176   0.882   9.842   6.151 -0.2048 -0.0854 -0.0060
 6177W        W 6177   6.634   7.476   4.727  0.2211  0.1821  0.3018
 6178W        W 6178   9.437   6.544   2.102  0.1291 -0.0308 -0.1175
 6179W        W 6179   3.820   2.577   6.739 -0.3392  0.0398 -0.1554
 6180W        W 6180   7.331   4.955   6.350 -0.1214 -0.1395  0.1979
 6181W        W 6181   3.723   3.573   9.482  0.2013  0.1989  0.0640
 6182W        W 6182   9.551   8.861   1.674  0.1250  0.0300 -0.0521
 6183W        W 6183   8.010   2.197   1.343  0.2041 -0.0306 -0.0913
 6184W        W 6184   8.321   9.852   3.268 -0.0044  0.2715  0.1310
 6185W        W 6185   6.698   4.988   5.052  0.1287  0.3808 -0.1061
 6186W        W 6186   5.011   8.466   8.362  0.2296 -0.2581 -0.0144
 6187W        W 6187   1.876   7.080   6.411 -0.0818  0.3101 -0.1216
 6188W        W 6188   7.211   1.168   8.290  0.0161  0.0387  0.0823
 6189W        W 6189   9.189   1.604   5.262  0.0496 -0.1621 -0.0283
 6190W        W 6190   2.504   0.711   8.021  0.1867  0.1447  0.0060
 6191W        W 6191   0.136   9.565   1.608 -0.1004 -0.0004  0.0843
 6192W        W 6192   3.565   2.376   8.123  0.0671  0.0989  0.0419
 6193W        W 6193   3.791   1.556   6.344  0.1610  0.2107 -0.4520
 6194W        W 6194   5.967   5.969   0.394  0.2722 -0.1693 -0.0417
 6195W        W 6195   3.868   1.739   0.006  0.3985  0.1197 -0.1307
 6196W        W 6196   2.160   1.331   0.007  0.0101  0.2012  0.4447
 6197W        W 6197   6.686   0.594   0.684  0.2265  0.0373  0.3163
 6198W        W 6198   0.315   4.030   0.203 -0.2942 -0.0206  0.1893
 6199W        W 6199   3.443   9.366   1.454  0.0352 -0.2274  0.4336
 6200W        W 6200   6.140   5.704   6.392 -0.1055 -0.0382 -0.4006
 6201W        W 6201   6.297   1.515   6.426 -0.0760  0.0431 -0.0008
 6202W        W 6202   1.621   7.850   2.066  0.0113  0.0344  0.1751
 6203W        W 6203   7.436   1.241   2.334  0.1576 -0.0595 -0.1872
 6204W        W 6204   6.380  10.079   5.409 -0.0460  0.0675 -0.0697
 6205W        W 6205   2.389   5.762   6.317 -0.2320  0.0122  0.0035
 6206W        W 6206   8.807   7.795   7.326 -0.1120  0.1088 -0.1337
 6207W        W 6207   0.265   3.273   4.076 -0.0338  0.0250  0.0460
 6208W        W 6208   8.564   5.162   6.466 -0.0420 -0.0869 -0.1102
 6209W        W 6209   2.439   9.733   5.364 -0.0390 -0.1532  0.0828
 6210W        W 6210  10.328   0.062   5.840 -0.0234 -0.1263  0.2238
 6211W        W 6211   7.842   9.659   8.765  0.2174 -0.3489 -0.1925
 6212W        W 6212   2.640   9.201   6.989 -0.1971 -0.0350  0.0018
 6213W        W 6213   1.409   7.699   5.404 -0.1313  0.2211 -0.1814
 6214W        W 6214   1.953   1.644   3.381  0.0502 -0.0260  0.2043
 6215W        W 6215   6.492   8.012   6.998 -0.1436  0.1015 -0.0528
 6216W        W 6216   4.677  10.227   5.122  0.1095  0.0566 -0.0870
 6217W        W 6217   7.984   9.663   4.386 -0.1502  0.0623  0.0546
 6218W        W 6218   1.643   2.782   1.170 -0.3365  0.1680  0.1781
 6219W        W 6219   0.157   4.764   6.358 -0.0684 -0.2202 -0.0409
 6220W        W 6220   8.072  10.065   8.450 -0.0457 -0.1539 -0.1004
 6221W        W 6221  10.279   9.531   2.354  0.0300 -0.2528 -0.0235
 6222W        W 6222   2.494   3.664   2.571  0.3326 -0.1178  0.0920
 6223W        W 6223   6.248   3.405   2.228  0.3306 -0.1456  0.3365
 6224W        W 6224   5.836   6.514   2.111 -0.2898  0.1871 -0.0260
 6225W        W 6225   2.953  10.035   6.008  0.2405 -0.1565 -0.2047
 6226W        W 6226   9.652   9.237   7.839 -0.1889  0.2115 -0.1192
 6227W        W 6227   5.602   2.586   2.592  0.4548  0.1565  0.0203
 6228W        W 6228  10.130   5.013   0.217  0.1303 -0.0808 -0.2911
 6229W        W 6229   3.127   1.596   5.710  0.0886 -0.1310 -0.0140
 6230W        W 6230   2.284   8.729   4.183 -0.1408 -0.1855  0.2012
 6231W        W 6231   6.014   8.988   6.789  0.0443 -0.0399  0.0770
 6232W        W 6232   2.829   2.490   1.120  0.0993 -0.0949  0.1297
 6233W        W 6233   6.458   6.760   5.676 -0.0188 -0.1197  0.3184
 6234W        W 6234   4.349   6.955   2.081 -0.0615 -0.1583  0.1082
 6235W        W 6235   6.958   6.566   1.034  0.0434  0.1057 -0.0346
 6236W        W 6236   9.311   6.905   7.618  0.0280  0.1861  0.0279
 6237W        W 6237   9.453   6.202   7.409 -0.2226  0.0418  0.2177
 6238W        W 6238   2.152   4.049   5.983  0.1391 -0.1066  0.0018
 6239W        W 6239   2.107   4.690   4.419 -0.0067 -0.0671  0.1809
 6240W        W 6240   8.119   2.210   5.270 -0.2168  0.2061 -0.1664
 6241W        W 6241   2.949   3.994   1.104  0.1927  0.0758 -0.0467
 6242W        W 6242   5.576   0.055   0.482 -0.2178 -0.0680 -0.1206
 6243W        W 6243   9.304   0.232   8.857  0.1156 -0.0853 -0.2147
 6244W        W 6244   1.139   9.642   4.366 -0.1236  0.3885  0.3471
 6245W        W 6245   5.507   9.522  10.318  0.1927 -0.3568  0.0298
 6246W        W 6246   1.562   7.855   5.865 -0.4089 -0.4605  0.0248
 6247W        W 6247  10.232   7.929   0.835  0.0193  0.1328 -0.3796
 6248W        W 6248   3.222   5.908   6.892 -0.1328 -0.1621 -0.1776
 6249W        W 6249   1.361   4.339   3.332  0.3242  0.2188  0.0818
 6250W        W 6250   8.808   2.694   1.843  0.1951 -0.0066 -0.2511
 6251W        W 6251   6.711   8.487   7.245 -0.0202  0.1894  0.0950
 6252W        W 6252   3.519   6.470   5.152 -0.1403  0.2588 -0.2076
 6253W        W 6253   8.987   4.876   2.810  0.0599 -0.3400  0.2197
 6254W        W 6254   3.616   2.638   0.446 -0.0957  0.3826 -0.3012
 6255W        W 6255   4.594   5.385   7.737  0.0869 -0.1793  0.1261
 6256W        W 6256   9.033   8.666   9.490  0.1287  0.0410  0.1910
 6257W        W 6257   3.132   8.716   1.817 -0.1099 -0.0139 -0.0829
 6258W        W 6258   8.787   0.482  10.305 -0.0850 -0.0772  0.2723
 6259W        W 6259   1.602   2.760   9.897  0.4248 -0.0729  0.0030
 6260W        W 6260   0.638   9.999   0.823 -0.0960 -0.1242  0.1371
 6261W        W 6261   5.973   1.388   4.444  0.1225 -0.1011 -0.0877
 6262W        W 6262  10.224   3.530   7.434  0.0428  0.3864  0.3436
 6263W        W 6263   5.435   8.596   8.615 -0.0349 -0.0337  0.3768
 6264W        W 6264   0.303   9.637   3.225 -0.2828  0.0618 -0.3672
 6265W        W 6265   2.889   3.451   1.362  0.1148  0.0087 -0.1250
 6266W        W 6266   1.292   0.049   1.231 -0.4686  0.1085 -0.0458
 6267W        W 6267   7.072   4.109   3.101 -0.2632 -0.3928  0.3293
 6268W        W 6268   1.397   0.351   4.596 -0.1169  0.0874 -0.0874
 6269W        W 6269   0.273   4.038   5.023 -0.1543 -0.2019 -0.4733
 6270W        W 6270   3.161   9.197   5.457 -0.2607  0.2587  0.2417
 6271W        W 6271   7.917   2.621   1.027 -0.0671 -0.1600 -0.0275
 6272W        W 6272   3.753  10.095   4.653  0.0133 -0.2558 -0.2926
 6273W        W 6273   8.724   2.751   8.216 -0.2271 -0.3074  0.2628
 6274W        W 6274   5.659   8.138   8.480 -0.0269  0.0013  0.2497
 6275W        W 6275   6.163   5.430   8.639  0.2674 -0.0121  0.1607
 6276W        W 6276   2.601   9.128   0.556 -0.2212 -0.0447  0.1703
 6277W        W 6277   3.172   7.904   6.028 -0.1366  0.4264  0.1639
 6278W        W 6278   4.163   5.437   9.465 -0.4355  0.1072 -0.3618
 6279W        W 6279   6.541   9.996   3.818 -0.3479  0.4774  0.1465
 6280W        W 6280   8.649   6.696   2.436 -0.4226 -0.1801 -0.2756
 6281W        W 6281   0.559   7.345   6.875  0.0415 -0.2677 -0.0467
 6282W        W 6282   6.851   8.887   5.038  0.1401 -0.0845  0.1731
 6283W        W 6283   9.447   6.052   4.690  0.1127  0.0590 -0.1470
 6284W        W 6284   1.897   5.003   4.063  0.0069  0.0685 -0.1687
 6285W        W 6285   2.868   4.234   2.218 -0.2591 -0.2098 -0.1072
 6286W        W 6286   4.423   5.795   2.024  0.0942 -0.2330  0.1910
 6287W        W 6287   3.253   0.420   2.269 -0.0111 -0.2825  0.0654
 6288W        W 6288   3.835   0.527   8.727  0.1255  0.1214 -0.2719
 6289W        W 6289  10.112   2.344   9.469  0.0921  0.3273  0.0273
 6290W        W 6290   0.545   1.754   1.669  0.4592 -0.1190 -0.3864
 6291W        W 6291   4.375   2.862   1.520  0.1264  0.0998  0.1733
 6292W        W 6292   6.270   6.461   1.798 -0.1913 -0.0794  0.0092
 6293W        W 6293   5.943   1.850   6.078  0.1603  0.0156  0.0266
 6294W        W 6294   4.159   2.622   0.590  0.1155 -0.1219  0.0477
 6295W        W 6295   6.068   5.528   0.872  0.0552 -0.1468  0.1200
 6296W        W 6296   8.668   4.318   5.963 -0.1887  0.0412 -0.1172
 6297W        W 6297   2.751   6.635   7.833  0.0239 -0.2327  0.2102
 6298W        W 6298   5.346   0.316   5.714  0.4720 -0.0279 -0.3306
 6299W        W 6299   7.953   3.415   3.798 -0.1413 -0.0258 -0.3236
 6300W        W 6300   7.126   5.084   2.159 -0.3918 -0.0998 -0.0304
 6301W        W 6301  10.001   2.640   3.179  0.0789 -0.0473  0.0154
 6302W        W 6302   9.433   2.639   9.802 -0.1410  0.1449 -0.1760
 6303W        W 6303   0.244   8.462   3.088  0.0402 -0.2427  0.1137
 6304W        W 6304   9.632   8.618   4.184  0.0229 -0.2465 -0.3600
 6305W        W 6305   5.865   4.912   3.197 -0.1394  0.0710 -0.0156
 6306W        W 6306   5.877   7.831   6.912 -0.0962  0.3584  0.3507
 6307W        W 6307   5.793   1.764   5.618  0.1039  0.0532 -0.0851
 6308W        W 6308   0.271   2.516   0.673  0.1183  0.2609  0.1028
 6309W        W 6309   4.013   7.601   1.279 -0.0703 -0.2721 -0.1115
 6310W        W 6310   9.930   8.928   8.808 -0.1637 -0.0608  0.1495
 6311W        W 6311   5.277   5.109   6.965  0.0463  0.1183 -0.2357
 6312W        W 6312   2.371   1.526   4.593 -0.1689 -0.2160 -0.0710
 6313W        W 6313   5.198   1.595   0.501 -0.0455  0.0690  0.0750
 6314W        W 6314   7.149   8.812   5.678 -0.0296  0.0007  0.1901
 6315W        W 6315   3.518   1.384   9.143  0.2987 -0.0374 -0.0316
 6316W        W 6316   8.190   6.426   2.553  0.1732 -0.3777 -0.2541
 6317W        W 6317   6.571   2.154   2.943  0.3972  0.0321  0.1451
 6318W        W 6318   9.246   2.390   1.853  0.0440  0.0588  0.1075
 6319W        W 6319   6.429   1.894   3.399  0.1908 -0.1659 -0.1256
 6320W        W 6320   7.521   1.392   9.614  0.1184  0.1321 -0.1444
 6321W        W 6321   8.983   1.121   0.212  0.1344 -0.2925 -0.0506
 6322W        W 6322   1.410   1.300   1.861 -0.0129  0.1325  0.1323
 6323W        W 6323   3.227   3.723   5.922  0.0605 -0.1724  0.2550
 6324W        W 6324   2.402   2.260   6.257 -0.1774 -0.0706 -0.2263
 6325W        W 6325  10.276   9.953   3.386 -0.0322  0.3587 -0.1691
 6326W        W 6326   0.797   9.225   9.299 -0.3006  0.0606  0.3373
 6327W        W 6327   1.591   0.407   1.106  0.0293 -0.2755 -0.0818
 6328W        W 6328   3.231   1.269   9.686 -0.2690  0.3302  0.0813
 6329W        W 6329   2.737   3.911   0.619 -0.2647 -0.1231 -0.0791
 6330W        W 6330  10.026   6.334   9.776 -0.1039  0.2220  0.2979
 6331W        W 6331   6.505   2.379   1.483 -0.1353  0.1477  0.1961
 6332W        W 6332   7.770   0.716   7.807  0.0716  0.0614 -0.0189
 6333W        W 6333   4.003   3.444   1.229  0.0087  0.0158  0.0837
 6334W        W 6334   2.314  10.318   2.295 -0.2817 -0.0678 -0.1761
 6335W        W 6335   4.494   0.023   1.004  0.3299  0.0862 -0.4293
 6336W        W 6336   5.341   4.869   0.479 -0.3743 -0.1704  0.2078
 6337W        W 6337   7.830   2.509   3.371 -0.0483 -0.0908 -0.2206
 6338W        W 6338   4.207   6.098   1.047 -0.0683 -0.1415  0.0989
 6339W        W 6339   3.473  10.168   0.966  0.1241 -0.0534  0.1396
 6340W        W 6340   6.039  10.305   1.917  0.1270  0.1198 -0.1092
 6341W        W 6341   6.440   7.812   5.539 -0.3915  0.1317  0.2122
 6342W        W 6342   0.906   0.151   8.215  0.2457  0.0748 -0.0381
 6343W        W 6343   4.545   7.693   9.300 -0.2451  0.0266  0.0406
 6344W        W 6344   5.322   9.054   0.121 -0.0368 -0.0665 -0.2921
 6345W        W 6345   3.722   9.956   8.046  0.4496 -0.0752  0.1084
 6346W        W 6346   0.599   7.142   6.424  0.2368  0.0848 -0.1200
 6347W        W 6347   7.180   8.453   1.304 -0.1751  0.1769  0.3891
 6348W        W 6348   0.137   8.236   1.778 -0.2787  0.1325  0.0264
 6349W        W 6349   3.456   4.698   2.598 -0.2046 -0.2652  0.0200
 6350W        W 6350   9.456   3.906   2.242 -0.1038  0.1519 -0.0462
 6351W        W 6351   2.306   9.163   5.948  0.4411  0.0302 -0.3637
 6352W        W 6352   3.134   2.558   6.159  0.1720 -0.3181  0.1240
 6353W        W 6353   5.669   2.476   5.341 -0.2919  0.1686 -0.1672
 6354W        W 6354   6.774   5.732   8.562  0.1110 -0.0218 -0.2587
 6355W        W 6355   7.772   3.703   0.059 -0.1010 -0.1287 -0.0962
 6356W        W 6356   9.587   5.667   6.175 -0.0047  0.0000 -0.1623
 6357W        W 6357   1.750   8.620   9.305 -0.1395 -0.1806 -0.2231
 6358W        W 6358   6.503   0.599   5.493 -0.2331  0.2341  0.1010
 6359W        W 6359   8.825   0.426   2.030  0.2577  0.0498 -0.1968
 6360W        W 6360   3.611   0.291   1.060  0.2254  0.1588  0.1529
 6361W        W 6361   4.752   6.290   5.279 -0.1053 -0.1677 -0.0321
 6362W        W 6362   1.405   4.014   5.168  0.0211  0.2839  0.2415
 6363W        W 6363   7.885   8.432   2.649 -0.1441  0.0093 -0.1092
 6364W        W 6364   8.023   3.238   9.665 -0.1653  0.1199  0.1723
 6365W        W 6365   0.240   2.302   3.785 -0.1162  0.0089 -0.1252
 6366W        W 6366   8.221   8.287   0.537  0.2671  0.1931  0.1546
 6367W        W 6367   2.064   6.779   3.885 -0.0545  0.1159 -0.3528
 6368W        W 6368   0.666   8.223   1.816 -0.3814  0.0162 -0.0008
 6369W        W 6369   2.841   5.652   7.177  0.1120 -0.1627 -0.0401
 6370W        W 6370  10.318   6.995   1.202  0.0105  0.2475  0.0512
 6371W        W 6371   7.259   5.000   8.231  0.0326 -0.1199 -0.0378
 6372W        W 6372   7.308   2.875   1.061 -0.0381 -0.0141  0.0252
 6373W        W 6373   1.489   9.546   7.473 -0.0143 -0.1790  0.3155
 6374W        W 6374   7.570   3.605   9.733  0.1332  0.1097 -0.1499
 6375W        W 6375   9.042   5.204   1.764  0.0692  0.1122  0.1163
 6376W        W 6376   5.262   9.432   0.484  0.0198 -0.1545  0.0512
 6377W        W 6377   1.443   1.500   8.161  0.1832 -0.0379  0.1435
 6378W        W 6378   5.513   4.118   4.227  0.0077 -0.1933 -0.4349
 6379W        W 6379   0.648   5.600   0.403 -0.2195  0.0024 -0.2391
 6380W        W 6380   0.791   9.842   5.226 -0.2123 -0.1322 -0.1176
 6381W        W 6381   8.070   3.088   5.743  0.1284 -0.5455 -0.2503
 6382W        W 6382   6.782   8.552   3.977 -0.1666 -0.0363  0.2294
 6383W        W 6383   3.804   0.868   4.828 -0.2290  0.0361 -0.2200
 6384W        W 6384   4.462   4.381  10.256  0.1262  0.0474  0.0641
 6385W        W 6385   3.002   3.123   9.690 -0.4573  0.1404  0.0382
 6386W        W 6386   9.164   3.731   1.258  0.1562  0.3923 -0.1951
 6387W        W 6387   8.735   3.715   5.245 -0.0236 -0.1639 -0.2030
 6388W        W 6388   2.033   0.207   5.290  0.2164 -0.3214  0.1422
 6389W        W 6389   1.608   6.310   9.634  0.1251  0.0409 -0.0879
 6390W        W 6390   6.028   1.885   9.098 -0.1007  0.1415 -0.1373
 6391W        W 6391   4.083   1.893   7.327  0.2681 -0.0711 -0.0322
 6392W        W 6392   1.251   7.253   9.880  0.1279 -0.0142  0.3728
 6393W        W 6393   1.182   4.749   8.488  0.1945  0.1308  0.0091
 6394W        W 6394   4.183   2.144   0.349  0.1689 -0.0715 -0.0838
 6395W        W 6395   8.219   6.657   4.415  0.1781  0.0666 -0.0703
 6396W        W 6396   7.870  10.342   2.272  0.0836  0.2088 -0.2249
 6397W        W 6397   3.344   3.854   7.286  0.0025  0.3796 -0.4394
 6398W        W 6398   0.984   4.389   5.242 -0.2373 -0.0007 -0.1267
 6399W        W 6399   7.092   9.464   7.534  0.1182 -0.0677 -0.2481
 6400W        W 6400   2.597   7.983   1.447 -0.1605 -0.0401 -0.0513
 6401W        W 6401   8.241   3.608   8.624 -0.0957  0.3234 -0.4840
 6402W        W 6402   2.752   2.028   8.035  0.1977 -0.0586  0.2437
 6403W        W 6403   6.039   6.270   1.377 -0.1886  0.0950  0.0478
 6404W        W 6404   9.363   7.448   7.913  0.0794 -0.3176 -0.0680
 6405W        W 6405   6.963   2.117   0.865  0.2354 -0.3210 -0.2156
 6406W        W 6406   5.565   3.083   2.940  0.2828 -0.0894  0.2642
 6407W        W 6407   5.052   6.753   3.540 -0.0941  0.0036  0.1985
 6408W        W 6408   2.890   0.889   0.064  0.0839 -0.1128 -0.2835
 6409W        W 6409   1.236   1.804   9.055 -0.2758 -0.1921  0.0096
 6410W        W 6410   7.173   5.999   1.959  0.0522 -0.0226 -0.0483
 6411W        W 6411   3.080   0.609   2.724 -0.1411  0.2342 -0.2502
 6412W        W 6412   7.703   8.538   9.546 -0.0617  0.1428  0.0175
 6413W        W 6413   5.183   7.279   0.388 -0.2542 -0.0168  0.0207
 6414W        W 6414   4.344   9.921   3.437  0.3401 -0.0989 -0.1253
 6415W        W 6415   5.414   7.185   0.912 -0.2239  0.0675  0.1122
 6416W        W 6416   5.588   1.778   2.225 -0.1595  0.3891  0.2676
 6417W        W 6417   8.734   6.556   6.057 -0.2153 -0.0869  0.2241
 6418W        W 6418   2.327   2.406   7.756  0.2591  0.1166 -0.0069
 6419W        W 6419   1.544   2.670   4.844 -0.0572 -0.0942 -0.3018
 6420W        W 6420   6.301   1.880   1.628  0.0876 -0.1852  0.1768
 6421W        W 6421   3.990   4.458   3.456  0.1977  0.0399 -0.1011
 6422W        W 6422   4.996  10.072   3.828 -0.0844  0.2319  0.1669
 6423W        W 6423   8.552   5.273   4.581 -0.1642  0.0804  0.3953
 6424W        W 6424   7.643  10.246   9.026 -0.2269  0.0080  0.0948
 6425W        W 6425   5.026   2.727   9.371 -0.0110 -0.1360  0.2375
 6426W        W 6426  10.137   5.590   5.033 -0.1212 -0.2397 -0.0888
 6427W        W 6427   8.402   1.873   2.754  0.1926  0.2186 -0.1930
 6428W        W 6428   0.496   8.832   9.103 -0.3004  0.1030  0.0561
 6429W        W 6429  10.020   0.167   4.740 -0.0551 -0.1327  0.0024
 6430W        W 6430   9.906   5.818   5.420 -0.2761 -0.2038 -0.1431
 6431W        W 6431   6.035   0.249   6.813 -0.0144  0.1725  0.2327
 6432W        W 6432   5.510   6.247   9.970 -0.0762  0.0781 -0.0082
 6433W        W 6433   8.822   2.081   9.355 -0.0679  0.0686  0.0284
 6434W        W 6434   9.811   7.699   1.034  0.0105 -0.1908  0.1268
 6435W        W 6435   0.102   2.075   9.723  0.1417 -0.0996 -0.1123
 6436W        W 6436   3.142   4.623   9.067 -0.0197  0.0348  0.1051
 6437W        W 6437   9.760   2.760   1.019 -0.2733 -0.0755 -0.1465
 6438W        W 6438   6.779   6.013   5.764  0.1107 -0.2303  0.0157
 6439W        W 6439   0.736   6.220   9.781 -0.2884  0.1343 -0.2436
 6440W        W 6440   8.876   2.129   1.632 -0.0968 -0.2332  0.0537
 6441W        W 6441   1.164   5.370   5.292  0.1974  0.2326  0.4207
 6442W        W 6442   0.748   6.930   8.903 -0.0634 -0.1656  0.0963
 6443W        W 6443   3.815   3.682   7.314  0.2598  0.1914  0.0600
 6444W        W 6444   3.181   6.855   2.179  0.2674 -0.2711  0.0483
 6445W        W 6445   4.948   9.821   9.935  0.0710 -0.0501 -0.0293
 6446W        W 6446   4.979   1.425   2.384  0.1540  0.0081 -0.0837
 6447W        W 6447   2.058   8.465   8.411  0.1053 -0.0551 -0.0726
 6448W        W 6448   0.455   3.911  10.034 -0.2379 -0.1957 -0.3441
 6449W        W 6449   3.491   9.797   0.235 -0.0421 -0.1191  0.2291
 6450W        W 6450   5.975   6.104   3.183 -0.0111 -0.0683  0.0071
 6451W        W 6451   6.736   9.734   1.846  0.1092  0.0859  0.0125
 6452W        W 6452   6.532   2.432   1.009 -0.0199  0.2848  0.0423
 6453W        W 6453   1.295   8.485   0.659 -0.0176 -0.0346  0.0918
 6454W        W 6454   3.651   9.388   7.971  0.0653  0.2047 -0.0377
 6455W        W 6455   2.144  10.263   3.085  0.0460  0.0556  0.0983
 6456W        W 6456   0.461   1.012   7.178 -0.1881  0.2707 -0.1143
 6457W        W 6457  10.227   9.188   6.381 -0.0235  0.2431 -0.0687
 6458W        W 6458   3.957   3.201   5.596  0.1299  0.0293 -0.0706
 6459W        W 6459  10.175   4.794   8.463 -0.3472 -0.1054 -0.1452
 6460W        W 6460   5.387   2.567   4.334 -0.1701  0.1658  0.2171
 6461W        W 6461  10.043   0.323   8.990  0.1095 -0.0882  0.1890
 6462W        W 6462   5.770   4.642   0.712 -0.1621  0.3246  0.0772
 6463W        W 6463   6.181   9.181   2.215 -0.1613 -0.2347  0.2479
 6464W        W 6464   8.076   7.487   2.971  0.0629  0.0485  0.2968
 6465W        W 6465  10.135   2.638   1.594  0.2477 -0.1869  0.0364
 6466W        W 6466   3.288   1.341   6.132 -0.2996 -0.1061 -0.2628
 6467W        W 6467   2.953   0.010   6.468 -0.1027 -0.0055  0.1289
 6468W        W 6468   8.308   9.516   2.379  0.1717  0.2369  0.1858
 6469W        W 6469   0.453   3.959   2.391 -0.3917  0.1820 -0.2522
 6470W        W 6470   8.422   2.573   4.011  0.2031  0.0767  0.1914
 6471W        W 6471   3.655   8.536   0.320 -0.3824  0.0329 -0.0738
 6472W        W 6472   6.486   4.678   1.281 -0.1947  0.1565  0.1706
 6473W        W 6473   0.967   6.139   6.418  0.0510 -0.2427  0.1541
 6474W        W 6474   0.064   4.645   5.887  0.1847  0.1427 -0.0342
 6475W        W 6475   2.653   0.770   1.224 -0.5143  0.0329 -0.0888
 6476W        W 6476   3.116   4.286   7.355  0.0578 -0.1273 -0.1998
 6477W        W 6477   3.062   4.763   4.669  0.1479  0.3742  0.2457
 6478W        W 6478   6.934   8.885  10.175  0.1140 -0.1129 -0.0614
 6479W        W 6479   0.447   9.788   1.271  0.1245 -0.0758 -0.0000
 6480W        W 6480   8.994   4.150   7.550 -0.0565 -0.1562 -0.0496
 6481W        W 6481   0.036   5.140   0.711  0.1435  0.0517 -0.0510
 6482W        W 6482   8.707   2.862   2.837 -0.4677 -0.0485  0.2833
 6483W        W 6483   1.298   5.469   7.776  0.0786 -0.0105  0.1896
 6484W        W 6484   0.229  10.315   6.286  0.0497 -0.0840 -0.1604
 6485W        W 6485   0.971   1.934   2.216 -0.1457 -0.0759 -0.0502
 6486W        W 6486   2.300  10.180   9.727  0.1410 -0.0570  0.1523
 6487W        W 6487   4.559   0.542   0.367 -0.1561 -0.0269  0.1511
 6488W        W 6488   5.715   3.328   0.371  0.1992  0.1381  0.0190
 6489W        W 6489   1.698  10.180   6.651  0.3399  0.1764  0.2698
 6490W        W 6490   8.711   1.696   1.073  0.2408 -0.4447 -0.0936
 6491W        W 6491   6.657   7.680  10.336  0.3035  0.0410  0.0506
 6492W        W 6492   0.375   9.143   4.753  0.1797 -0.0482 -0.2684
 6493W        W 6493   2.608   3.739   4.316  0.0992 -0.0045  0.1488
 6494W        W 6494   5.626   1.583   1.702 -0.1259 -0.1979 -0.0168
 6495W        W 6495   7.339   2.422   3.348  0.0743 -0.0025  0.5187
 6496W        W 6496   1.029   6.596   7.171 -0.1267  0.1120  0.1299
 6497W        W 6497   5.486  10.226   3.952  0.0798  0.0756 -0.1286
 6498W        W 6498   4.157   9.909   8.670 -0.0399 -0.1468  0.1991
 6499W        W 6499   9.422   2.129   8.592  0.3093 -0.0663 -0.2258
 6500W        W 6500   3.376   4.682   3.983 -0.0388 -0.0831  0.1441
 6501W        W 6501  10.007   4.428   5.743  0.1338 -0.3698 -0.0500
 6502W        W 6502   3.657   5.276   9.210 -0.1651 -0.0301  0.0216
 6503W        W 6503  10.174   8.463   0.957 -0.0685  0.2777 -0.0090
 6504W        W 6504   5.084   6.169   7.988  0.0493  0.1192  0.0529
 6505W        W 6505   2.125   8.680   1.982  0.0651  0.1440  0.0760
 6506W        W 6506   3.689   8.296   8.309  0.1695  0.0221 -0.0245
 6507W        W 6507   9.908   7.437   8.297  0.0006 -0.5245  0.3376
 6508W        W 6508   2.569   5.299   9.718 -0.1063  0.1494  0.1339
 6509W        W 6509   0.510   3.209  10.022  0.0900 -0.0996 -0.0984
 6510W        W 6510   2.165   7.481   4.118  0.2246  0.0993  0.0183
 6511W        W 6511   3.172   1.675   1.600 -0.0177 -0.4266  0.2570
 6512W        W 6512   6.866   5.505   2.503 -0.0525 -0.0569  0.2092
 6513W        W 6513   1.923   9.622   8.469 -0.1032  0.0918  0.1942
 6514W        W 6514   0.162   8.171   7.306 -0.3264 -0.1113  0.0939
 6515W        W 6515   4.773   4.078   4.775 -0.1078  0.1832  0.2528
 6516W        W 6516   7.440   6.818   1.801  0.1510  0.0604 -0.1003
 6517W        W 6517   5.036   0.097   3.102  0.1792 -0.2976 -0.0127
 6518W        W 6518   5.665   7.365   4.071 -0.1777  0.0379 -0.1170
 6519W        W 6519   1.375   3.020   4.508 -0.0101  0.0277 -0.2992
 6520W        W 6520   2.080   7.919   2.253  0.1620 -0.1282  0.1614
 6521W        W 6521  10.166   2.121   8.937 -0.1177 -0.2639 -0.1546
 6522W        W 6522   4.412   3.164   5.231 -0.1257  0.1543 -0.3501
 6523W        W 6523   1.903   3.655   5.865 -0.1900 -0.0377  0.4135
 6524W        W 6524   6.709   3.914   1.066  0.0029  0.0445  0.0635
 6525W        W 6525   0.751   8.588   3.004  0.2044 -0.0871 -0.0040
 6526W        W 6526   6.604  10.338   3.480  0.2628 -0.2903 -0.0966
 6527W        W 6527   8.439   1.664   7.720 -0.1998 -0.0861 -0.1479
 6528W        W 6528   4.222   0.820   3.011  0.0819 -0.0233 -0.0381
 6529W        W 6529   1.111   3.673   9.028  0.1941  0.1087 -0.1871
 6530W        W 6530   1.102   0.535   7.103  0.1437  0.1530  0.2187
 6531W        W 6531   2.096   0.485   0.996 -0.2805 -0.0222 -0.2346
 6532W        W 6532   5.670   7.736   0.128 -0.1165  0.1929 -0.0903
 6533W        W 6533   2.425   8.927   1.603  0.2390 -0.0306 -0.1425
 6534W        W 6534   7.837   4.157   9.750 -0.1394 -0.4125  0.0208
 6535W        W 6535   2.759  10.205   8.435 -0.0696  0.1420  0.1714
 6536W        W 6536   8.707   6.614   3.711 -0.0438 -0.2786 -0.2424
 6537W        W 6537   1.753  10.181   4.339 -0.1282 -0.3534 -0.0307
 6538W        W 6538   2.703   4.068   5.890  0.1677  0.0399  0.2093
 6539W        W 6539   8.115   4.127   4.928  0.2963 -0.1878 -0.1868
 6540W        W 6540   4.791   5.109   6.959 -0.1915  0.0419 -0.2881
 6541W        W 6541   6.327   2.839   4.881  0.0024  0.0540 -0.0855
 6542W        W 6542   7.564   4.234   3.241  0.1969 -0.0607  0.2370
 6543W        W 6543   9.188   1.859   6.477  0.0759 -0.2726 -0.1159
 6544W        W 6544   7.990   1.626   0.612 -0.0614  0.0310 -0.1406
 6545W        W 6545   2.938   5.030   6.064 -0.2006 -0.2262 -0.1193
 6546W        W 6546   3.837   5.776   0.978  0.0788 -0.3057  0.1241
 6547W        W 6547   0.024   9.747   6.272 -0.0230  0.1983 -0.0362
 6548W        W 6548   1.865   0.152   8.238 -0.0800 -0.0781 -0.0474
 6549W        W 6549   1.585   7.380   6.740 -0.3482  0.2439  0.2619
 6550W        W 6550   8.224   9.410   9.102 -0.1064  0.0856  0.1046
 6551W        W 6551   2.049   6.651   1.940  0.2414  0.0407 -0.0150
 6552W        W 6552   6.438   3.267   4.567 -0.1494  0.0069 -0.3079
 6553W        W 6553   4.736   3.728  10.306 -0.1689 -0.0984  0.3801
 6554W        W 6554   7.506   2.838   8.000 -0.0262 -0.1174  0.1280
 6555W        W 6555   7.826   5.750   3.213 -0.2625 -0.2075 -0.0061
 6556W        W 6556   2.178   5.167   2.028  0.2993  0.2705 -0.0863
 6557W        W 6557   6.047   2.503   1.664 -0.1808 -0.1468 -0.2036
 6558W        W 6558   5.847   5.149   8.433 -0.0351 -0.0031 -0.0701
 6559W        W 6559   8.080   2.017   5.772 -0.3207  0.4749 -0.3193
 6560W        W 6560   8.066   9.208   8.621 -0.0246  0.0876 -0.0236
 6561W        W 6561   0.291   0.687   0.969  0.1100  0.1048  0.1959
 6562W        W 6562   0.535   6.625   7.391 -0.2835  0.0027  0.4800
 6563W        W 6563   9.766   9.122   0.948  0.0151  0.0732  0.0937
 6564W        W 6564   4.408   8.658   4.329  0.4156  0.0672  0.0371
 6565W        W 6565   7.353   7.278   3.426 -0.2216 -0.2947  0.1210
 6566W        W 6566   5.548   8.334   6.249  0.2578 -0.2189  0.1272
 6567W        W 6567   2.682   1.056   0.522 -0.0015 -0.2631  0.1748
 6568W        W 6568   8.364   6.422   9.689  0.0398 -0.2462 -0.0630
 6569W        W 6569   1.515   8.625   8.862  0.2106  0.1168  0.3314
 6570W        W 6570   3.166   7.548   3.987 -0.3811 -0.1495 -0.0131
 6571W        W 6571   0.852   7.571   0.912  0.0121 -0.2222  0.1408
 6572W        W 6572   3.927   1.176   0.553 -0.0203 -0.0700 -0.0436
 6573W        W 6573   3.930   6.608   2.107  0.0650 -0.1229 -0.0719
 6574W        W 6574   1.607   5.775   6.973 -0.3079 -0.0358 -0.0324
 6575W        W 6575  10.132   5.403   3.767 -0.1060 -0.1210  0.0770
 6576W        W 6576   4.343   6.054   1.552 -0.1146  0.0473  0.2641
 6577W        W 6577   5.655   9.078   8.667 -0.0251  0.0759 -0.0775
 6578W        W 6578   9.411   3.236   4.978 -0.1480 -0.1457 -0.2094
 6579W        W 6579   6.842   5.676   9.451 -0.2060 -0.1302  0.1995
 6580W        W 6580   9.076   3.322   1.599  0.0993 -0.0442 -0.1590
 6581W        W 6581   1.563   2.148   2.275  0.2101 -0.3875  0.0906
 6582W        W 6582   2.446   7.543   2.295  0.0279 -0.6134 -0.1933
 6583W        W 6583   8.697   0.677   3.507 -0.1866 -0.2106 -0.0287
 6584W        W 6584   2.078   1.972   4.425 -0.0510 -0.1408  0.1385
 6585W        W 6585   5.517   4.681   8.533 -0.1459 -0.0488  0.6633
 6586W        W 6586   0.798   6.234   5.878  0.0369 -0.5551  0.0233
 6587W        W 6587   7.222   4.912  10.091 -0.1907  0.2176  0.0132
 6588W        W 6588   7.171   5.233   1.667  0.0095  0.1266  0.0970
 6589W        W 6589   9.564   3.066  10.082  0.0181  0.2037 -0.0373
 6590W        W 6590   6.212   7.565   5.940  0.4064 -0.2003  0.0643
 6591W        W 6591   0.226   5.785   0.589  0.2378  0.0345  0.1352
 6592W        W 6592   5.500   2.307   2.166  0.1498 -0.1367 -0.2994
 6593W        W 6593   9.892   8.840   6.856 -0.0632 -0.1102 -0.2607
 6594W        W 6594   3.160   5.623   1.859  0.1712  0.0269  0.2008
 6595W        W 6595   1.835   5.249   4.704 -0.2617  0.4498 -0.1284
 6596W        W 6596   2.610   8.895   2.857 -0.1781  0.1847 -0.1838
 6597W        W 6597   2.905   5.102   7.894 -0.0154  0.3563  0.3160
 6598W        W 6598   3.055   7.157   1.705 -0.2407 -0.0318 -0.4174
 6599W        W 6599   2.140   7.289   5.718  0.0529  0.3577  0.0546
 6600W        W 6600   8.652   6.441   4.317 -0.0647 -0.2228 -0.3097
 6601W        W 6601   3.884   5.802   4.478 -0.2929  0.1238  0.0414
 6602W        W 6602   1.259   4.282   1.258  0.1934 -0.0477 -0.1672
 6603W        W 6603   6.473   4.130   8.937 -0.0108  0.0338 -0.1539
 6604W        W 6604   2.895   1.850  10.293 -0.2752  0.1948 -0.0863
 6605W        W 6605   2.717  10.124   9.037  0.4565 -0.1235  0.4816
 6606W        W 6606   6.925   9.727   0.910 -0.1854  0.2272 -0.1097
 6607W        W 6607   2.685   5.806   4.626 -0.2704  0.3272  0.0698
 6608W        W 6608   5.843   2.262   7.532  0.2608  0.0890 -0.0959
 6609W        W 6609   5.380   1.886   4.257 -0.1262  0.0024 -0.0519
 6610W        W 6610   8.947   0.335   7.484  0.0124  0.1130 -0.1734
 6611W        W 6611   1.895   1.423   6.946 -0.1807 -0.1578 -0.0547
 6612W        W 6612   4.935   6.088   9.502  0.0791  0.3914 -0.1344
 6613W        W 6613   2.366   4.723   6.347  0.1792 -0.0429 -0.1823
 6614W        W 6614   6.976   3.813   7.394  0.0729  0.1604 -0.0416
 6615W        W 6615   6.808   5.600   6.135 -0.3094  0.0521 -0.0508
 6616W        W 6616   7.705   6.573   9.783 -0.2610  0.1858  0.0053
 6617W        W 6617   3.269   0.987   2.470 -0.1416  0.1968  0.0445
 6618W        W 6618   5.429   3.768   8.441 -0.1889  0.1779 -0.2145
 6619W        W 6619   0.230   0.377   6.634 -0.4025 -0.0438 -0.1282
 6620W        W 6620   9.048   8.035   0.126 -0.0995 -0.0445 -0.1017
 6621W        W 6621   2.677   7.224   1.988  0.0316 -0.1023  0.0770
 6622W        W 6622   5.323   5.459   0.724 -0.1198  0.1556  0.2019
 6623W        W 6623  10.265   8.674   9.763 -0.0394  0.0799  0.2374
 6624W        W 6624   2.113   8.831   0.551 -0.0661  0.1734  0.3475
 6625W        W 6625   9.628   7.846   5.326  0.3324 -0.0242 -0.0142
 6626W        W 6626   1.203   2.872   7.391  0.0934 -0.0513  0.2315
 6627W        W 6627   9.197   1.122   1.875  0.0946 -0.2833 -0.1015
 6628W        W 6628   5.401   4.210   8.750  0.2161 -0.0858  0.0607
 6629W        W 6629   3.796   9.630   1.840  0.0043  0.2096 -0.2547
 6630W        W 6630   4.268   5.498   2.827 -0.0495 -0.1517 -0.2015
 6631W        W 6631   5.875   0.077   9.554 -0.0642 -0.1156 -0.0313
 6632W        W 6632   3.039   3.212   8.791  0.0582 -0.0193  0.1671
 6633W        W 6633  10.229   4.729   5.373 -0.2227 -0.2476 -0.2564
 6634W        W 6634   7.143   6.711   5.043  0.4454 -0.1291 -0.0290
 6635W        W 6635   9.747   7.126   7.834 -0.0308 -0.0555  0.0558
 6636W        W 6636   6.217   8.550   1.181 -0.0095  0.0414 -0.2901
 6637W        W 6637   6.787   0.101   0.503 -0.0757  0.1387 -0.2849
 6638W        W 6638   7.979   7.035   0.966 -0.1363 -0.0503 -0.2559
 6639W        W 6639   1.410   5.671   8.822 -0.0362 -0.1248 -0.1834
 6640W        W 6640   2.255   1.327   0.584  0.0401  0.0302  0.2665
 6641W        W 6641   6.809   8.108   5.228  0.1474 -0.3427 -0.1069
 6642W        W 6642   4.269   8.654   8.951  0.1984 -0.0830  0.1357
 6643W        W 6643   0.923   8.681   4.794  0.3039  0.4306  0.5013
 6644W        W 6644   3.114   3.630   5.355  0.3027  0.5859 -0.1252
 6645W        W 6645   3.232   9.115   8.395  0.1520 -0.0142 -0.0437
 6646W        W 6646   3.649   1.621   7.995  0.3093  0.0521  0.1488
 6647W        W 6647   8.566   8.603   9.126  0.3300 -0.2133 -0.0328
 6648W        W 6648   3.547   6.877   7.078  0.3910  0.2509 -0.1212
 6649W        W 6649   6.219   1.360   3.027 -0.0725 -0.0038  0.2128
 6650W        W 6650   6.287   9.844   5.886 -0.0260 -0.1020 -0.1933
 6651W        W 6651   1.982   9.884   6.349 -0.1171  0.4228  0.1118
 6652W        W 6652  10.302   0.222   2.194  0.0365 -0.0192 -0.3669
 6653W        W 6653   5.748   9.330   0.418 -0.0992  0.2178 -0.2941
 6654W        W 6654   4.517   4.097   8.403 -0.0613  0.1137  0.4046
 6655W        W 6655   3.341   3.935   0.794 -0.0526 -0.1428  0.0117
 6656W        W 6656   8.081  10.283   7.727  0.1143 -0.0234  0.0149
 6657W        W 6657   7.691   0.628   9.058 -0.1531 -0.1346 -0.2328
 6658W        W 6658   7.290   3.711   5.653  0.0815 -0.0573  0.2323
 6659W        W 6659   2.939   9.578   4.525 -0.0536 -0.0402 -0.0494
 6660W        W 6660   0.772   4.406   4.249 -0.1530 -0.0242 -0.1334
 6661W        W 6661   0.077   2.979   0.699 -0.0707  0.1984  0.1211
 6662W        W 6662   4.208   9.629   6.708  0.3011  0.0169  0.0967
 6663W        W 6663   2.273   3.826   6.908  0.1112 -0.1477 -0.1619
 6664W        W 6664   7.178   6.881   1.347 -0.1037  0.2617  0.0629
 6665W        W 6665   4.674   5.966   1.093  0.1831 -0.3210 -0.3531
 6666W        W 6666  10.323   6.117   6.276 -0.2587  0.1441 -0.0385
 6667W        W 6667   9.451  10.001   0.984 -0.0610 -0.1899 -0.2420
 6668W        W 6668   9.947   7.896   3.192  0.5595 -0.1292  0.0902
 6669W        W 6669   4.027   1.008   2.239  0.2124  0.3117 -0.1250
 6670W        W 6670   2.253   2.393   9.602  0.2132 -0.0964 -0.2580
 6671W        W 6671  10.289   8.529   3.862  0.0146 -0.2523 -0.0725
 6672W        W 6672   8.303   2.381   3.483  0.0259 -0.0963  0.2973
 6673W        W 6673   9.327   5.037   4.412 -0.2357 -0.0709 -0.1770
 6674W        W 6674   5.113   7.424  10.051 -0.0011 -0.1496  0.0570
 6675W        W 6675   2.443   4.615   0.034  0.0537 -0.0772 -0.1871
 6676W        W 6676   9.058   0.653   0.342  0.2380  0.1814  0.0129
 6677W        W 6677   1.427   0.918   8.177 -0.0869 -0.0195  0.1060
 6678W        W 6678  10.277   1.826   1.366  0.1102 -0.0081 -0.0853
 6679W        W 6679   7.134   5.265   6.000  0.1179  0.0511 -0.0149
 6680W        W 6680   9.108   4.892   9.042  0.1892  0.4060  0.1916
 6681W        W 6681   6.930   2.651   7.070 -0.2445  0.0868 -0.2202
 6682W        W 6682   3.004   8.247   6.870  0.2635 -0.0004 -0.1706
 6683W        W 6683   7.292   5.424   7.919 -0.0739  0.0354  0.2961
 6684W        W 6684   4.810   8.287   9.722 -0.1174  0.3457 -0.2607
 6685W        W 6685   3.808   8.521  10.118  0.0657  0.3010  0.0882
 6686W        W 6686   3.565  10.196   3.064  0.2621 -0.3195  0.1976
 6687W        W 6687   5.710   5.848   2.815 -0.0051  0.0769 -0.0247
 6688W        W 6688   6.279   4.964   7.119 -0.1141  0.2829  0.4031
 6689W        W 6689   8.329   4.041  10.101 -0.2761  0.1088 -0.2879
 6690W        W 6690   5.847   2.919   1.515 -0.3081 -0.1668 -0.1218
 6691W        W 6691   3.670   0.561   4.379  0.0108 -0.2868  0.0065
 6692W        W 6692   0.477   1.370  10.276 -0.1442 -0.0934  0.3141
 6693W        W 6693   5.893   4.578  10.176  0.2617  0.1907 -0.3007
 6694W        W 6694   0.934   3.357   0.566 -0.3898 -0.0949  0.2001
 6695W        W 6695  10.220   9.299   7.771  0.2256 -0.0406 -0.1101
 6696W        W 6696  10.289   8.841   2.883  0.1010  0.2765 -0.1164
 6697W        W 6697   2.379   2.128   0.353 -0.2778 -0.0039 -0.1022
 6698W        W 6698   8.405   6.924   6.060  0.1566 -0.2330 -0.2763
 6699W        W 6699   6.084   6.457   4.925 -0.1538  0.0441 -0.0237
 6700W        W 6700  10.157   4.698  10.203 -0.0612  0.2376 -0.1051
 6701W        W 6701   1.509   3.432   2.676 -0.3848 -0.1316 -0.0495
 6702W        W 6702   3.507   4.988   6.956 -0.2881 -0.2952  0.0494
 6703W        W 6703   0.007   9.103   5.600  0.1502  0.0434 -0.2503
 6704W        W 6704   7.277   2.056   6.392  0.1488  0.2312  0.0038
 6705W        W 6705   2.951   9.731   5.548  0.3846  0.0256 -0.1687
 6706W        W 6706   2.862   8.869  10.285 -0.0786 -0.0451  0.2924
 6707W        W 6707   6.130   2.407  10.198 -0.0508  0.1317 -0.0973
 6708W        W 6708   6.517   3.743   7.721 -0.1274  0.2213  0.0912
 6709W        W 6709   3.675   2.704   5.860  0.1304  0.3690 -0.0400
 6710W        W 6710   6.140   0.519   2.421  0.0763 -0.1677  0.3158
 6711W        W 6711   9.082   2.842  10.128 -0.1045  0.1564  0.0134
 6712W        W 6712   5.789   6.318   7.537  0.1843  0.1130  0.1623
 6713W        W 6713   5.991   1.790   7.736 -0.1254 -0.1124 -0.1828
 6714W        W 6714   4.212   5.588   5.922  0.2984 -0.2040 -0.2362
 6715W        W 6715   6.838   8.430  10.006  0.0592  0.1459 -0.1789
 6716W        W 6716  10.277   1.098   8.451  0.0933 -0.1253  0.3595
 6717W        W 6717   2.067   7.719   4.914  0.3196 -0.0966  0.0507
 6718W        W 6718   6.230   7.762   8.282 -0.1433  0.2764 -0.3470
 6719W        W 6719   4.686   0.920   5.528  0.2401  0.0226 -0.1655
 6720W        W 6720   9.541   8.351   6.367 -0.1187 -0.1745 -0.1460
 6721W        W 6721   9.586   1.107   6.120  0.4028 -0.2974  0.0371
 6722W        W 6722  10.314   9.423   4.925  0.0512  0.0111 -0.0871
 6723W        W 6723   9.464   3.468   0.534  0.0154 -0.2650  0.1141
 6724W        W 6724   4.966   2.222   2.991 -0.0732  0.0692 -0.2062
 6725W        W 6725   7.131   3.141   5.534  0.2541 -0.3631 -0.3478
 6726W        W 6726   8.616   0.508   8.210 -0.0453  0.0989 -0.1610
 6727W        W 6727   4.077   2.333   5.804 -0.1299 -0.0222 -0.4246
 6728W        W 6728   4.232   7.823   7.017 -0.1474  0.1455 -0.1091
 6729W        W 6729   0.329   9.717  10.179 -0.1328 -0.0852 -0.3585
 6730W        W 6730   0.479   7.168   4.491 -0.0084 -0.1508 -0.1806
 6731W        W 6731  10.162   6.980   9.058  0.0868  0.1004 -0.0515
 6732W        W 6732   4.172   3.513   9.114  0.1304  0.0070 -0.0361
 6733W        W 6733   9.910   9.597   8.130 -0.2254 -0.2073  0.1664
 6734W        W 6734   9.874   3.893   9.797 -0.2445  0.1082 -0.1161
 6735W        W 6735   0.721   1.561   7.958 -0.1938  0.1733 -0.1823
 6736W        W 6736   7.050   1.380   1.862  0.0691 -0.0410  0.1619
 6737W        W 6737   1.249   7.109   4.847 -0.0063  0.1073 -0.1497
 6738W        W 6738   2.194   5.474   1.574 -0.2974  0.2887 -0.0478
 6739W        W 6739   0.069   7.999   2.988  0.1925 -0.1449  0.2285
 6740W        W 6740   0.506   1.757   5.204 -0.1528  0.0238  0.1084
 6741W        W 6741   9.813   2.044   3.068  0.0851 -0.1862  0.0796
 6742W        W 6742   5.692   7.195   3.425  0.0854  0.0131 -0.0623
 6743W        W 6743   9.844   9.335   2.539 -0.0575  0.1869 -0.0157
 6744W        W 6744   0.856   9.003   1.745  0.1536  0.0196 -0.0497
 6745W        W 6745   4.665   6.883   1.533  0.1411  0.0453  0.1099
 6746W        W 6746   8.309   1.564   5.110 -0.1759 -0.1010  0.0511
 6747W        W 6747   9.843   4.327   1.126 -0.0865  0.1556  0.2593
 6748W        W 6748   7.718   4.835   2.668  0.4386 -0.4834 -0.1105
 6749W        W 6749   2.444   6.960   5.404 -0.1020 -0.1114  0.0104
 6750W        W 6750   5.552   8.611   7.041 -0.0152  0.2127 -0.1791
 6751W        W 6751   7.396   7.986   3.194 -0.0671 -0.2105 -0.1844
 6752W        W 6752   4.272   7.397   1.836 -0.1884  0.0341 -0.1253
 6753W        W 6753   9.588  10.254   9.124  0.1726  0.0101 -0.1114
 6754W        W 6754   7.345   9.681   8.990  0.0788  0.1247 -0.1185
 6755W        W 6755   0.835   1.734   0.356 -0.1436 -0.0802 -0.0075
 6756W        W 6756   9.489   9.900   6.176 -0.0679 -0.0905  0.0141
 6757W        W 6757   1.184   5.599   9.354 -0.3781 -0.2153  0.0659
 6758W        W 6758   6.586   0.952   4.965 -0.0166 -0.0936  0.0904
 6759W        W 6759   9.385   2.100   5.127  0.1806 -0.1683 -0.1260
 6760W        W 6760   3.234   7.902   8.295 -0.0345  0.0417 -0.0619
 6761W        W 6761  10.096   9.809   4.575 -0.1474 -0.0182  0.0088
 6762W        W 6762   1.687   2.745   0.431  0.0871 -0.1663 -0.3057
 6763W        W 6763   3.581   3.994   8.572 -0.1449  0.1948  0.1484
 6764W        W 6764   6.426   1.452   2.519  0.1062 -0.0626  0.3733
 6765W        W 6765   9.166   6.489   2.645 -0.0016 -0.1116 -0.1086
 6766W        W 6766   9.551   0.999   8.453 -0.2331 -0.0580 -0.0775
 6767W        W 6767   4.313   9.747   1.924  0.0775  0.1514 -0.0063
 6768W        W 6768   3.193   1.140   8.726 -0.0173 -0.1179 -0.0901
 6769W        W 6769   3.025   3.049   1.647  0.2204 -0.2340  0.0224
 6770W        W 6770   2.037   5.914   3.340  0.0299  0.0657  0.0076
 6771W        W 6771   7.299   8.989   5.165  0.0766 -0.3389  0.0345
 6772W        W 6772   1.285   9.557   5.913 -0.2569  0.0524  0.3197
 6773W        W 6773   8.517   3.223   8.925 -0.1792  0.0949 -0.1429
 6774W        W 6774   0.107   4.967   3.739 -0.1576 -0.3303 -0.1116
 6775W        W 6775   6.348   3.802   6.400  0.3216  0.0307 -0.1984
 6776W        W 6776  10.271   5.456   7.181 -0.0217  0.2290  0.0691
 6777W        W 6777   4.912   8.100   7.116 -0.2028  0.1418 -0.1536
 6778W        W 6778   8.634   9.547   3.432  0.2130  0.2046 -0.2485
 6779W        W 6779   0.192   6.216   7.759  0.0496 -0.0265 -0.0843
 6780W        W 6780   3.273   9.131   3.138 -0.2278 -0.0570  0.0320
 6781W        W 6781   8.800   9.046   9.365  0.2317  0.0410  0.1357
 6782W        W 6782   8.553   0.807   0.336  0.0554  0.4846  0.0313
 6783W        W 6783  10.040   3.625   8.295  0.1892  0.5982  0.0278
 6784W        W 6784   3.556   5.573   4.225 -0.2295  0.0840  0.4140
 6785W        W 6785   3.207  10.187   5.577  0.0655  0.0249  0.1877
 6786W        W 6786   2.198   1.758   9.061  0.0926 -0.0517 -0.1862
 6787W        W 6787   6.532   5.559   3.889  0.0484  0.1314  0.1076
 6788W        W 6788   8.480   3.741   7.830 -0.0905  0.0285  0.0809
 6789W        W 6789   6.499   1.831   6.071  0.2827 -0.3817 -0.2799
 6790W        W 6790   0.511   5.824   5.111  0.2147  0.2263  0.2067
 6791W        W 6791   9.031   2.869   5.288  0.0258  0.0646 -0.0739
 6792W        W 6792   4.448   2.183   7.539  0.1706  0.3973  0.1417
 6793W        W 6793   6.301   3.160   5.768  0.0328  0.0889  0.1775
 6794W        W 6794   5.862   6.857   0.136  0.1837 -0.1509  0.0077
 6795W        W 6795   3.690   6.270   0.951 -0.0856  0.0578 -0.0781
 6796W        W 6796   9.495   2.421   1.316 -0.2034  0.1065 -0.2131
 6797W        W 6797   5.124   7.031   1.679  0.1624 -0.2387 -0.2040
 6798W        W 6798   5.375   8.546   5.789  0.2907 -0.1005  0.0108
 6799W        W 6799   3.641   6.505   9.546  0.1670  0.2420  0.3208
 6800W        W 6800   3.357   1.592   1.133 -0.3095  0.1455 -0.0636
 6801W        W 6801   6.519   0.648   9.553  0.1500  0.0990  0.3929
 6802W        W 6802   7.072   6.554   4.534 -0.0242 -0.1524 -0.2131
 6803W        W 6803   5.454   5.149   7.593  0.1154  0.0184 -0.3662
 6804W        W 6804   5.510   9.763   4.691 -0.1356  0.0256  0.1672
 6805W        W 6805   5.729   7.641   7.388  0.0158 -0.0429 -0.1732
 6806W        W 6806   1.782   1.503   9.456 -0.0750 -0.1994  0.2204
 6807W        W 6807   7.475   2.580   9.820 -0.1455 -0.3006 -0.1902
 6808W        W 6808   6.758   9.342   2.133  0.3597  0.1148 -0.0132
 6809W        W 6809   5.432   9.644   4.149  0.0269 -0.2912  0.0657
 6810W        W 6810   3.002   4.687   2.435 -0.2918  0.0425 -0.1439
 6811W        W 6811   9.927   6.965   6.195  0.1652  0.0222 -0.0447
 6812W        W 6812   7.128   8.267   3.470  0.1566  0.0683 -0.2234
 6813W        W 6813   6.736   1.241   6.531 -0.1681 -0.4551 -0.0339
 6814W        W 6814   4.695   6.385  10.248 -0.0227 -0.0447  0.0349
 6815W        W 6815   5.534   5.663   0.304 -0.3403  0.0041 -0.0387
 6816W        W 6816   7.618   5.160   0.482  0.3803 -0.1691  0.0175
 6817W        W 6817   7.641   9.818   9.992 -0.2208  0.1187 -0.2851
 6818W        W 6818   2.643   0.280   9.941  0.0848  0.0661 -0.1507
 6819W        W 6819   2.714   3.842   7.589 -0.1655 -0.2379 -0.1405
 6820W        W 6820   1.092   8.911   2.794 -0.0713  0.2382  0.0145
 6821W        W 6821   2.346   2.477   1.223 -0.1938  0.2806  0.0698
 6822W        W 6822   7.773   2.710   5.204  0.0170  0.1753 -0.1674
 6823W        W 6823   7.667   8.626   4.151  0.0886  0.2771  0.0229
 6824W        W 6824   6.890   8.033   1.444  0.1069  0.1977  0.0544
 6825W        W 6825   3.672   3.273   9.068 -0.0872 -0.1367  0.1262
 6826W        W 6826   0.728   3.374   6.846 -0.0587 -0.3010  0.1250
 6827W        W 6827   1.379   0.443   2.230 -0.1178  0.2281  0.0330
 6828W        W 6828   1.519   5.095   3.127 -0.1541 -0.3735  0.1641
 6829W        W 6829   9.484   8.289   7.637 -0.0531  0.2190 -0.1056
 6830W        W 6830   2.699   5.593   8.051 -0.0470 -0.1966 -0.1161
 6831W        W 6831   2.889   8.894   1.437  0.0601  0.1115  0.0415
 6832W        W 6832   7.944   0.806   0.549  0.0466  0.1269 -0.2182
 6833W        W 6833   5.280   4.158   9.650  0.0031  0.4603  0.1319
 6834W        W 6834   8.562   3.337   4.950 -0.1502  0.0806  0.1522
 6835W        W 6835   6.192   5.762  10.294 -0.3212 -0.1243  0.0389
 6836W        W 6836   8.008   1.400   9.538  0.1648  0.0230 -0.0568
 6837W        W 6837   5.080   2.503   0.426 -0.3588  0.1245  0.1942
 6838W        W 6838   2.379   5.929   1.541  0.2998 -0.0197 -0.2058
 6839W        W 6839   1.442   5.441   3.906 -0.0656 -0.1899  0.1748
 6840W        W 6840  10.338   7.304   8.734 -0.0779 -0.1307 -0.1503
 6841W        W 6841   3.623   4.205   3.052 -0.0399  0.0328  0.0533
 6842W        W 6842   0.066   1.813   5.516 -0.1714  0.0527  0.0312
 6843W        W 6843   1.325   7.094   0.707 -0.2400  0.3569 -0.1378
 6844W        W 6844   4.691  10.136   6.077  0.2610 -0.0380 -0.1307
 6845W        W 6845   9.126   0.234   2.889 -0.3604 -0.3025  0.1887
 6846W        W 6846   5.426   2.057   9.015  0.1953  0.4552  0.1423
 6847W        W 6847   6.882   7.005   4.750 -0.2448  0.0444 -0.2374
 6848W        W 6848   1.612   4.560   0.875  0.0881 -0.1366 -0.2879
 6849W        W 6849   9.677   0.147   0.504  0.1181  0.1969  0.5063
 6850W        W 6850   9.509   9.778   2.855 -0.2221 -0.0374  0.2498
 6851W        W 6851  10.177   4.405   8.143  0.1592 -0.1810  0.1061
 6852W        W 6852   9.237   8.216   8.019  0.3096 -0.0003 -0.2196
 6853W        W 6853   1.949   0.179   9.586  0.4073 -0.0986 -0.0723
 6854W        W 6854   3.176   5.424   5.197 -0.1772 -0.0048  0.0541
 6855W        W 6855   8.690   3.851   3.741  0.0103  0.0220  0.1353
 6856W        W 6856   6.981   2.920   0.329  0.2726  0.0457  0.0978
 6857W        W 6857   3.672   3.731   8.155  0.0538  0.1255 -0.1650
 6858W        W 6858   7.286   2.565   6.744  0.0122  0.1443  0.2177
 6859W        W 6859   1.625   5.396   7.342 -0.0711 -0.0202 -0.0490
 6860W        W 6860   9.848   4.046   5.508 -0.0645  0.0195 -0.0238
 6861W        W 6861   0.602   5.110   0.449 -0.0392 -0.2025  0.2573
 6862W        W 6862   4.424   2.260   1.447  0.4632 -0.1717  0.1806
 6863W        W 6863   2.089   6.321   1.488  0.1719  0.0074  0.2629
 6864W        W 6864   8.480   5.520   3.292  0.0207  0.1695  0.1095
 6865W        W 6865   4.765   4.245   6.909 -0.2891  0.2411  0.1247
 6866W        W 6866  10.330   7.441   6.978  0.1280  0.0747 -0.3520
 6867W        W 6867   3.058   0.303   3.636  0.3090 -0.0183 -0.0821
 6868W        W 6868   2.462   7.545   8.618 -0.1124  0.2860  0.0600
 6869W        W 6869   2.626   0.293   7.653 -0.0456 -0.2721 -0.0679
 6870W        W 6870   4.002   7.253   9.033 -0.2599  0.2113 -0.4589
 6871W        W 6871   5.193   8.152   0.777  0.0847 -0.2849 -0.2343
 6872W        W 6872   7.863   3.185   8.157 -0.0766 -0.2902  0.1587
 6873W        W 6873   6.069   7.405   2.706  0.0269  0.0935 -0.0868
 6874W        W 6874   1.623   4.351   2.590 -0.3151 -0.3381 -0.6140
 6875W        W 6875   0.478   9.354   7.917  0.2461 -0.0646  0.0829
 6876W        W 6876   0.553   2.205   1.407 -0.0387 -0.2767 -0.0702
 6877W        W 6877   2.985   5.100   1.695 -0.1743 -0.1228  0.2842
 6878W        W 6878   5.119   5.989   6.686 -0.0238 -0.2867 -0.0030
 6879W        W 6879   9.532   5.520   6.683 -0.2653  0.1278 -0.0300
 6880W        W 6880   7.565   1.215   7.580 -0.1271 -0.1529  0.0084
 6881W        W 6881   3.717   8.258   3.772  0.0914  0.0440  0.4461
 6882W        W 6882   8.092   2.635   5.603 -0.0334 -0.1327  0.1715
 6883W        W 6883   1.425   0.399   1.680  0.1548 -0.2739  0.4776
 6884W        W 6884   6.151   7.241   9.534 -0.1427  0.0184 -0.1759
 6885W        W 6885   4.948   5.334   2.438 -0.0833  0.1155  0.0881
 6886W        W 6886   9.703   9.786   9.219  0.1727  0.0747  0.0673
 6887W        W 6887   3.288   5.571   3.390  0.0646 -0.3466 -0.1556
 6888W        W 6888   3.164   6.016   5.935  0.0295 -0.2257 -0.4470
 6889W        W 6889   3.261   6.067   4.252 -0.1979 -0.1133 -0.0602
 6890W        W 6890   1.193   9.183   7.319 -0.0708  0.2795 -0.1166
 6891W        W 6891   8.795  10.154   7.155  0.3374  0.0210 -0.2592
 6892W        W 6892   6.807   8.836   1.236  0.1036  0.1469 -0.0697
 6893W        W 6893   5.545   5.548   2.372  0.2623 -0.3614 -0.1150
 6894W        W 6894   8.715   9.247   7.224  0.2404 -0.0880 -0.2721
 6895W        W 6895   5.564   2.373   7.164 -0.0304  0.0408  0.0492
 6896W        W 6896   6.585   2.718   9.745  0.2946 -0.0024 -0.0054
 6897W        W 6897   9.577   5.482   7.235  0.4117 -0.2721 -0.1488
 6898W        W 6898   0.941   8.531   6.499  0.0462  0.2200 -0.2040
 6899W        W 6899   1.462   0.715   0.325  0.0537  0.0254 -0.0049
 6900W        W 6900   0.700   5.693   6.517 -0.0704 -0.2530 -0.0877
 6901W        W 6901   3.258   5.657   4.576  0.1421  0.2855  0.0648
 6902W        W 6902   1.725   1.809   0.801 -0.0910 -0.1660  0.4426
 6903W        W 6903   5.905   4.962   7.524  0.3418  0.5134  0.0918
 6904W        W 6904   5.670   3.530   9.242  0.2298 -0.0149  0.0300
 6905W        W 6905   7.605   3.642   0.570  0.1267  0.0125 -0.1964
 6906W        W 6906   7.130   6.353   4.110  0.3639 -0.1749  0.0163
 6907W        W 6907   4.094   9.820   7.793  0.0596  0.0329 -0.1951
 6908W        W 6908   2.912   5.629   4.184 -0.1891  0.1997 -0.0319
 6909W        W 6909   1.803   0.672   8.391 -0.0763  0.2963 -0.2921
 6910W        W 6910   8.155   7.640   7.382 -0.0086 -0.2592 -0.0635
 6911W        W 6911   8.046   4.232   3.273  0.0169  0.1346  0.0657
 6912W        W 6912   8.582   4.319   6.476  0.2389 -0.1542 -0.0504
 6913W        W 6913   4.531   7.690   5.549 -0.1143  0.1011 -0.2771
 6914W        W 6914   2.025   7.522   6.110 -0.1586 -0.0745  0.0272
 6915W        W 6915   9.695   3.622   9.245  0.1277 -0.0781 -0.0720
 6916W        W 6916   5.084   8.582   7.136  0.0622  0.1975 -0.0478
 6917W        W 6917   0.067   0.341   3.923 -0.0487  0.0687 -0.1041
 6918W        W 6918   7.954   2.831   9.924  0.2262  0.0526 -0.0029
 6919W        W 6919   6.643   8.113   4.734 -0.1039  0.0589  0.0060
 6920W        W 6920   7.570   3.554   5.285  0.1513  0.3917 -0.1742
 6921W        W 6921   3.358   1.613   6.622  0.1980 -0.1628  0.0140
 6922W        W 6922   7.863   0.571  10.112  0.0507 -0.1929 -0.3297
 6923W        W 6923   5.719   4.256   7.379 -0.0048 -0.0221  0.2801
 6924W        W 6924   7.469   9.204   6.239  0.6110  0.0858  0.0737
 6925W        W 6925   9.848   6.736   7.529 -0.0516  0.0726  0.0068
 6926W        W 6926   2.885   7.031   0.635  0.0712 -0.0888  0.1118
 6927W        W 6927   9.488   6.346   9.889  0.0362 -0.1163  0.2132
 6928W        W 6928   9.178   1.881   4.757  0.1204 -0.1886  0.1229
 6929W        W 6929   4.572   5.215   6.436 -0.2268 -0.1651 -0.1947
 6930W        W 6930   8.070   2.069   1.901 -0.2046  0.1583 -0.2485
 6931W        W 6931   5.377   4.544   2.046  0.1962 -0.0034  0.0009
 6932W        W 6932   0.683   9.048   7.468 -0.1996 -0.1879  0.1295
 6933W        W 6933   2.811   8.598   3.309 -0.0514 -0.0019  0.0168
 6934W        W 6934   8.958   3.534   7.474 -0.3606  0.1281 -0.0672
 6935W        W 6935   7.396   0.503   2.789  0.1478 -0.1083 -0.1304
 6936W        W 6936   0.071   3.437  10.131 -0.0559  0.0188  0.0382
 6937W        W 6937   7.783   4.917   5.302 -0.0638 -0.1810 -0.1118
 6938W        W 6938   4.345   2.587   3.131 -0.4182  0.1244  0.0610
 6939W        W 6939   7.600   4.965   1.142  0.2267  0.0548  0.1506
 6940W        W 6940   4.554   2.393   8.586 -0.2404  0.2992 -0.1760
 6941W        W 6941   6.481   2.750   0.588  0.2665  0.1675  0.1771
 6942W        W 6942   6.220   9.644   2.026 -0.1621  0.3030 -0.0226
 6943W        W 6943   7.580   7.387   8.031 -0.0210 -0.1018  0.1043
 6944W        W 6944   9.740   2.142   9.161  0.1302  0.1526  0.1698
 6945W        W 6945   0.800   8.935   9.753 -0.1675 -0.0241 -0.0250
 6946W        W 6946   5.357   0.961   0.497 -0.0586 -0.2621  0.0635
 6947W        W 6947   6.561   9.463   4.055 -0.0202  0.1269 -0.4222
 6948W        W 6948   6.605   7.480   1.958 -0.2084 -0.1731 -0.2250
 6949W        W 6949   3.644   3.190   7.351  0.2892  0.0802 -0.0418
 6950W        W 6950   3.120   1.626   8.843 -0.2595 -0.0487  0.0988
 6951W        W 6951   7.988   3.579   7.625  0.0293  0.0838 -0.0250
 6952W        W 6952   2.133   4.955   6.911  0.1810  0.3218 -0.2387
 6953W        W 6953   1.062   1.814   4.049 -0.0422 -0.1955 -0.1600
 6954W        W 6954   5.222   7.031   2.185 -0.3471 -0.0897 -0.0272
 6955W        W 6955   5.043   6.758   1.218 -0.0130 -0.0417 -0.1448
 6956W        W 6956   1.261   7.041   6.942  0.0136 -0.0987 -0.0108
 6957W        W 6957   5.540   9.582   7.709 -0.2253  0.0007 -0.0327
 6958W        W 6958   1.980   9.062   7.696 -0.1401 -0.1275  0.0388
 6959W        W 6959   5.390   4.825   9.529  0.1287  0.0243  0.2156
 6960W        W 6960   9.436   4.186   0.062  0.1311  0.0828 -0.1818
 6961W        W 6961   5.327   9.050   7.234 -0.2745 -0.2508  0.0400
 6962W        W 6962   0.491  10.250  10.180 -0.0539 -0.2060 -0.2610
 6963W        W 6963   6.434   1.563   4.421  0.0618  0.2453  0.2149
 6964W        W 6964   5.837   4.700   6.426  0.3273 -0.0073 -0.2769
 6965W        W 6965   7.349   0.485   2.295  0.1348 -0.0230 -0.2498
 6966W        W 6966   3.255   7.761   3.275  0.0931 -0.0902 -0.2397
 6967W        W 6967   5.669   1.466   6.053 -0.2121  0.0363 -0.2050
 6968W        W 6968   7.089   5.527  10.184  0.0642  0.1723  0.1538
 6969W        W 6969   6.600   0.398   4.270 -0.2903  0.1990 -0.4755
 6970W        W 6970   7.201   6.002   8.745 -0.1408  0.1046 -0.3366
 6971W        W 6971   2.828   6.474   0.403  0.0153  0.0409 -0.0955
 6972W        W 6972   3.532   8.275   6.922 -0.0091 -0.0989 -0.1960
 6973W        W 6973  10.157   0.986   6.636 -0.0486  0.3453 -0.3817
 6974W        W 6974   0.866   1.919   8.727  0.0469  0.0492  0.2442
 6975W        W 6975   4.241   4.843   6.640  0.2674 -0.0018  0.0519
 6976W        W 6976   1.144   8.703   3.355 -0.3637  0.1836  0.2601
 6977W        W 6977   3.775   2.028   0.617  0.1288 -0.0127 -0.0431
 6978W        W 6978   0.570   4.288   6.784 -0.1452  0.1679  0.1185
 6979W        W 6979   6.057   0.569   9.812  0.1349  0.0781  0.0610
 6980W        W 6980   0.994   7.340   4.468 -0.3953  0.1243  0.1327
 6981W        W 6981   6.449  10.044   0.625 -0.2438  0.1080 -0.1223
 6982W        W 6982   8.469   9.687   7.036  0.3610  0.4593 -0.0430
 6983W        W 6983   7.533   6.019   4.139  0.0532  0.1178 -0.0651
 6984W        W 6984   4.111   9.159   1.961  0.1140  0.1532  0.0099
 6985W        W 6985   8.275   4.462   1.467  0.0367 -0.2343  0.0138
 6986W        W 6986   3.197  10.176   8.914  0.0368 -0.0557 -0.0872
 6987W        W 6987   5.133   3.574   2.821  0.0283 -0.0214 -0.3341
 6988W        W 6988   2.432   8.547   1.276 -0.2648 -0.3497 -0.0419
 6989W        W 6989   4.455   6.780   5.308  0.1518 -0.0620  0.2623
 6990W        W 6990   6.085   0.944   1.345 -0.1229  0.1424  0.0105
 6991W        W 6991   8.920   2.606   9.634 -0.1649  0.0853 -0.1580
 6992W        W 6992   6.310   8.115   3.757 -0.0950  0.1776 -0.2949
 6993W        W 6993   9.693   8.838   9.309 -0.0118  0.0066 -0.1930
 6994W        W 6994   8.610   7.209   3.174  0.0693 -0.5883  0.1128
 6995W        W 6995   7.205   8.125   8.407 -0.2076 -0.3661 -0.1626
 6996W        W 6996   9.525   9.182   4.272  0.1923 -0.2099 -0.2699
 6997W        W 6997   1.191   6.625   5.175 -0.0435  0.1562 -0.1264
 6998W        W 6998   1.143   3.207   5.882 -0.1771 -0.0952 -0.2985
 6999W        W 6999   9.296   3.408   2.888  0.1028 -0.1686  0.0990
 7000W        W 7000   3.212   0.470  10.161  0.0001 -0.2767  0.1121
 7001W        W 7001   8.037   6.899   2.665 -0.0471 -0.1133 -0.1397
 7002W        W 7002   4.096   2.591   8.771 -0.0672 -0.4207  0.1181
 7003W        W 7003   7.304   0.819   5.965  0.0107  0.3120 -0.0088
 7004W        W 7004   9.621   8.967   2.159  0.2046 -0.0726  0.2644
 7005W        W 7005  10.291   6.692   3.920  0.0327  0.0400  0.1359
 7006W        W 7006   8.050   3.059   7.303  0.1832  0.3682 -0.1945
 7007W        W 7007   4.253   8.083   3.996 -0.1453  0.2001 -0.1011
 7008W        W 7008   8.014   1.581   6.877  0.1107  0.0236 -0.0931
 7009W        W 7009   8.162   0.618   8.862 -0.2399 -0.2267  0.0233
 7010W        W 7010   4.022   3.534   3.679  0.0782  0.2471 -0.2062
 7011W        W 7011   2.595   1.275   0.977  0.2675 -0.1407  0.1572
 7012W        W 7012   7.471   1.162   1.095  0.1446  0.1669  0.1546
 7013W        W 7013   2.837   7.374   7.078 -0.2289  0.0217 -0.1815
 7014W        W 7014   6.835   1.767   1.991 -0.0478  0.2172 -0.2524
 7015W        W 7015   2.969   5.238   2.167  0.2018 -0.0029 -0.0618
 7016W        W 7016   0.222   6.968   5.722 -0.3618 -0.0710  0.1860
 7017W        W 7017   7.416   8.816   9.908 -0.0566 -0.1001  0.0010
 7018W        W 7018   5.073   1.255   2.920 -0.1929  0.0977  0.0567
 7019W        W 7019   0.516   9.742   8.334  0.1295  0.3504 -0.0905
 7020W        W 7020   9.254   1.148   3.480  0.0271  0.1907 -0.0072
 7021W        W 7021   7.980   0.350   6.276  0.1190  0.2864  0.0652
 7022W        W 7022   2.835   9.752   2.056  0.1178 -0.0915  0.0307
 7023W        W 7023   7.272   5.719   6.357 -0.3062 -0.1929  0.1353
 7024W        W 7024   4.050   4.578   0.961 -0.1199 -0.1264 -0.2087
 7025W        W 7025   2.861   6.398   5.625  0.0081 -0.2011  0.1206
 7026W        W 7026   1.617   6.220   0.999 -0.1328 -0.3662 -0.3967
 7027W        W 7027   3.665   1.172   1.049 -0.1225  0.0282  0.0764
 7028W        W 7028   9.692   1.255   3.256 -0.1297 -0.1212 -0.0760
 7029W        W 7029   5.413   4.169   2.833  0.1314  0.0372 -0.4036
 7030W        W 7030   8.183   1.490   1.806 -0.1068 -0.0307  0.3134
 7031W        W 7031   2.833   6.351   3.396 -0.0074  0.0169 -0.1331
 7032W        W 7032   9.081   1.441   4.349  0.3084 -0.0438 -0.1284
 7033W        W 7033   7.603   0.734   7.337  0.0151  0.0491 -0.0708
 7034W        W 7034   5.950   7.537   5.404 -0.0039 -0.1208  0.0564
 7035W        W 7035   8.689   5.064   3.287 -0.0741 -0.1837 -0.0635
 7036W        W 7036   9.317   1.947   1.421  0.1597  0.0024  0.0392
 7037W        W 7037   8.481   7.505   8.217  0.1801 -0.0338  0.0747
 7038W        W 7038   3.872   3.838   5.071  0.1458  0.0756  0.0420
 7039W        W 7039   9.977   6.298   5.408  0.0324 -0.0721  0.0617
 7040W        W 7040   9.925   3.100   1.445  0.2797 -0.0541 -0.2138
 7041W        W 7041   6.865   4.483   5.086 -0.1499  0.1361 -0.2057
 7042W        W 7042   7.968  10.137   4.569 -0.5392 -0.1062 -0.0528
 7043W        W 7043   1.272   1.115   3.073 -0.0928 -0.0749 -0.1595
 7044W        W 7044   6.629   1.210   7.082  0.3947 -0.2825 -0.1072
 7045W        W 7045   9.060   9.038   4.432 -0.1687 -0.0826  0.0469
 7046W        W 7046   2.327   0.486   1.513  0.0147 -0.2127 -0.1553
 7047W        W 7047   2.392   7.509   0.667  0.0826  0.2048 -0.0440
 7048W        W 7048   9.237  10.146   5.812  0.1266  0.0505  0.0615
 7049W        W 7049   9.809   6.903   4.685 -0.0506 -0.1498  0.0334
 7050W        W 7050   7.255   6.884   2.288 -0.0570  0.1762  0.3176
 7051W        W 7051   7.394   3.715   2.807 -0.0503 -0.1041  0.1191
 7052W        W 7052   6.287   0.303   3.898 -0.0867  0.2223  0.0146
 7053W        W 7053   3.733   9.296   0.009  0.0904 -0.1220  0.4375
 7054W        W 7054   2.217   0.180   0.248 -0.0979  0.1444 -0.1206
 7055W        W 7055   7.047   9.016   4.578  0.1127  0.2698 -0.0836
 7056W        W 7056   1.705  10.157   3.789 -0.1037  0.1452 -0.0677
 7057W        W 7057   5.445   9.036   9.618 -0.0292  0.2459  0.1848
 7058W        W 7058   8.111   8.040   2.197  0.2660  0.1327 -0.3832
 7059W        W 7059   1.021   7.617   4.053  0.0619 -0.1353 -0.0855
 7060W        W 7060   4.432   8.628   5.131  0.0418 -0.0494 -0.2469
 7061W        W 7061   2.339   4.549   1.876  0.3913  0.2869  0.1651
 7062W        W 7062   5.373   5.318   8.401  0.1033 -0.1147 -0.1957
 7063W        W 7063   4.370   8.042   9.716  0.1601 -0.0167  0.0110
 7064W        W 7064   2.121   2.904   1.835 -0.0609 -0.3655 -0.2683
 7065W        W 7065   6.318   8.845   7.513  0.0960  0.1997  0.1589
 7066W        W 7066   1.470   2.370   6.115 -0.0611  0.0901 -0.0983
 7067W        W 7067   6.568  10.144  10.324 -0.0948  0.0376 -0.0717
 7068W        W 7068   9.497   8.706   8.141  0.2389  0.0917  0.0706
 7069W        W 7069   7.028   4.666   6.729 -0.2249  0.0120 -0.0435
 7070W        W 7070   5.214   7.799   0.272 -0.0200  0.0843  0.0883
 7071W        W 7071   7.187   6.396   3.528  0.0987 -0.2259 -0.1680
 7072W        W 7072   7.717   8.697   6.194 -0.5484 -0.1606  0.1423
 7073W        W 7073   6.553   1.937   5.135 -0.2739 -0.1313  0.1154
 7074W        W 7074   3.907   4.974   9.519  0.0493 -0.0669 -0.0256
 7075W        W 7075   0.343   4.844   0.987  0.2007  0.1605  0.1231
 7076W        W 7076   4.096   5.262   5.102  0.0880 -0.0125  0.4024
 7077W        W 7077   4.961   2.047   0.433 -0.0305  0.2349 -0.1622
 7078W        W 7078   1.132   3.910   3.715  0.1608  0.1680  0.1687
 7079W        W 7079   7.951   8.976   9.288 -0.2858 -0.4812  0.0773
 7080W        W 7080   6.033   0.644   0.047  0.0357  0.0358  0.2300
 7081W        W 7081   3.681   9.180   2.237  0.1101 -0.1863  0.0312
 7082W        W 7082   9.327   0.872   9.384  0.0717  0.0513 -0.0726
 7083W        W 7083   9.628   1.294   4.537 -0.0497 -0.1762  0.0307
 7084W        W 7084   7.912   6.711   3.463  0.0425 -0.2206 -0.1255
 7085W        W 7085   3.499   3.216   2.955  0.0179  0.1049  0.2886
 7086W        W 7086   0.398   6.857   4.107  0.0708 -0.0471  0.0865
 7087W        W 7087   8.061   4.738   9.096  0.0182  0.0848 -0.0504
 7088W        W 7088   0.077   2.646   8.380  0.0746 -0.0567 -0.3521
 7089W        W 7089   4.348   5.584   1.260 -0.1066 -0.1221 -0.3571
 7090W        W 7090   2.230   1.310   8.723 -0.0209 -0.1272 -0.1368
 7091W        W 7091   8.223   5.516   2.870 -0.2844  0.1370  0.1105
 7092W        W 7092   3.517   0.939   3.931  0.2165  0.1435  0.1185
 7093W        W 7093   8.304   4.961   1.251 -0.2404 -0.2190 -0.1031
 7094W        W 7094   0.799   0.562   5.300  0.0726  0.2005  0.0820
 7095W        W 7095   6.665   9.289  10.320 -0.2483 -0.2251  0.1387
 7096W        W 7096   1.288   5.790   6.501 -0.2029 -0.1443 -0.2626
 7097W        W 7097   6.774   8.652   7.810 -0.0806  0.1554  0.2363
 7098W        W 7098   9.273   6.238   8.118 -0.1517  0.2176 -0.1964
 7099W        W 7099   4.256   9.010   8.462 -0.0253  0.0869 -0.1197
 7100W        W 7100   4.193   3.795   8.144 -0.0114 -0.0121  0.0044
 7101W        W 7101   3.924   2.919   5.123  0.1106 -0.1915 -0.0016
 7102W        W 7102   3.995   1.830   5.467 -0.0333 -0.0872 -0.0910
 7103W        W 7103   8.185   5.315   7.189  0.1472 -0.0296  0.0905
 7104W        W 7104   6.080   2.914   6.884  0.0487  0.1301  0.1823
 7105W        W 7105   0.151   4.476   6.885  0.1163 -0.1841  0.1868
 7106W        W 7106   6.556   3.215   3.212  0.1868  0.2154 -0.1665
 7107W        W 7107   5.928   6.945   8.818 -0.2501  0.2874 -0.0274
 7108W        W 7108   1.443   6.748   6.466  0.2356  0.0078 -0.1842
 7109W        W 7109   7.160   7.460   6.567  0.0865  0.1848 -0.3705
 7110W        W 7110   9.969  10.215   7.737 -0.1132 -0.1259  0.0557
 7111W        W 7111   9.961   1.333   1.204  0.1258 -0.3285 -0.0702
 7112W        W 7112   5.623   4.649   3.497  0.0468  0.0980  0.0559
 7113W        W 7113   9.329   6.076   2.429 -0.0250 -0.2948  0.1090
 7114W        W 7114   1.103   5.319   2.821 -0.1808  0.1075 -0.0751
 7115W        W 7115   9.136   1.073   6.413  0.1455  0.1409 -0.2889
 7116W        W 7116   7.262   0.001   0.453 -0.0629 -0.1623 -0.1259
 7117W        W 7117   3.460   8.671   3.467  0.1321 -0.1031 -0.1392
 7118W        W 7118   4.103   0.067   6.015  0.1069  0.3105  0.2319
 7119W        W 7119   6.474   9.605   5.444 -0.0120 -0.0214  0.0583
 7120W        W 7120   9.775   0.230   8.448 -0.0091  0.0213  0.1244
 7121W        W 7121   2.007   8.956   3.861 -0.0565  0.1152  0.1847
 7122W        W 7122   7.972   9.095   6.498 -0.0410 -0.0406  0.1014
 7123W        W 7123   6.296   6.289   5.443  0.0084  0.2550 -0.1104
 7124W        W 7124   5.792   0.222   3.648 -0.0099  0.0423  0.1982
 7125W        W 7125   4.327   0.210   2.436 -0.2481  0.1541  0.2584
 7126W        W 7126  10.306   5.023   9.355  0.1313  0.0196 -0.1037
 7127W        W 7127   3.408   4.723   0.457 -0.2102  0.0526  0.2095
 7128W        W 7128   5.038   1.967   2.203  0.2794 -0.0727 -0.0643
 7129W        W 7129   9.223   4.141   4.094 -0.0958  0.0755 -0.1400
 7130W        W 7130   2.102   9.789   0.751  0.6971 -0.3441  0.3076
 7131W        W 7131   2.769   1.393   6.009  0.0397  0.0008  0.2073
 7132W        W 7132   1.947   1.771   2.318 -0.2253 -0.2432 -0.3853
 7133W        W 7133   6.370   7.433   0.980 -0.1792  0.1530 -0.0272
 7134W        W 7134   3.794   0.838   9.201 -0.1931  0.2348  0.1488
 7135W        W 7135   7.915   8.733   3.454  0.0016  0.0592  0.0455
 7136W        W 7136   5.018   2.305   5.966 -0.3563  0.0221  0.0438
 7137W        W 7137   9.645   1.543   0.712  0.1641 -0.2380 -0.0266
 7138W        W 7138   7.356   5.287   2.560 -0.2511 -0.0352  0.2648
 7139W        W 7139   0.901   6.658   4.173 -0.0485  0.0562 -0.0489
 7140W        W 7140   0.548   5.438   6.073 -0.1948 -0.0260 -0.2532
 7141W        W 7141   1.048   8.947   2.268  0.0350  0.2865 -0.1974
 7142W        W 7142   1.665   9.551   1.668 -0.2409  0.0247  0.0486
 7143W        W 7143   1.174   1.483   5.804  0.3044  0.1511 -0.0791
 7144W        W 7144   9.664   7.848   4.805 -0.1500 -0.0844  0.2954
 7145W        W 7145   7.975   6.176   4.760 -0.1968 -0.0358  0.2830
 7146W        W 7146   6.493   7.251   5.669 -0.1099 -0.2900  0.0135
 7147W        W 7147   5.699   7.606   9.496 -0.0882  0.0331  0.1582
 7148W        W 7148   3.431   8.751   2.192  0.0077  0.4026 -0.0758
 7149W        W 7149   2.910   4.565   5.878  0.0944 -0.1583  0.0674
 7150W        W 7150   1.634   2.955   1.640 -0.0844  0.3029  0.0957
 7151W        W 7151   0.852   9.801  10.157 -0.2576 -0.0342  0.2364
 7152W        W 7152   0.134   4.395   1.762  0.1444  0.0393 -0.1608
 7153W        W 7153   4.449   9.932   9.935 -0.1598 -0.1542  0.1736
 7154W        W 7154   2.014   9.500   5.397  0.1609  0.1168  0.2387
 7155W        W 7155  10.312  10.170   9.762 -0.0267 -0.1930 -0.0529
 7156W        W 7156   0.668   3.815   1.908 -0.0869 -0.2879 -0.0655
 7157W        W 7157   3.685   6.379   7.355  0.1696  0.4280  0.1213
 7158W        W 7158   3.390   6.993   3.885  0.0894 -0.0832 -0.0690
 7159W        W 7159   6.429   8.517   8.476  0.1126 -0.0693 -0.1779
 7160W        W 7160   3.668   9.269   6.891  0.2761 -0.0564  0.1313
 7161W        W 7161   1.598   7.265   8.901 -0.2111  0.1492  0.0660
 7162W        W 7162   0.942   5.304   7.409  0.0915 -0.2393 -0.0904
 7163W        W 7163   0.989   7.482   7.068 -0.0628  0.0904 -0.0543
 7164W        W 7164   5.348   3.338   0.684  0.2381 -0.3072  0.2195
 7165W        W 7165   0.514   6.338  10.247 -0.0214 -0.1611  0.0958
 7166W        W 7166   2.288   3.824   3.934  0.0384 -0.0249  0.0780
 7167W        W 7167   6.421   5.090   3.843 -0.1657 -0.1033  0.1580
 7168W        W 7168   3.391   9.511   9.666  0.3095  0.2332 -0.0515
 7169W        W 7169   7.407   2.347   0.747  0.2784  0.1347 -0.1317
 7170W        W 7170   3.237   0.493   4.110 -0.1047 -0.0370  0.0524
 7171W        W 7171   1.932   4.123  10.114 -0.0054 -0.1977 -0.0720
 7172W        W 7172   9.607   9.444   9.663  0.2530 -0.1004  0.4295
 7173W        W 7173   4.952   7.728   3.510  0.1074 -0.1317  0.1271
 7174W        W 7174   5.243   3.936   1.420  0.1685  0.0667 -0.2194
 7175W        W 7175   3.520   4.442   1.655  0.0720 -0.3258 -0.1950
 7176W        W 7176   0.845   4.293   2.025  0.1208  0.1888  0.3230
 7177W        W 7177   1.280   6.850   3.811 -0.3436 -0.1141 -0.0143
 7178W        W 7178   5.341   2.075   2.630  0.1750 -0.0379 -0.3281
 7179W        W 7179   1.577   2.134   1.532  0.0211  0.1260  0.1989
 7180W        W 7180   9.740   2.908   4.711 -0.0188 -0.0834 -0.0693
 7181W        W 7181   3.180   3.010   7.377  0.0907 -0.0012  0.0619
 7182W        W 7182   5.498   3.610   7.949 -0.0829 -0.0521  0.1554
 7183W        W 7183   9.099   9.470   9.483 -0.0924  0.1435  0.4047
 7184W        W 7184   7.549   3.745   6.491  0.1652 -0.0629 -0.2401
 7185W        W 7185   1.099   8.306  10.167  0.0941 -0.1586  0.0391
 7186W        W 7186   8.090   7.127   4.575  0.2025 -0.1550  0.3446
 7187W        W 7187   5.370   1.116   3.352 -0.2306 -0.0231  0.0516
 7188W        W 7188   3.236   7.717   8.965 -0.0587  0.0753  0.0683
 7189W        W 7189   9.990   4.299   3.488  0.2656  0.1358  0.3125
 7190W        W 7190   7.170   2.254  10.184 -0.0009 -0.0207 -0.0469
 7191W        W 7191   7.128   8.665   7.015  0.0895 -0.1043  0.0291
 7192W        W 7192   6.356   8.239   5.834  0.0306 -0.0226 -0.0401
 7193W        W 7193   4.660   8.541   7.578 -0.0550  0.1742 -0.2126
 7194W        W 7194   2.865   3.807   3.009  0.0073 -0.3052  0.2093
 7195W        W 7195   6.892   3.577   5.406  0.0167  0.1473  0.0729
 7196W        W 7196   9.836   8.258   9.933  0.2112  0.2490 -0.4343
 7197W        W 7197   4.672   1.878   8.569  0.0629  0.3914  0.1427
 7198W        W 7198   1.998   1.144   9.162 -0.0319  0.2154  0.0401
 7199W        W 7199   1.104   1.278   1.471  0.0803  0.0756 -0.2616
 7200W        W 7200   0.419   9.423   6.077 -0.2570 -0.0551 -0.0395
 7201W        W 7201   8.405   6.005   2.679 -0.1232 -0.0279 -0.2721
 7202W        W 7202   1.874   3.066   0.830  0.3008  0.1703 -0.1615
 7203W        W 7203   5.273   1.134   1.605 -0.1080  0.0200  0.0593
 7204W        W 7204   7.398   5.512   2.097 -0.1617  0.2645 -0.1992
 7205W        W 7205   0.678   3.845   5.119  0.1031  0.0693 -0.4464
 7206W        W 7206   0.588   2.743   5.614  0.2152  0.0216  0.2067
 7207W        W 7207   5.494   9.544   6.263 -0.0880  0.0110  0.0074
 7208W        W 7208   6.477   5.722   0.396 -0.0889 -0.1742 -0.0973
 7209W        W 7209   0.958   6.977   3.276 -0.2120  0.3098 -0.1008
 7210W        W 7210   2.902   1.600   6.929 -0.0276 -0.1975  0.3993
 7211W        W 7211   1.741   9.620   4.195  0.0523 -0.0900 -0.0246
 7212W        W 7212   2.356   5.750   8.922 -0.1667  0.0604  0.0160
 7213W        W 7213   6.223   3.716   8.677  0.0385 -0.0427  0.1466
 7214W        W 7214   7.765   4.894   8.742  0.0135 -0.2021 -0.2373
 7215W        W 7215   4.009   7.870   8.369  0.1588  0.0578 -0.0195
 7216W        W 7216   7.697   2.232   5.068  0.1275 -0.1514  0.2064
 7217W        W 7217   5.958   4.029   4.262  0.0900 -0.1947 -0.0655
 7218W        W 7218   0.112   7.922   4.311  0.0237  0.0882  0.2945
 7219W        W 7219   5.665   8.196  10.070 -0.0911  0.0150  0.1194
 7220W        W 7220   0.928   0.270   4.741 -0.0428  0.1963 -0.0281
 7221W        W 7221  10.213   8.195   2.183  0.5080 -0.0012  0.1950
 7222W        W 7222   2.533   1.003   5.336 -0.1233 -0.1737  0.1206
 7223W        W 7223  10.091   5.467   9.428  0.0149  0.0329 -0.0400
 7224W        W 7224   6.382   4.398   2.244  0.1268  0.1994 -0.0435
 7225W        W 7225   5.656   0.674   5.425  0.0300  0.0735  0.0069
 7226W        W 7226   0.955   7.699   2.457  0.0943  0.0366  0.2588
 7227W        W 7227  10.233   6.746   8.657  0.0074 -0.6530  0.0449
 7228W        W 7228   4.585   2.119   3.244 -0.1480  0.0480 -0.1358
 7229W        W 7229   3.161   2.437   4.119  0.1287  0.1222 -0.1147
 7230W        W 7230   1.281  10.150   5.919  0.3532  0.0950  0.0066
 7231W        W 7231   7.191   5.325   9.355 -0.0581 -0.1136  0.0671
 7232W        W 7232   8.418   9.024   1.614  0.0673  0.0512  0.0176
 7233W        W 7233   2.374   1.952   4.890  0.2186  0.0950 -0.0012
 7234W        W 7234   8.776   0.169   9.851 -0.1665  0.2934 -0.3259
 7235W        W 7235   3.746   0.321   9.390  0.3482 -0.0883 -0.0513
 7236W        W 7236   5.304   7.580   5.904 -0.0901 -0.2133 -0.0844
 7237W        W 7237   2.544   2.672   8.776 -0.1679 -0.0593 -0.1909
 7238W        W 7238   6.860   5.461   2.015 -0.0764 -0.0947 -0.2536
 7239W        W 7239   8.263   7.824   1.224 -0.3280  0.0311  0.1988
 7240W        W 7240   8.791   7.078   3.693 -0.1194  0.4137  0.1534
 7241W        W 7241   7.963   8.773   6.916  0.0521  0.2252  0.0160
 7242W        W 7242  10.318   2.970   7.261 -0.0231  0.0238 -0.0308
 7243W        W 7243   1.789   5.857   1.616 -0.3330 -0.0580  0.1214
 7244W        W 7244   4.514   0.728   0.804 -0.1005  0.1588 -0.1430
 7245W        W 7245   0.854   6.158   5.394 -0.0095  0.2321 -0.1834
 7246W        W 7246   0.318   8.473   1.030 -0.2744 -0.0319  0.1886
 7247W        W 7247   3.840   0.346   5.275  0.0351  0.0483 -0.2455
 7248W        W 7248   3.261   2.001   8.007 -0.1608  0.2417  0.3244
 7249W        W 7249   4.488   3.530   6.517  0.0047  0.2408 -0.1368
 7250W        W 7250   2.268   8.247   4.678 -0.0922  0.2277 -0.4578
 7251W        W 7251   9.951   8.847   1.363 -0.0856 -0.2503  0.2700
 7252W        W 7252   4.912   2.411   4.572  0.2589 -0.1049  0.1514
 7253W        W 7253   7.107   2.155   7.867 -0.0456  0.1035 -0.3956
 7254W        W 7254   0.770   7.088   0.717  0.0723 -0.1758  0.1054
 7255W        W 7255   2.347   5.765   0.748  0.2195  0.1522 -0.0520
 7256W        W 7256   1.723   8.695   0.808 -0.1618 -0.2274  0.0590
 7257W        W 7257   6.740   6.778   1.802  0.0343  0.1989  0.4201
 7258W        W 7258   7.733   2.336   5.556  0.4282 -0.1066  0.1436
 7259W        W 7259   0.227   8.188   8.514 -0.1281  0.0656  0.0599
 7260W        W 7260   8.179   5.029   3.034  0.1792 -0.1930 -0.0581
 7261W        W 7261   5.038   3.898   5.721 -0.1763 -0.1003 -0.1613
 7262W        W 7262   0.654   8.346   6.029 -0.4366 -0.2676 -0.0004
 7263W        W 7263   8.302   0.768   1.255  0.0970 -0.0877 -0.0188
 7264W        W 7264   9.854   4.824   4.369  0.2895  0.0927 -0.2691
 7265W        W 7265   1.411   1.538   5.390  0.4094  0.1997 -0.2403
 7266W        W 7266   3.112  10.180   3.378  0.0629  0.0933  0.0971
 7267W        W 7267  10.117   8.164   0.371 -0.3495  0.2646  0.2456
 7268W        W 7268   3.967   2.491   7.717  0.0235 -0.2969  0.5473
 7269W        W 7269   2.427   8.255   2.091 -0.2200 -0.0288 -0.0315
 7270W        W 7270   7.333   4.311   9.504 -0.2848  0.3358  0.0001
 7271W        W 7271   8.881   4.744   8.553  0.0410  0.0474  0.0472
 7272W        W 7272   3.585   6.280   8.275 -0.2559 -0.1607  0.0009
 7273W        W 7273   3.153   2.101   1.224  0.1928 -0.0851  0.0581
 7274W        W 7274   8.848   1.889   2.520 -0.2903  0.0699 -0.1031
 7275W        W 7275   7.325   9.046   9.325  0.2417  0.2369 -0.2398
 7276W        W 7276   5.426  10.165   1.043  0.1404  0.3320 -0.0942
 7277W        W 7277   8.609   4.152   2.347 -0.1710  0.2398 -0.1981
 7278W        W 7278   4.447   1.309   4.933  0.2393 -0.1866 -0.0843
 7279W        W 7279   8.573   7.119   5.643 -0.0516 -0.3769 -0.1104
 7280W        W 7280   5.894   4.146   0.827  0.0058  0.0234  0.1283
 7281W        W 7281   2.363   6.483   7.578  0.1661  0.2956  0.2265
 7282W        W 7282   3.382   9.118   5.940  0.3208 -0.0706  0.1427
 7283W        W 7283   3.899   1.302   4.131 -0.0596  0.0176 -0.1724
 7284W        W 7284   9.736   7.244   8.888  0.2675  0.1961 -0.1086
 7285W        W 7285   6.817   4.735   2.261  0.0578 -0.3282  0.0094
 7286W        W 7286   2.236   8.956   6.700 -0.1500  0.0067 -0.1180
 7287W        W 7287   6.437   2.380   4.685  0.3309  0.0636 -0.1513
 7288W        W 7288   8.464   2.272   9.923  0.2174  0.2253  0.2535
 7289W        W 7289   7.212   3.706   3.935 -0.0453 -0.0571 -0.1187
 7290W        W 7290   6.865   4.195   0.479 -0.0347 -0.1913  0.2546
 7291W        W 7291   6.939   8.291   2.214  0.0645 -0.2201 -0.0402
 7292W        W 7292   3.791   6.428   3.845  0.3037  0.1066 -0.1114
 7293W        W 7293   3.279   0.494   9.019  0.1944  0.0071 -0.0063
 7294W        W 7294   8.211   2.449   8.783  0.2350 -0.0277  0.0238
 7295W        W 7295   0.924   2.933   0.872 -0.2258 -0.0536  0.2549
 7296W        W 7296   9.559   7.344   3.959 -0.2406  0.1350  0.0717
 7297W        W 7297   6.474   5.354   0.076  0.1083  0.3124  0.1926
 7298W        W 7298   3.944   4.643   2.867  0.3126 -0.2367 -0.1297
 7299W        W 7299   1.778   5.492   4.263 -0.0661  0.0187 -0.0472
 7300W        W 7300   9.375   7.766   3.200  0.3619 -0.0943 -0.1374
 7301W        W 7301   1.787   1.703   7.910 -0.0135  0.1012 -0.1771
 7302W        W 7302   3.484   5.053   1.644 -0.0478  0.1501 -0.2386
 7303W        W 7303   5.475   5.306   9.315 -0.0952 -0.1314  0.1605
 7304W        W 7304   7.907   9.071   0.881  0.1330 -0.0741  0.5194
 7305W        W 7305   5.834   8.312   1.437  0.1022  0.0113 -0.0210
 7306W        W 7306   6.168   8.662   1.727  0.0526  0.0768 -0.0096
 7307W        W 7307   9.757   3.185   6.049  0.2391  0.1139 -0.0583
 7308W        W 7308   1.152   7.319   6.560 -0.0647  0.0601  0.1975
 7309W        W 7309   6.620   5.595   3.406 -0.0072 -0.3255  0.1284
 7310W        W 7310   4.878   0.728   3.803 -0.2220 -0.1475  0.0460
 7311W        W 7311   7.591   4.645   9.797  0.0556  0.1644 -0.1445
 7312W        W 7312   0.267   2.005   7.323 -0.0145  0.0188 -0.0948
 7313W        W 7313   0.020   0.818   2.415  0.2391  0.3764  0.0884
 7314W        W 7314   0.960   4.705   4.794 -0.0452 -0.1808  0.1507
 7315W        W 7315   5.579   5.419   1.229  0.0205  0.2676  0.1556
 7316W        W 7316   6.292   8.755   8.012  0.0495  0.0259  0.0427
 7317W        W 7317   6.137   3.026   4.047 -0.2748 -0.0650  0.3414
 7318W        W 7318   5.877   3.041   2.492 -0.3954  0.1088 -0.4487
 7319W        W 7319   9.748   9.517   2.055  0.2259 -0.2762 -0.1549
 7320W        W 7320   6.522   3.736   4.751  0.0573  0.2345 -0.1491
 7321W        W 7321   7.555   6.459   3.818  0.0578 -0.0742 -0.0385
 7322W        W 7322   9.992   4.544   2.022  0.1972 -0.2201 -0.0440
 7323W        W 7323  10.098   3.463   1.764 -0.1035  0.0751  0.0883
 7324W        W 7324   5.725   4.934   9.850 -0.1893 -0.1072 -0.3179
 7325W        W 7325   7.903   0.230   9.274 -0.2382  0.0838  0.2271
 7326W        W 7326   4.158   1.156   6.983  0.1616  0.2175 -0.0632
 7327W        W 7327   6.700   9.001   0.379  0.1763 -0.1859 -0.1807
 7328W        W 7328   5.159   4.492   1.457  0.1208 -0.1317  0.0232
 7329W        W 7329   1.149   5.844   0.440  0.1511  0.0746 -0.0176
 7330W        W 7330   6.989   1.457   0.195 -0.0247 -0.0012  0.2613
 7331W        W 7331   2.556   8.695   0.321  0.0683 -0.1492 -0.0652
 7332W        W 7332   6.478   8.248   0.089  0.0726  0.1133  0.0563
 7333W        W 7333   0.362   1.969   3.402  0.1435  0.1848  0.1409
 7334W        W 7334   3.683   5.104   7.602  0.4298  0.1894 -0.0421
 7335W        W 7335   6.138   4.934   5.826  0.1266  0.1084  0.1029
 7336W        W 7336   2.894   0.779   2.283  0.0351  0.1356 -0.0712
 7337W        W 7337   4.254   9.138   7.004  0.2178  0.1758 -0.0689
 7338W        W 7338   0.924   8.567   1.483 -0.1134 -0.1109 -0.1138
 7339W        W 7339  10.325   8.378   4.678  0.2082 -0.3409 -0.2594
 7340W        W 7340   9.465   8.924  10.228 -0.0090 -0.3977  0.0679
 7341W        W 7341   0.790   6.837   7.964  0.2365 -0.0177 -0.1663
 7342W        W 7342   0.920   3.473   3.472  0.0718 -0.3306 -0.3000
 7343W        W 7343   8.421   4.630   9.485  0.2140  0.0919  0.1489
 7344W        W 7344   5.129   8.264   0.293  0.0888  0.1265  0.1572
 7345W        W 7345   2.073   3.397   9.372  0.0600 -0.2229 -0.0651
 7346W        W 7346   2.990   9.142   9.782 -0.2919 -0.0422 -0.1227
 7347W        W 7347   4.196   9.181   0.057 -0.1839  0.1316  0.0712
 7348W        W 7348   8.821   9.902   5.938 -0.1078 -0.0577 -0.1558
 7349W        W 7349   4.497   4.516   3.649 -0.0818  0.1000  0.1104
 7350W        W 7350   1.319   8.903   6.425 -0.0553 -0.0824  0.0157
 7351W        W 7351   5.893   5.716   7.602  0.0744  0.1007 -0.0278
 7352W        W 7352   4.093   6.853   2.544  0.0108 -0.0602  0.3476
 7353W        W 7353   1.400   7.729   1.548 -0.1248  0.0876 -0.0672
 7354W        W 7354   2.449   6.237   0.572 -0.1977 -0.0478  0.0673
 7355W        W 7355   0.103   6.942   6.231  0.0879  0.0934 -0.0569
 7356W        W 7356   6.848   0.682   4.563 -0.1144  0.0283 -0.0532
 7357W        W 7357   4.516   2.569   1.040 -0.0886  0.1461 -0.4071
 7358W        W 7358   5.035   7.000   5.522  0.3527 -0.2381  0.2867
 7359W        W 7359   6.411   6.187   9.152 -0.3622 -0.3337 -0.0052
 7360W        W 7360   2.592   0.693   2.660 -0.0222  0.0952  0.0223
 7361W        W 7361   5.754   2.984   0.953  0.2073  0.0045  0.0174
 7362W        W 7362   0.655   1.313   9.502  0.0067  0.3128  0.2187
 7363W        W 7363   2.925   2.920   8.277  0.3085  0.0249 -0.0111
 7364W        W 7364   5.819   9.394   4.890 -0.3380 -0.1634  0.0826
 7365W        W 7365   3.786   9.275   2.670 -0.0846  0.1374 -0.1233
 7366W        W 7366   4.363   1.097   1.849  0.0352 -0.1560  0.0923
 7367W        W 7367   1.864   9.061   4.960  0.0654  0.0285 -0.1551
 7368W        W 7368   9.152   2.469   9.245 -0.0367  0.0816  0.2072
 7369W        W 7369   5.875   5.222   1.556 -0.3446  0.1456 -0.1738
 7370W        W 7370   5.371   1.571   2.639  0.0142  0.2972  0.0149
 7371W        W 7371   4.919   3.570   2.138 -0.1785 -0.0804  0.2840
 7372W        W 7372   6.811   0.001   1.943 -0.3210  0.5701  0.2129
 7373W        W 7373   5.702   7.903   0.577  0.1809 -0.2103 -0.1107
 7374W        W 7374   9.355   6.900   8.912  0.0566  0.0539  0.0878
 7375W        W 7375   9.534   8.017   0.361 -0.3226  0.0443 -0.0481
 7376W        W 7376   8.878   3.931   7.159 -0.0653 -0.0044 -0.1942
 7377W        W 7377   6.433   1.540   0.255  0.0778 -0.1059 -0.0029
 7378W        W 7378   7.895   2.500   0.394  0.1874  0.1735  0.1095
 7379W        W 7379   3.075   2.078   5.564  0.0612 -0.2697 -0.3493
 7380W        W 7380   6.931   1.444   9.659 -0.2405  0.1617 -0.3256
 7381W        W 7381   3.218   1.512   4.501  0.1924 -0.1354 -0.1367
 7382W        W 7382   5.359   5.372  10.046  0.3027 -0.0740 -0.1844
 7383W        W 7383   3.609  10.174   2.541 -0.1881  0.3981 -0.2128
 7384W        W 7384   9.823   6.085   8.759 -0.2388 -0.1358  0.2796
 7385W        W 7385   0.176   5.594   5.491 -0.0558  0.1563 -0.2384
 7386W        W 7386   1.336   3.663   0.241  0.1436  0.1519  0.1585
 7387W        W 7387   8.104   5.786   1.076  0.1947 -0.0339  0.0457
 7388W        W 7388   5.005   8.655   4.431 -0.3037 -0.0935  0.0276
 7389W        W 7389   3.060   4.427   5.046 -0.0602 -0.0541  0.0928
 7390W        W 7390   3.938   0.342   6.868 -0.1183  0.0745 -0.1621
 7391W        W 7391   2.291   4.244   5.342 -0.0801 -0.2612  0.1303
 7392W        W 7392   1.591   0.448   8.780 -0.5238  0.4246 -0.2980
 7393W        W 7393   8.034   7.527   6.576  0.0122 -0.0323  0.0180
 7394W        W 7394   8.463   3.706   2.600  0.4442  0.0670 -0.0721
 7395W        W 7395   8.362   9.192   9.548  0.0003  0.0592  0.3197
 7396W        W 7396   9.455   9.474   7.220 -0.2041  0.3595  0.1649
 7397W        W 7397   8.627   9.361   3.897  0.3221 -0.0906 -0.2680
 7398W        W 7398   8.557   3.061   3.878  0.2681 -0.1027 -0.1497
 7399W        W 7399   3.946   9.162   6.386 -0.1760 -0.0213 -0.1520
 7400W        W 7400   6.457   3.160   0.184 -0.2628 -0.0411  0.2550
 7401W        W 7401   4.395   3.669   2.164  0.2598  0.0965  0.1231
 7402W        W 7402   9.043   9.383   5.105 -0.1963  0.1176  0.1227
 7403W        W 7403   2.346   1.183   1.399 -0.1259 -0.1112 -0.1330
 7404W        W 7404   5.302   7.686   2.750 -0.2098  0.2323 -0.1092
 7405W        W 7405   2.923   0.821   9.918  0.0715  0.3007 -0.0757
 7406W        W 7406   3.265  10.120   7.345  0.1520  0.2538 -0.0203
 7407W        W 7407   8.692   7.610   8.839 -0.1681 -0.1373  0.3393
 7408W        W 7408   5.856   5.309   5.747  0.0890  0.0978  0.2002
 7409W        W 7409   8.295   2.845   2.042  0.1526  0.0518  0.1332
 7410W        W 7410   8.531   9.032   5.768 -0.2405  0.1027 -0.0526
 7411W        W 7411   1.778   8.098   7.505  0.2987 -0.2026 -0.2717
 7412W        W 7412   6.847   0.355   7.285  0.0388 -0.0133 -0.0364
 7413W        W 7413   9.313   7.605   4.456  0.0439 -0.1690 -0.1805
 7414W        W 7414   0.644  10.215   2.464 -0.5538  0.0271 -0.1149
 7415W        W 7415   0.360   5.760   8.006 -0.0072  0.2489  0.3053
 7416W        W 7416   2.440   4.876   4.098  0.2128  0.1640 -0.2631
 7417W        W 7417   5.746   3.648   3.540 -0.2751  0.0988  0.2352
 7418W        W 7418   5.981   7.103   6.473 -0.4132 -0.0104 -0.1833
 7419W        W 7419   8.320   0.115   9.551 -0.0389  0.3310 -0.0307
 7420W        W 7420   8.507   0.107   8.488 -0.0071  0.0249 -0.2561
 7421W        W 7421   2.665   2.103   1.334  0.2853  0.0380  0.1109
 7422W        W 7422   8.023   4.419   1.872 -0.0192  0.0935 -0.0881
 7423W        W 7423   6.916   2.542   4.507 -0.2145  0.3423  0.0976
 7424W        W 7424   6.276   2.158   9.691 -0.1316 -0.0964 -0.0968
 7425W        W 7425   7.843   9.051   4.905  0.0256 -0.1477  0.1315
 7426W        W 7426   3.772   5.486  10.058  0.0533 -0.3251 -0.2327
 7427W        W 7427   3.341  10.065   4.309  0.1833  0.0555  0.0577
 7428W        W 7428   6.864   5.392   5.639  0.1002 -0.6373  0.0397
 7429W        W 7429   7.658   1.602   1.016  0.1406  0.1572  0.0444
 7430W        W 7430   7.630   8.639   5.649 -0.1229 -0.3281 -0.0072
 7431W        W 7431   7.429   9.326   0.817  0.0969  0.2985 -0.0466
 7432W        W 7432   5.623   4.195   6.329  0.0289 -0.1052 -0.4501
 7433W        W 7433   0.007   3.028   2.056 -0.2322 -0.0136 -0.1843
 7434W        W 7434   2.915   6.223   1.128 -0.0147  0.0863  0.3706
 7435W        W 7435   2.238   6.526  10.010  0.0498  0.0727  0.0368
 7436W        W 7436   6.560   0.994   0.992 -0.0925  0.2120 -0.0654
 7437W        W 7437   9.390   1.776   9.938 -0.0012 -0.1653  0.0041
 7438W        W 7438   8.034   9.565   4.917 -0.2863 -0.2580  0.2236
 7439W        W 7439   6.450   0.649  10.092  0.0019  0.0521 -0.2008
 7440W        W 7440   9.454  10.198   8.261  0.1697 -0.1718  0.0770
 7441W        W 7441   4.106   8.177   1.359 -0.0739  0.0139 -0.0607
 7442W        W 7442   7.913   3.251   0.352 -0.0174 -0.1842  0.0932
 7443W        W 7443   5.914   4.424   7.816 -0.0824 -0.0688  0.0512
 7444W        W 7444   2.576   5.186   8.373 -0.1692 -0.3251  0.0913
 7445W        W 7445   0.512   9.923   8.877  0.1153  0.1804  0.1888
 7446W        W 7446   7.285   1.699   2.240  0.2154 -0.1084 -0.4688
 7447W        W 7447   2.857   5.590   2.636  0.2366  0.1706 -0.1258
 7448W        W 7448   9.110   6.326   3.988 -0.0565 -0.1209  0.0258
 7449W        W 7449   2.753   9.658   0.953 -0.0523 -0.4882  0.3908
 7450W        W 7450   0.863   6.441   3.578 -0.3358  0.1694  0.0108
 7451W        W 7451   4.178   1.054   0.960  0.1201 -0.1183  0.1007
 7452W        W 7452   5.138   0.128   5.286 -0.0843  0.1452  0.2024
 7453W        W 7453   3.167  10.337   2.708 -0.0432 -0.2979  0.3118
 7454W        W 7454   9.224   8.611   5.679 -0.3376 -0.2778 -0.2504
 7455W        W 7455   5.409   4.230   5.894 -0.0214 -0.1944 -0.0197
 7456W        W 7456   3.184   1.558   2.345 -0.1405  0.0731 -0.0267
 7457W        W 7457   2.269   6.478   2.906  0.0871 -0.1513  0.3022
 7458W        W 7458   9.679   3.183   7.547  0.0959 -0.0616  0.0672
 7459W        W 7459   3.333   9.667   7.051 -0.0355 -0.0780 -0.1972
 7460W        W 7460   6.872   0.929   1.691  0.1156  0.2694 -0.0065
 7461W        W 7461   1.935   7.644   5.429  0.1367  0.2317 -0.2032
 7462W        W 7462   7.051   2.026   9.059 -0.2674 -0.1103  0.0282
 7463W        W 7463   9.195   6.213   9.399 -0.2266 -0.0114  0.0298
 7464W        W 7464   4.330   0.542   6.248 -0.1213  0.0794 -0.2430
 7465W        W 7465   0.780   5.079   0.886 -0.0343  0.4928 -0.0946
 7466W        W 7466   4.051   7.556   9.456  0.0719 -0.0631 -0.1351
 7467W        W 7467   4.527   6.954   0.974 -0.4300  0.0262 -0.3703
 7468W        W 7468   3.722   1.311   6.806  0.2241 -0.0788  0.2067
 7469W        W 7469   4.292   1.853   5.881 -0.0414 -0.1537 -0.2099
 7470W        W 7470   4.530   2.530   1.897 -0.0489 -0.2215 -0.0546
 7471W        W 7471   4.686   4.721   6.143  0.0854  0.1457 -0.2862
 7472W        W 7472   6.865   2.296   7.442  0.1983 -0.3203 -0.0922
 7473W        W 7473   3.359   3.902   9.363 -0.0051  0.0056 -0.1936
 7474W        W 7474   6.482   3.929   2.369 -0.1960 -0.2203  0.0984
 7475W        W 7475   6.344   7.089   1.650 -0.5571  0.0396 -0.2044
 7476W        W 7476   8.879   3.336   2.621 -0.2433 -0.0275  0.1183
 7477W        W 7477   5.457   0.521   0.721  0.4177 -0.4436  0.0281
 7478W        W 7478   0.778   2.065   4.803  0.1432 -0.1688 -0.1928
 7479W        W 7479   1.251   9.663   0.120 -0.0699 -0.1660 -0.0046
 7480W        W 7480   9.993   2.629   7.612  0.1189 -0.1271 -0.1684
 7481W        W 7481   1.642   6.866  10.039  0.1936  0.0507  0.2775
 7482W        W 7482   4.773   0.284   2.190 -0.0338 -0.1654 -0.1814
 7483W        W 7483   0.054   7.882   6.109  0.0125  0.1156 -0.4575
 7484W        W 7484   6.916   7.496   3.296 -0.1684 -0.1490 -0.1080
 7485W        W 7485   0.134   1.842   2.013  0.2174 -0.3514 -0.0026
 7486W        W 7486   3.613   6.918   2.372 -0.0700 -0.1580  0.0370
 7487W        W 7487   8.020   8.712   8.628  0.1392  0.1128 -0.1818
 7488W        W 7488   7.098   3.387   1.840  0.1515  0.0069  0.1303
 7489W        W 7489   1.057   3.481   4.471 -0.0732  0.0512  0.0057
 7490W        W 7490   9.349   4.388   1.073 -0.3623  0.0327 -0.1147
 7491W        W 7491   2.902   7.844   0.336 -0.0370  0.0436 -0.0048
 7492W        W 7492   2.985   8.311   3.936 -0.0530  0.2288 -0.0889
 7493W        W 7493   9.880  10.175   8.743 -0.0320 -0.2041 -0.3142
 7494W        W 7494   9.955   0.573   2.177 -0.0510 -0.1949 -0.0692
 7495W        W 7495   8.955   3.078   0.550  0.0450 -0.0949  0.1036
 7496W        W 7496   6.008   9.560   2.513  0.0054  0.3509  0.0257
 7497W        W 7497   0.835   2.198   0.136 -0.0440  0.1608 -0.2497
 7498W        W 7498   6.793   6.099   7.786 -0.1852  0.0451 -0.0818
 7499W        W 7499   2.347   7.726   3.614 -0.0928  0.0952  0.2240
 7500W        W 7500   8.034  10.045   9.794  0.3168  0.0230  0.2297
 7501W        W 7501   7.970   6.283   4.137 -0.1978 -0.0384 -0.0552
 7502W        W 7502   5.738   4.098   1.989 -0.0342 -0.1294 -0.2459
 7503W        W 7503   3.003   8.819   3.703 -0.0855 -0.2257  0.2379
 7504W        W 7504   5.698   3.828   0.512  0.2561 -0.0151 -0.0263
 7505W        W 7505  10.195   6.082   7.410  0.0775 -0.0467 -0.0468
 7506W        W 7506   1.757  10.314   3.317  0.2631  0.0698  0.0143
 7507W        W 7507   7.035   5.859   3.331  0.0146  0.0890 -0.0824
 7508W        W 7508   1.517   0.807   6.275  0.2177  0.0295 -0.1683
 7509W        W 7509   6.178   6.106   4.545  0.1146 -0.1995 -0.1203
 7510W        W 7510   0.295   6.085   7.118 -0.1133 -0.0505  0.0882
 7511W        W 7511   6.324   9.533   4.504 -0.2597 -0.1082  0.0888
 7512W        W 7512   1.208   6.307   3.935  0.0295  0.0963  0.2808
 7513W        W 7513   5.937   4.021   0.099 -0.0465 -0.3163  0.1881
 7514W        W 7514   5.485   4.901  10.282 -0.0357  0.2612 -0.2048
 7515W        W 7515   9.930   0.164   1.874  0.0513  0.5240 -0.1568
 7516W        W 7516   9.197   0.705   1.596 -0.0514  0.1267 -0.1170
 7517W        W 7517  10.188   2.076   7.525  0.1322 -0.1670 -0.2615
 7518W        W 7518   7.032   5.303   6.501  0.2432 -0.0010  0.5053
 7519W        W 7519   3.153   2.669   2.153  0.1156  0.0353  0.0082
 7520W        W 7520   8.335   9.484   7.497 -0.0948 -0.1105  0.2814
 7521W        W 7521   3.513   7.300   0.237 -0.0641  0.0648  0.0452
 7522W        W 7522   9.378   9.508   2.426  0.0910  0.0521 -0.1532
 7523W        W 7523   5.846   0.808   0.509  0.0059 -0.2049 -0.0309
 7524W        W 7524   8.856   8.852   6.919  0.1945 -0.1811 -0.4813
 7525W        W 7525   2.470   2.146   3.530 -0.1770  0.1085  0.1413
 7526W        W 7526   1.623  10.032   0.010 -0.1563 -0.2771  0.1584
 7527W        W 7527   6.159   7.203   8.350  0.1368 -0.1033 -0.2609
 7528W        W 7528  10.077   2.545   5.605  0.1959  0.1129 -0.1931
 7529W        W 7529   2.295   9.335   3.592 -0.0232 -0.1801 -0.1469
 7530W        W 7530   0.006   3.117   8.231 -0.3017  0.2157 -0.0491
 7531W        W 7531   9.175   9.193   5.703 -0.2237 -0.1379 -0.1444
 7532W        W 7532   4.209   5.240   9.994  0.1411  0.3201 -0.1490
 7533W        W 7533   1.028   0.580   7.957 -0.1124 -0.1337  0.1150
 7534W        W 7534   6.265   1.133   9.777 -0.0905  0.1438 -0.0052
 7535W        W 7535   5.635   5.790  10.162 -0.0800 -0.0405 -0.1280
 7536W        W 7536   5.218   4.441   7.682  0.2894  0.0825 -0.1594
 7537W        W 7537   8.900   9.153   0.775 -0.1147  0.0378  0.0216
 7538W        W 7538   7.547   5.860   8.235  0.0597  0.3016 -0.2443
 7539W        W 7539   4.757   9.582   5.311  0.0232 -0.0652  0.4359
 7540W        W 7540   4.585   5.560   7.140  0.1867  0.0962  0.5800
 7541W        W 7541   1.558   2.225   8.946 -0.0256  0.3616  0.1876
 7542W        W 7542   8.358   6.252   8.289  0.0261  0.1448 -0.0552
 7543W        W 7543   2.213   0.489   7.220  0.0836 -0.0151 -0.0639
 7544W        W 7544   9.191   9.229   8.655 -0.1742  0.1039 -0.1174
 7545W        W 7545   0.063   3.689   4.676 -0.2733  0.0630 -0.2267
 7546W        W 7546  10.345   9.537   6.777  0.2259 -0.1519  0.4459
 7547W        W 7547   3.395   4.654   6.043  0.1261  0.0710 -0.1436
 7548W        W 7548   7.098   8.396   0.629 -0.1587 -0.1005 -0.2567
 7549W        W 7549   4.438   6.433   2.254  0.1008  0.1465 -0.1469
 7550W        W 7550   1.391   4.955   6.630  0.0114  0.0246  0.1464
 7551W        W 7551   5.594   6.953   8.259 -0.1916  0.1978  0.0609
 7552W        W 7552   5.024   4.907   8.455  0.1154 -0.0738 -0.1059
 7553W        W 7553   6.022   9.208   1.711 -0.1364 -0.0645 -0.1544
 7554W        W 7554   8.673   5.282   1.369  0.0624  0.1684  0.5003
 7555W        W 7555   5.836   9.706   7.344 -0.2757  0.0851  0.0558
 7556W        W 7556   3.891   8.115   7.897  0.0262 -0.0216  0.0039
 7557W        W 7557   4.145   7.037   1.542 -0.0253  0.2390 -0.1529
 7558W        W 7558   5.923   7.578   3.638 -0.1890  0.1733  0.0464
 7559W        W 7559   4.785   1.447   5.336 -0.0018  0.2063  0.0681
 7560W        W 7560   5.979   3.270  10.271  0.1931 -0.2016  0.0104
 7561W        W 7561   3.793   6.851   7.640  0.0710  0.1101 -0.0173
 7562W        W 7562   7.641   6.054   5.557  0.1188  0.0424 -0.1786
 7563W        W 7563   1.697   7.415  10.266 -0.2764 -0.0798 -0.0803
 7564W        W 7564   2.797   3.088   3.484 -0.1627 -0.0050 -0.0116
 7565W        W 7565   3.144   3.523   1.783 -0.0114 -0.2574  0.1677
 7566W        W 7566   1.576   0.823   1.924  0.0043 -0.0818 -0.0448
 7567W        W 7567  10.088   5.073   2.532 -0.0603  0.0762  0.1237
 7568W        W 7568   7.649   2.304  10.344 -0.2692  0.0387  0.2954
 7569W        W 7569   8.267   9.517   0.193  0.1567 -0.1676 -0.0754
 7570W        W 7570   1.510   8.764   4.025 -0.0312  0.0303 -0.0127
 7571W        W 7571   5.719   8.049   4.610 -0.1767  0.3372  0.1577
 7572W        W 7572   8.108   7.043   6.561 -0.0178  0.1531 -0.0053
 7573W        W 7573   3.015   8.861   0.504  0.4415  0.0965  0.2915
 7574W        W 7574   2.746   7.382   9.445 -0.0210  0.1054  0.1982
 7575W        W 7575   8.387   5.345  10.154  0.2527 -0.0515 -0.2559
 7576W        W 7576   2.294   7.128   8.878 -0.0652 -0.2305  0.0917
 7577W        W 7577  10.023   7.317   9.678 -0.4502  0.0628  0.1376
 7578W        W 7578   4.251   7.611   4.705  0.1522 -0.2064 -0.3271
 7579W        W 7579   5.709   9.394   2.044 -0.1043  0.0566 -0.2684
 7580W        W 7580   6.410   4.631   6.179 -0.1884  0.0409  0.0466
 7581W        W 7581   4.795   6.343   7.566 -0.1662 -0.0941 -0.3367
 7582W        W 7582   2.914   1.026   7.990  0.1937  0.2947 -0.2992
 7583W        W 7583   9.161   0.590   9.768  0.0399  0.1582  0.1451
 7584W        W 7584   8.349   6.572   6.446 -0.2635  0.1853 -0.0054
 7585W        W 7585   9.933   5.402   8.086 -0.1481 -0.1250  0.0007
 7586W        W 7586   7.167   4.072   5.351 -0.0691  0.0120  0.1359
 7587W        W 7587   5.421   1.088   2.566 -0.0350 -0.1006 -0.4151
 7588W        W 7588   0.938   6.734   8.482  0.1142 -0.1058  0.1167
 7589W        W 7589   8.703   5.450   8.225 -0.0982 -0.1583  0.1118
 7590W        W 7590  10.339   2.399   7.916  0.2214  0.0000  0.2935
 7591W        W 7591   3.479   2.286   5.775  0.0115 -0.2373 -0.1142
 7592W        W 7592   0.615   3.693   9.222 -0.0834  0.1346 -0.3561
 7593W        W 7593   0.430   9.529   0.338 -0.1583  0.1731  0.2515
 7594W        W 7594   2.133   5.822   6.732 -0.3389  0.0027 -0.0952
 7595W        W 7595  10.215   8.700   7.260  0.0372 -0.1382 -0.0735
 7596W        W 7596   3.142   9.784   3.981 -0.3781  0.2999  0.3212
 7597W        W 7597   8.590   4.619   8.153  0.4047 -0.1447 -0.3136
 7598W        W 7598   2.922   5.086   0.589  0.0438 -0.1467  0.0202
 7599W        W 7599   9.749   5.969   1.495  0.2344  0.0510 -0.0530
 7600W        W 7600   6.093  10.189   3.648  0.0492 -0.1613  0.1757
 7601W        W 7601   1.412   0.766   1.351  0.1398  0.0390 -0.1130
 7602W        W 7602   1.537   4.584   1.465  0.0060  0.4417  0.2091
 7603W        W 7603   5.831   4.974   8.873  0.3527  0.5807  0.0986
 7604W        W 7604   3.981   6.827   5.106  0.0440 -0.1329  0.0364
 7605W        W 7605   0.319   0.467   2.854 -0.1700 -0.2043 -0.0958
 7606W        W 7606   4.106   4.079   6.522  0.1806 -0.0208  0.3045
 7607W        W 7607   2.384   4.024   2.146  0.2686 -0.0565 -0.0857
 7608W        W 7608   3.071   3.468   0.873  0.1730  0.1813 -0.2919
 7609W        W 7609   7.413   5.514   3.421  0.2787  0.0644  0.1388
 7610W        W 7610   2.360   2.644   5.617 -0.0574 -0.2929  0.1804
 7611W        W 7611   0.088   4.033   3.319 -0.1966  0.0989  0.0567
 7612W        W 7612   0.708   5.722   7.566 -0.4536 -0.0704 -0.2984
 7613W        W 7613   2.513   0.252   8.257 -0.1474 -0.2053 -0.1515
 7614W        W 7614   1.853   7.460   2.297 -0.1014  0.3543  0.0346
 7615W        W 7615   0.936   5.565   8.714  0.1411  0.5480  0.0581
 7616W        W 7616   9.944   7.090   0.447 -0.0339  0.3001 -0.0494
 7617W        W 7617   3.680   1.981   4.975 -0.2803 -0.0385  0.1046
 7618W        W 7618   3.683   7.632   2.293 -0.1922 -0.1591 -0.0889
 7619W        W 7619   4.496   4.703   7.045 -0.0418 -0.0423  0.1433
 7620W        W 7620   0.081   5.401   2.292 -0.0414 -0.2275 -0.1203
 7621W        W 7621   9.886  10.158  10.126  0.0912 -0.0700 -0.0685
 7622W        W 7622   5.285  10.173   7.829  0.0158  0.1411  0.0644
 7623W        W 7623   0.276   2.319   5.561 -0.1484 -0.2999 -0.4052
 7624W        W 7624   7.401   9.077   4.191 -0.1287 -0.3819  0.0802
 7625W        W 7625   3.519   7.988   0.647  0.0848  0.3815  0.2373
 7626W        W 7626   9.319   2.969   6.081  0.2699  0.2957 -0.0106
 7627W        W 7627   7.061   6.460   1.933  0.2543 -0.0065 -0.1130
 7628W        W 7628   9.411   5.535   4.232  0.2813  0.0770  0.2120
 7629W        W 7629   9.903   3.775   8.844 -0.2117 -0.2525 -0.1800
 7630W        W 7630   3.382   1.108   4.875  0.1153 -0.1162 -0.2505
 7631W        W 7631   9.075   1.637   0.749  0.2451  0.0257  0.1235
 7632W        W 7632   3.160   2.559   9.830  0.2737  0.2323 -0.1560
 7633W        W 7633   2.473   1.580  10.030 -0.0351  0.0205 -0.2046
 7634W        W 7634   7.506   2.438   1.284 -0.0522 -0.0044 -0.0178
 7635W        W 7635   8.786   1.314   6.916  0.0098 -0.0547 -0.2264
 7636W        W 7636   5.493   1.027   6.316 -0.1261  0.0409 -0.0400
 7637W        W 7637   3.641   8.492   4.558 -0.0187 -0.1246 -0.1180
 7638W        W 7638   7.644  10.326   5.887 -0.3249  0.0835  0.1508
 7639W        W 7639   7.652   3.087   7.613  0.0325 -0.3419  0.0531
 7640W        W 7640   6.065   0.320   0.469  0.0439 -0.2050  0.0694
 7641W        W 7641   1.278   7.453   7.650  0.0668  0.0665  0.2472
 7642W        W 7642   9.222   9.963   9.413 -0.0680 -0.0156  0.3314
 7643W        W 7643   6.123   0.261   6.337  0.0814 -0.2539 -0.4322
 7644W        W 7644   2.011   3.934   8.432  0.2627  0.1686  0.0847
 7645W        W 7645   5.722   2.191   4.573 -0.0009 -0.0006  0.2639
 7646W        W 7646   2.772  10.103   2.956 -0.0946  0.1262  0.1099
 7647W        W 7647   6.217   9.624   1.494 -0.1531 -0.2087  0.2314
 7648W        W 7648   4.172   4.881   8.272 -0.1125 -0.1257  0.3194
 7649W        W 7649   9.204   4.838   1.238 -0.1840 -0.2515  0.3093
 7650W        W 7650   9.322   3.036   0.207  0.0410  0.0094 -0.1325
 7651W        W 7651   6.269   3.846   3.869  0.0641 -0.0281  0.2256
 7652W        W 7652   7.875   7.325   8.403 -0.4093  0.1713  0.0028
 7653W        W 7653   7.782   0.379   3.947  0.2289  0.2287  0.0824
 7654W        W 7654   3.080   6.707   4.475 -0.1306 -0.1433  0.2524
 7655W        W 7655   6.037   5.375   3.882 -0.1405  0.0527 -0.0101
 7656W        W 7656   6.042   4.426   3.201  0.0147 -0.0703  0.0054
 7657W        W 7657   2.687   0.755   9.448 -0.0785 -0.0182  0.0501
 7658W        W 7658   0.381   2.858   7.978 -0.2636 -0.3335 -0.1325
 7659W        W 7659   3.653   6.110   2.819  0.1061 -0.4552  0.1421
 7660W        W 7660   0.185   3.476   5.713  0.1822  0.0565  0.1306
 7661W        W 7661   3.600   4.209   5.262 -0.0966 -0.2668 -0.1182
 7662W        W 7662   0.771   6.281   4.925 -0.0830 -0.1934 -0.3368
 7663W        W 7663   9.172   0.741   2.674 -0.0948 -0.2100  0.0367
 7664W        W 7664   7.942   3.963   2.888 -0.1437 -0.0554 -0.0260
 7665W        W 7665   6.866   0.481   5.082  0.0471  0.0373 -0.2329
 7666W        W 7666   3.522   3.560   4.888 -0.1493  0.4534  0.0965
 7667W        W 7667   9.654   4.298   6.446  0.1953 -0.2091 -0.1598
 7668W        W 7668   0.360   5.915   9.888  0.0202 -0.0065  0.2719
 7669W        W 7669   1.695   8.566   5.981 -0.0715  0.1116 -0.2653
 7670W        W 7670   6.196   0.932   5.708  0.3512  0.1912 -0.0228
 7671W        W 7671   5.891   2.121   2.502  0.0945 -0.0659 -0.0282
 7672W        W 7672   4.750   5.826   7.640 -0.2448  0.0345 -0.0521
 7673W        W 7673   1.743   9.990   8.140 -0.0497  0.1158  0.1642
 7674W        W 7674   6.223   7.995   6.554  0.2743  0.0279  0.0439
 7675W        W 7675   6.814  10.235   6.817 -0.1974 -0.0463  0.2038
 7676W        W 7676   4.340   3.203   8.780 -0.2483  0.0752 -0.2021
 7677W        W 7677   4.533   6.025   6.199  0.2608  0.0819 -0.1828
 7678W        W 7678   4.096   3.651   6.893 -0.2472  0.1884  0.2912
 7679W        W 7679   7.717   8.979   2.438  0.2114  0.0121  0.3943
 7680W        W 7680   2.462   7.096   4.147 -0.0339 -0.1598 -0.0350
 7681W        W 7681   0.240   4.737   0.117  0.1687 -0.1499 -0.1202
 7682W        W 7682   6.891   9.112   4.081 -0.2959  0.3787 -0.1030
 7683W        W 7683   6.667   7.652   7.886 -0.2270 -0.3979 -0.2797
 7684W        W 7684   2.627   7.429   5.664 -0.1304 -0.2695  0.0903
 7685W        W 7685   6.836   7.477   1.177 -0.0509  0.0129  0.3384
 7686W        W 7686   4.324   5.003   9.082 -0.2736  0.0881 -0.0904
 7687W        W 7687   6.022   6.422   5.828 -0.0060  0.2416  0.0303
 7688W        W 7688   8.491   7.397   6.772 -0.2721 -0.0256  0.0729
 7689W        W 7689   8.882   3.849   2.875  0.3699 -0.0612 -0.1147
 7690W        W 7690   1.515   2.018   5.392 -0.1860 -0.0751 -0.1132
 7691W        W 7691   9.310  10.079   4.178 -0.0619 -0.1232  0.2382
 7692W        W 7692   0.236   6.354   9.769  0.0758 -0.0015 -0.1821
 7693W        W 7693   8.479   8.982   3.150  0.1656  0.0920 -0.0158
 7694W        W 7694   3.753   4.574   9.835 -0.1636 -0.0668  0.1090
 7695W        W 7695   1.275   1.853   0.994  0.1505 -0.3061 -0.1864
 7696W        W 7696   8.989   7.163   7.083  0.0422  0.0420 -0.0058
 7697W        W 7697   7.881   6.783   4.022  0.0486  0.0132 -0.1153
 7698W        W 7698   0.162   1.943   6.388 -0.0395  0.1381  0.0204
 7699W        W 7699   8.574   1.162   7.532 -0.1424 -0.0346  0.1125
 7700W        W 7700   2.589   9.090   4.003  0.1670  0.1378 -0.0813
 7701W        W 7701   9.645   4.052   4.786 -0.2748  0.1497  0.1583
 7702W        W 7702   3.646   3.399   1.816  0.0216 -0.0710  0.2061
 7703W        W 7703   0.849   7.744   3.126 -0.0166 -0.1896  0.2889
 7704W        W 7704   6.364   3.382   6.702  0.0096 -0.1179  0.1392
 7705W        W 7705   0.981   8.391   5.635 -0.2239 -0.1794 -0.0575
 7706W        W 7706   6.089   3.499   7.701  0.3280 -0.1872  0.1569
 7707W        W 7707   4.049   1.198   2.721 -0.2699  0.1253 -0.3078
 7708W        W 7708   6.474   5.755   5.427  0.0656  0.2580 -0.0775
 7709W        W 7709   1.836   9.801   3.462  0.0683 -0.2587  0.3307
 7710W        W 7710   6.316   8.137   1.497 -0.0581 -0.3501  0.1592
 7711W        W 7711   3.977   0.559   1.871  0.1974 -0.2013  0.0130
 7712W        W 7712   3.988   5.921   9.420 -0.0297 -0.2130  0.0583
 7713W        W 7713   9.245   8.117   2.228  0.0805  0.1679  0.0829
 7714W        W 7714   6.675   2.008   4.450 -0.0048  0.0318 -0.0564
 7715W        W 7715   3.020   5.855   8.468 -0.1389 -0.1007 -0.0048
 7716W        W 7716   7.416   6.775   4.221  0.1718 -0.1824 -0.3437
 7717W        W 7717   1.368   3.190   9.857 -0.0702 -0.2120  0.1146
 7718W        W 7718   6.273   7.025   0.515 -0.0050 -0.0302 -0.0631
 7719W        W 7719   2.403   2.960   8.293 -0.1909 -0.0282  0.4563
 7720W        W 7720   1.774   2.227   4.952 -0.0152 -0.1481  0.1838
 7721W        W 7721   3.236   6.598   9.062  0.1315 -0.1898 -0.1656
 7722W        W 7722   3.318   2.400   9.395 -0.1144  0.2329 -0.2188
 7723W        W 7723   6.180   4.681   9.220  0.0628  0.1600 -0.3228
 7724W        W 7724   1.018   1.074   6.162 -0.0715  0.0305 -0.1804
 7725W        W 7725   5.959   3.522   7.041  0.0502  0.2011  0.2399
 7726W        W 7726   7.315   7.729   4.166  0.0309 -0.0842 -0.0537
 7727W        W 7727   7.795   7.492   8.854 -0.1158  0.1481 -0.1100
 7728W        W 7728   5.147   2.855   0.763  0.3026 -0.2489  0.0682
 7729W        W 7729   6.226   8.564   6.601 -0.1332 -0.0306  0.0088
 7730W        W 7730   3.055   8.246   2.081 -0.0449  0.0044 -0.1799
 7731W        W 7731   3.411   3.496   9.886 -0.0436 -0.1608  0.0254
 7732W        W 7732   6.597   2.260   8.488 -0.0449 -0.1274  0.3843
 7733W        W 7733   2.408   2.735   2.307 -0.0368 -0.0601 -0.1867
 7734W        W 7734   9.363   6.954   4.840 -0.1825  0.5010  0.1141
 7735W        W 7735   7.609   6.557   7.412 -0.1478 -0.0663 -0.2171
 7736W        W 7736   3.352   7.065   0.869 -0.2219  0.0921  0.0102
 7737W        W 7737   4.972   4.301   6.296  0.1555  0.2357  0.1541
 7738W        W 7738   0.044   3.591   6.252  0.0427 -0.1082 -0.0768
 7739W        W 7739   7.460   9.918   3.386 -0.0879  0.1023 -0.1586
 7740W        W 7740   2.448   6.128   1.060 -0.0302 -0.1478 -0.0543
 7741W        W 7741   0.826   5.209   4.443  0.5519 -0.2547 -0.1489
 7742W        W 7742   5.980   9.044   3.212  0.0715 -0.3458 -0.3924
 7743W        W 7743   4.721   6.017   7.094 -0.1043 -0.4364 -0.2509
 7744W        W 7744   0.677   8.377   5.135  0.2593  0.2013 -0.2869
 7745W        W 7745   9.877   0.573   6.920 -0.4890  0.0615 -0.1190
 7746W        W 7746   8.538   6.911   4.139 -0.2096  0.1879 -0.0927
 7747W        W 7747   9.186   0.118   5.109  0.0351  0.3141  0.0835
 7748W        W 7748   3.931   7.962   0.944 -0.0026  0.1241 -0.1055
 7749W        W 7749   3.958   2.077   1.297 -0.0723  0.0493 -0.1104
 7750W        W 7750   8.557   3.412   1.702 -0.0005  0.0048  0.1582
 7751W        W 7751   4.887   6.871   0.032  0.2079 -0.2234  0.2708
 7752W        W 7752   0.186   9.078   9.496  0.3014  0.0643  0.3545
 7753W        W 7753   8.452   8.529   6.130  0.2101  0.0377  0.3235
 7754W        W 7754   4.088   8.239   1.911 -0.0006  0.0541  0.5034
 7755W        W 7755   6.100   5.032   7.965 -0.3046 -0.2722 -0.1326
 7756W        W 7756   9.212   5.605   8.118  0.0229  0.0991  0.0022
 7757W        W 7757   7.188   7.684   0.221  0.0650  0.4006  0.1088
 7758W        W 7758   0.669   9.450   1.565  0.0516 -0.1767 -0.1965
 7759W        W 7759   7.031   1.654   1.033 -0.1620  0.2170 -0.0031
 7760W        W 7760   9.876   8.403   7.406  0.0455 -0.2098 -0.1078
 7761W        W 7761   3.251   6.212   4.765  0.0195  0.3003  0.3061
 7762W        W 7762   0.859   8.126   9.688 -0.0513 -0.0121  0.0080
 7763W        W 7763   8.729   8.518   0.957 -0.0333  0.0509  0.1927
 7764W        W 7764   7.602   1.393   5.441 -0.1047 -0.0951  0.0755
 7765W        W 7765   1.496   4.466   6.423 -0.0964 -0.0947  0.1621
 7766W        W 7766   9.031   3.528   0.769  0.2043  0.0751  0.1587
 7767W        W 7767   3.231   6.884   2.928  0.1073  0.0955  0.0820
 7768W        W 7768   0.373   7.864   0.984  0.1953  0.3351  0.1722
 7769W        W 7769   2.185   9.504   9.742  0.0926 -0.2339  0.0260
 7770W        W 7770   7.183   5.117   0.796  0.1486 -0.2442 -0.0886
 7771W        W 7771   0.227   6.560   6.924  0.0855 -0.3452  0.0629
 7772W        W 7772   7.060   6.812   3.901  0.1154 -0.0501  0.1127
 7773W        W 7773   5.520   7.987   1.118 -0.1240 -0.1207  0.0100
 7774W        W 7774   8.094   4.467   8.286 -0.1005  0.0643 -0.3605
 7775W        W 7775   8.757  10.122   7.684  0.1041  0.0124 -0.1279
 7776W        W 7776   4.138   0.364   1.436  0.2777  0.1020  0.0554
 7777W        W 7777   5.329   0.734   1.354 -0.2689 -0.1190  0.0590
 7778W        W 7778   2.636   3.498   5.136 -0.0736  0.4142  0.2446
 7779W        W 7779   8.421   2.764   7.093 -0.3143 -0.4225  0.3477
 7780W        W 7780   6.569   2.423   5.301 -0.1066  0.2855  0.0414
 7781W        W 7781   5.074   3.850   0.647  0.0487 -0.3126 -0.0865
 7782W        W 7782   6.539   6.460   7.502 -0.2159  0.0518 -0.0187
 7783W        W 7783   6.256   2.814   1.244 -0.0989  0.2947  0.1098
 7784W        W 7784   8.991   8.740   2.774  0.1547  0.1496 -0.3363
 7785W        W 7785   2.223  10.193   7.951  0.0124  0.2685 -0.1305
 7786W        W 7786   5.409   6.177   5.952 -0.2219 -0.0738 -0.2550
 7787W        W 7787   2.637   9.172   6.397 -0.2901 -0.2357 -0.0246
 7788W        W 7788   5.270   1.817   3.098 -0.0275 -0.1876  0.0606
 7789W        W 7789   2.733   1.250   6.559  0.3388  0.1459 -0.2268
 7790W        W 7790   4.817   6.993   5.085 -0.0983 -0.3326  0.2355
 7791W        W 7791   4.837   3.135   9.658  0.3311  0.0941  0.0808
 7792W        W 7792   3.281   2.389   2.557 -0.2374 -0.3453 -0.2180
 7793W        W 7793   7.585   2.294   1.771  0.1855 -0.0485 -0.1053
 7794W        W 7794   4.666   3.609   9.286  0.1075 -0.1231  0.0632
 7795W        W 7795   0.629   5.743   5.654 -0.2438 -0.0433 -0.0149
 7796W        W 7796   2.247   0.752   4.188  0.1907 -0.1064  0.0487
 7797W        W 7797   3.396   1.919   2.910 -0.1214  0.1216  0.0007
 7798W        W 7798   6.565   9.410   5.872  0.1749 -0.2124  0.1114
 7799W        W 7799   0.742   4.863   5.265 -0.2031  0.0939  0.1167
 7800W        W 7800   7.483   0.334   6.250 -0.4149 -0.2593  0.1035
 7801W        W 7801   3.838   3.927   9.810  0.2196  0.3082 -0.1378
 7802W        W 7802   9.903   9.025   5.242 -0.2781  0.0194  0.2136
 7803W        W 7803   3.699  10.096   1.997 -0.0693  0.0034  0.0874
 7804W        W 7804   9.026   1.641   9.602 -0.2301  0.0926 -0.0757
 7805W        W 7805   4.903   1.808   2.700 -0.0205  0.0533  0.1766
 7806W        W 7806   2.516   5.904   8.457 -0.1574  0.0696  0.1003
 7807W        W 7807   1.497   4.074   4.077 -0.1443 -0.1594 -0.4703
 7808W        W 7808   2.031   6.191   7.024  0.3191 -0.2674 -0.1554
 7809W        W 7809   6.636   6.430   2.722  0.2627  0.0709  0.1479
 7810W        W 7810   0.991   2.819   9.562 -0.1884 -0.0234 -0.0160
 7811W        W 7811   0.571   7.987   2.658 -0.1879  0.2670 -0.0124
 7812W        W 7812   8.584   8.390   5.188  0.3004  0.2660  0.1005
 7813W        W 7813   5.535   3.610   9.802  0.1031  0.0740  0.0146
 7814W        W 7814   9.693   2.228   9.938 -0.0866 -0.3031 -0.0740
 7815W        W 7815   5.479   4.704   5.087 -0.0905  0.0015 -0.0747
 7816W        W 7816   9.725   4.186   7.037  0.1072  0.3248  0.1207
 7817W        W 7817   3.945   4.417   3.996  0.1422  0.0190 -0.2663
 7818W        W 7818   4.278   5.616   0.720 -0.0320 -0.1632  0.1463
 7819W        W 7819   8.432  10.012   8.759 -0.2183 -0.0320 -0.0952
 7820W        W 7820   5.825   6.883   9.929  0.0372 -0.0432 -0.1227
 7821W        W 7821  10.134   5.056   5.027 -0.1390 -0.3945 -0.0615
 7822W        W 7822   8.329   4.065   9.478  0.2882  0.0456 -0.2456
 7823W        W 7823   6.697   4.999   4.225  0.0181 -0.0567 -0.0489
 7824W        W 7824   0.033   8.784   1.866 -0.0493 -0.3072  0.2004
 7825W        W 7825   7.294   5.708   6.920  0.0841 -0.0649  0.0248
 7826W        W 7826   5.182   4.739   5.786 -0.0548 -0.3655  0.3918
 7827W        W 7827   0.468   0.785   7.744 -0.0922  0.0495  0.0681
 7828W        W 7828   4.954   8.078   9.343  0.2010  0.4401  0.3169
 7829W        W 7829   2.669   8.959   5.068 -0.0572  0.1440  0.0762
 7830W        W 7830   8.505   0.333   0.492  0.1425  0.0042  0.1136
 7831W        W 7831   7.320   1.502   1.410 -0.0614  0.2486  0.0287
 7832W        W 7832   1.347   9.753   2.037 -0.0768 -0.0234  0.0037
 7833W        W 7833   4.291   7.581   5.997 -0.0901  0.2118  0.2033
 7834W        W 7834   4.754   5.250   5.061 -0.0684 -0.0323 -0.0063
 7835W        W 7835   1.146   4.533   6.793  0.1113 -0.1821  0.1496
 7836W        W 7836   5.934   2.441   9.300 -0.0332  0.0223  0.3094
 7837W        W 7837   5.006   3.939   3.169  0.1542  0.0433 -0.0607
 7838W        W 7838   9.295   3.754   5.045  0.3100 -0.0689  0.3033
 7839W        W 7839   5.486   8.301   3.793 -0.1368 -0.0722 -0.0840
 7840W        W 7840   6.021   5.433   0.347  0.0130 -0.0006  0.1297
 7841W        W 7841   4.440   2.749   2.356  0.2598 -0.0106  0.1494
 7842W        W 7842  10.044   8.110   5.103  0.0761  0.1961 -0.2101
 7843W        W 7843   3.776   1.894   5.958  0.0870 -0.0021 -0.1728
 7844W        W 7844   2.742   8.438   1.650  0.3191  0.0462 -0.1501
 7845W        W 7845   7.512   0.073   2.624  0.0476  0.2661  0.1740
 7846W        W 7846   3.443   2.895   6.850 -0.0407  0.4050  0.4560
 7847W        W 7847   3.472   3.514   7.694 -0.1926 -0.3261 -0.0225
 7848W        W 7848   7.912   0.995   6.940  0.0729  0.0475  0.0108
 7849W        W 7849   4.064   7.418   8.457 -0.1913  0.0970  0.2720
 7850W        W 7850   0.185   2.407   4.660  0.5361 -0.2712 -0.1055
 7851W        W 7851   8.050   6.657   9.331 -0.0099  0.0089  0.3115
 7852W        W 7852   6.123   1.916   4.273 -0.0396  0.0583 -0.0467
 7853W        W 7853   9.962   3.926   2.144  0.0539  0.0908  0.1291
 7854W        W 7854   8.222   1.901   4.243  0.1532  0.0176  0.1789
 7855W        W 7855   5.784   5.333   6.299 -0.4310  0.1276  0.0293
 7856W        W 7856   4.641   6.393   8.103  0.1640  0.0399  0.0694
 7857W        W 7857   7.795   0.045  10.172 -0.0207  0.1055 -0.1806
 7858W        W 7858   3.442   6.798   0.442 -0.0707  0.3169  0.2347
 7859W        W 7859   0.164   9.924   2.682 -0.0360 -0.1790 -0.1541
 7860W        W 7860   9.843   6.128   9.294 -0.0520  0.0892 -0.0931
 7861W        W 7861   4.624   1.043   2.839  0.0011 -0.1695  0.0361
 7862W        W 7862   1.786   4.157   9.571 -0.0102  0.0853  0.2124
 7863W        W 7863   1.992   4.411   5.704 -0.1622  0.0599 -0.0151
 7864W        W 7864   5.964   3.753   5.198 -0.1878  0.2194  0.1723
 7865W        W 7865   9.590   2.312   5.742  0.1087  0.2544  0.2941
 7866W        W 7866   1.156   5.907   7.876  0.0010 -0.0555 -0.2210
 7867W        W 7867   4.815   3.395   4.039  0.2167 -0.2347  0.1824
 7868W        W 7868   7.647   2.399   2.933 -0.0854  0.1596  0.1453
 7869W        W 7869   7.214   7.301   5.557  0.2047  0.0745 -0.0757
 7870W        W 7870   2.103   7.359   2.755  0.1506 -0.1805  0.3728
 7871W        W 7871  10.237   2.943   6.265 -0.0774  0.2195 -0.0159
 7872W        W 7872   1.791   3.688   7.189 -0.3226  0.2210 -0.1138
 7873W        W 7873   4.716   4.680   8.928 -0.0219 -0.0497  0.2297
 7874W        W 7874   9.062   3.764   1.902 -0.3569 -0.3341 -0.0096
 7875W        W 7875   9.719   0.865   2.666  0.2113 -0.2009 -0.1207
 7876W        W 7876   1.842   7.486   9.313 -0.1101 -0.1841  0.1404
 7877W        W 7877   4.462   7.524   7.468  0.1718  0.0664  0.0904
 7878W        W 7878   5.022   6.252   6.302  0.0814 -0.1079  0.0924
 7879W        W 7879   7.850   8.142   3.103 -0.2527 -0.1368 -0.1260
 7880W        W 7880   9.448   8.592   2.469 -0.3380 -0.1514  0.1095
 7881W        W 7881   3.387   4.460   6.514 -0.3214 -0.3267  0.1451
 7882W        W 7882   0.533   5.284   0.017 -0.1602 -0.1133  0.1903
 7883W        W 7883   4.024   0.308   4.818  0.1187 -0.2451  0.3279
 7884W        W 7884   8.642   0.846   5.218 -0.2209  0.2280 -0.0305
 7885W        W 7885   1.101   3.998   5.565  0.0795  0.0204 -0.2822
 7886W        W 7886   4.731   0.520   3.137  0.0374  0.0202 -0.1344
 7887W        W 7887   6.273   9.650   3.660  0.1035 -0.0046  0.2368
 7888W        W 7888   2.151   7.214   1.313 -0.0273  0.2430 -0.1669
 7889W        W 7889   0.350   3.826   1.075 -0.2352  0.1049  0.0367
 7890W        W 7890   0.067   6.255   4.194  0.3639 -0.1942  0.1253
 7891W        W 7891   3.231   4.253   2.731 -0.4348  0.1886  0.0768
 7892W        W 7892   8.736   4.560   7.689 -0.1844 -0.0155  0.0144
 7893W        W 7893   7.891   4.195   0.116  0.4816 -0.0881 -0.2099
 7894W        W 7894   0.479   7.837   9.395  0.1365  0.1924  0.0405
 7895W        W 7895   9.993   3.542   5.501 -0.1552  0.0739  0.3015
 7896W        W 7896   8.053   8.460   5.389  0.0731  0.1136  0.3018
 7897W        W 7897   3.851   3.671   4.555 -0.0263  0.2199  0.2665
 7898W        W 7898   0.111   7.159   7.791  0.0168 -0.1590 -0.0421
 7899W        W 7899   4.222   3.007   4.635 -0.0871  0.1707 -0.0334
 7900W        W 7900   0.450   0.090   2.007 -0.1714  0.2920  0.2557
 7901W        W 7901   8.871   1.190   5.770  0.0671 -0.0736 -0.0562
 7902W        W 7902   3.978   8.282   7.001  0.0960  0.3641 -0.3916
 7903W        W 7903   0.696   1.847   3.052  0.2065 -0.2416 -0.1947
 7904W        W 7904   1.580   7.108   9.537 -0.0276  0.1834 -0.0478
 7905W        W 7905   3.592   6.248   6.845  0.0340  0.0885  0.1076
 7906W        W 7906   5.012   3.820   5.232 -0.0028  0.1272 -0.0651
 7907W        W 7907   5.434   6.536   6.619  0.2652  0.0360  0.0517
 7908W        W 7908  10.062   1.288  10.164  0.0099  0.1258 -0.1401
 7909W        W 7909   3.170   4.025   6.645  0.3480 -0.1878  0.1265
 7910W        W 7910   4.733   2.226   5.007  0.1510  0.0721 -0.0742
 7911W        W 7911   7.113   4.647   1.804  0.2213  0.1277 -0.1704
 7912W        W 7912   6.815   1.190   3.257  0.1055 -0.0157  0.5842
 7913W        W 7913   1.038   8.245   0.309 -0.1604  0.1488  0.1034
 7914W        W 7914   6.853   7.976   3.794 -0.1041 -0.2440 -0.0107
 7915W        W 7915   7.965   2.135   2.483  0.1905  0.2609 -0.1791
 7916W        W 7916   9.543   8.476   7.029 -0.0172 -0.0867 -0.1673
 7917W        W 7917   2.893   2.791   4.381  0.3209 -0.2726  0.1757
 7918W        W 7918   1.044   1.392   3.752 -0.3389  0.1088 -0.0497
 7919W        W 7919   3.284   6.157   9.460 -0.0291  0.0260  0.0978
 7920W        W 7920   2.899   0.467   6.274 -0.1147 -0.0573 -0.1394
 7921W        W 7921   0.989   2.456   5.228 -0.0101 -0.1380  0.1111
 7922W        W 7922   3.582   5.305   5.483  0.0239  0.1969  0.0983
 7923W        W 7923   1.405   2.880   2.347 -0.1464  0.1392  0.2503
 7924W        W 7924   6.262  10.084   6.463 -0.2984  0.3024 -0.0122
 7925W        W 7925  10.113   3.310   1.032 -0.2220 -0.1847 -0.0115
 7926W        W 7926   7.148   8.681   6.296 -0.1924 -0.1914  0.2026
 7927W        W 7927   2.686   8.722   5.601 -0.0529 -0.1432  0.0864
 7928W        W 7928   5.113   7.646   9.567 -0.0207 -0.3823  0.2270
 7929W        W 7929   5.077   6.539   9.319  0.0027 -0.2292  0.1826
 7930W        W 7930   5.862   8.811   1.360 -0.0039 -0.0592  0.3622
 7931W        W 7931   6.178   7.334   2.171  0.2327 -0.0236 -0.1460
 7932W        W 7932   7.145   6.494   8.841  0.0756 -0.4322 -0.0264
 7933W        W 7933   2.188   6.976   0.701 -0.1158 -0.2766 -0.2166
 7934W        W 7934   0.891  10.203   8.785  0.0727 -0.0994  0.0263
 7935W        W 7935   4.500   0.332   8.081  0.1858  0.1034  0.0654
 7936W        W 7936   2.718   4.955   1.231  0.1955  0.2736 -0.2146
 7937W        W 7937   4.096   0.647   2.547  0.1309 -0.1445  0.0750
 7938W        W 7938   7.350   6.316   0.791  0.1604 -0.2261  0.5119
 7939W        W 7939   6.374   9.670   4.957 -0.1026 -0.0426  0.2071
 7940W        W 7940   9.374   1.127   2.903 -0.1530 -0.3156  0.0956
 7941W        W 7941   4.061   2.036   4.599 -0.1793  0.2343  0.0392
 7942W        W 7942   5.475   6.403   7.140 -0.1399  0.2520 -0.0496
 7943W        W 7943   5.373   6.751   9.652  0.1956 -0.1459 -0.0246
 7944W        W 7944   5.450   5.792   3.192  0.4937  0.0288  0.0165
 7945W        W 7945   7.971   7.066   1.725 -0.1318  0.0817 -0.0527
 7946W        W 7946   4.136   6.439   7.949 -0.0708 -0.3841 -0.2143
 7947W        W 7947   2.757   5.529   8.762 -0.2141  0.1279  0.0019
 7948W        W 7948   8.761   9.687   9.841 -0.1710  0.0905  0.0702
 7949W        W 7949  10.265   1.733   9.304  0.1681  0.1676 -0.0148
 7950W        W 7950   6.653   9.052   9.779 -0.4158 -0.4152  0.2122
 7951W        W 7951   9.498   5.332   3.463 -0.0203  0.1435  0.2712
 7952W        W 7952   1.869   1.989   6.858  0.0935 -0.1595 -0.0032
 7953W        W 7953   8.209   2.307   0.708 -0.0353 -0.2277 -0.1415
 7954W        W 7954   4.703   4.585   7.508 -0.0851  0.0793  0.0625
 7955W        W 7955   5.076   8.379   1.279 -0.1081  0.0954  0.0205
 7956W        W 7956   2.254   2.531   3.181  0.0218  0.0887 -0.3702
 7957W        W 7957   6.958   5.818   5.285  0.1967  0.0769  0.0708
 7958W        W 7958   3.761   4.763   1.945 -0.0343 -0.0294  0.1550
 7959W        W 7959   6.529   8.934   8.799 -0.0770 -0.0658 -0.0038
 7960W        W 7960   8.106   4.027   7.900 -0.2469 -0.1484  0.0590
 7961W        W 7961   4.085   0.561   0.474 -0.2676 -0.1338  0.1080
 7962W        W 7962   0.594   2.900   4.931  0.0719  0.1203  0.0512
 7963W        W 7963   3.644   8.471   1.711 -0.0840 -0.0832 -0.1861
 7964W        W 7964   9.323   2.117   0.519 -0.0042 -0.3616 -0.1656
 7965W        W 7965   8.689   1.570   4.056  0.1836 -0.3753  0.0273
 7966W        W 7966   5.054   7.216   6.108 -0.0218  0.5713 -0.1825
 7967W        W 7967   4.520   4.438   3.151  0.0092  0.1750 -0.2001
 7968W        W 7968   7.792   0.198   3.434  0.1527  0.0563 -0.1995
 7969W        W 7969   4.759   4.832   9.984  0.0291 -0.2432  0.3449
 7970W        W 7970   6.395   7.366   5.162  0.2430 -0.0914 -0.2494
 7971W        W 7971   6.077   4.798   1.411  0.3082  0.1714  0.1247
 7972W        W 7972   8.942   2.378   3.933 -0.2092 -0.2131 -0.0450
 7973W        W 7973   5.778   5.401   9.704  0.3788 -0.0132  0.2760
 7974W        W 7974   6.713   6.716   4.188  0.1986  0.1331 -0.1677
 7975W        W 7975   9.903   1.365   6.390 -0.1103  0.1121  0.3519
 7976W        W 7976   6.350   8.359   7.680  0.2408 -0.0376 -0.1105
 7977W        W 7977   1.761   8.598   5.312  0.1341 -0.1402 -0.0329
 7978W        W 7978   6.522   6.930   3.134  0.4472  0.1818 -0.0320
 7979W        W 7979   0.066   6.081   1.028 -0.0953  0.0204  0.0509
 7980W        W 7980  10.131   9.013   8.186  0.2013 -0.1296 -0.2034
 7981W        W 7981   7.750   8.303   9.999  0.3252 -0.0814  0.0715
 7982W        W 7982   7.932   1.534   0.107  0.0638  0.0634 -0.1702
 7983W        W 7983   6.146   2.671   5.302  0.3196  0.0543 -0.2028
 7984W        W 7984   2.036   2.588   0.844  0.1775 -0.1344 -0.1064
 7985W        W 7985   6.245   4.843   4.364  0.0962 -0.1689 -0.2862
 7986W        W 7986   3.872   1.120   7.350  0.5494  0.0862 -0.2249
 7987W        W 7987   8.365   7.970   7.086  0.1551  0.0914 -0.0344
 7988W        W 7988   1.786   5.004   9.897  0.2166  0.0818 -0.1139
 7989W        W 7989   6.100   1.925   0.205  0.0647 -0.2728  0.4461
 7990W        W 7990   6.117   3.364   3.700  0.0073 -0.0100  0.1910
 7991W        W 7991   3.454   9.727   4.713  0.3420  0.0445 -0.0331
 7992W        W 7992   2.015   8.269   6.713  0.1543  0.0143 -0.0982
 7993W        W 7993   6.295   7.082  10.046  0.0157 -0.2141 -0.0002
 7994W        W 7994   1.159   2.329   8.641  0.0734  0.0948  0.0970
 7995W        W 7995   7.199   2.961   1.600 -0.2543  0.2582 -0.0570
 7996W        W 7996   8.197   7.992   2.766  0.0826 -0.1395  0.0848
 7997W        W 7997   6.981   7.483   3.807 -0.3440 -0.1129 -0.4146
 7998W        W 7998   9.097   2.306   5.568  0.0234  0.2600 -0.0061
 7999W        W 7999  10.128   5.645   6.715 -0.1386 -0.1533 -0.0948
 8000W        W 8000   0.924   4.932   8.889  0.1736 -0.2969 -0.1233
 8001W        W 8001   4.523   2.982   4.103 -0.2525  0.1999 -0.1238
 8002W        W 8002   5.440   8.641   1.616 -0.0387  0.0884 -0.1222
 8003W        W 8003   3.721   0.155   1.548 -0.0600  0.3881  0.0200
 8004W        W 8004   9.407   7.671   0.044  0.1097  0.1695  0.1387
 8005W        W 8005   3.394   8.212   1.039  0.3313 -0.1343  0.0204
 8006W        W 8006   7.420   4.572   3.613  0.0771  0.0246  0.2455
 8007W        W 8007   1.915   7.897   4.478  0.1992 -0.0212  0.0620
 8008W        W 8008   9.036   7.404   1.776  0.5250 -0.2008 -0.0675
 8009W        W 8009   1.835   1.534   1.899 -0.5458  0.0386  0.2260
 8010W        W 8010   3.782   8.411   9.511  0.1784  0.1518 -0.1783
 8011W        W 8011   9.550   8.353   0.015  0.1150 -0.1018  0.1832
 8012W        W 8012   3.329   6.697   1.216 -0.1283  0.1671 -0.1412
 8013W        W 8013   6.761   2.494   8.933 -0.1307 -0.0046 -0.1247
 8014W        W 8014   8.544   0.537   4.467  0.1416 -0.0595  0.0487
 8015W        W 8015   2.918   2.795   4.949 -0.2015 -0.0425  0.1625
 8016W        W 8016   5.663   4.433   1.589 -0.0550  0.0150 -0.0419
 8017W        W 8017   6.122   5.011   1.012 -0.1558 -0.1523 -0.0211
 8018W        W 8018   8.245   4.734   7.299  0.0468  0.4239 -0.0906
 8019W        W 8019   7.630   1.022   5.038 -0.0343 -0.4053 -0.5860
 8020W        W 8020   3.430   6.711   1.776  0.0248 -0.1085  0.1767
 8021W        W 8021   5.246   4.275   7.211 -0.0181  0.1870 -0.0917
 8022W        W 8022   1.817   0.744   3.889 -0.2073  0.4061  0.2159
 8023W        W 8023  10.228   1.551   0.692 -0.0642  0.0797  0.3490
 8024W        W 8024  10.084   6.008   0.650 -0.2806  0.1518 -0.3613
 8025W        W 8025   4.111   4.943   3.652 -0.2256  0.0788  0.0454
 8026W        W 8026   0.010   3.521   7.928 -0.4094 -0.1342 -0.0033
 8027W        W 8027   3.592   3.788   5.538  0.0526 -0.0268 -0.1440
 8028W        W 8028   8.839   3.287   2.078 -0.3155  0.5690 -0.0033
 8029W        W 8029   0.985   8.938   8.837 -0.0396  0.5163 -0.0955
 8030W        W 8030   9.212   1.942   2.127 -0.2697  0.0946 -0.0771
 8031W        W 8031   6.484   7.596   8.719 -0.1357  0.1858  0.0914
 8032W        W 8032   8.477   2.801   0.351  0.2329  0.1383  0.0398
 8033W        W 8033   8.823   1.209   4.873  0.0613  0.0443 -0.0156
 8034W        W 8034   2.395   3.798   9.215  0.3589 -0.2137 -0.0793
 8035W        W 8035   1.342   8.631   1.172 -0.2012 -0.2379  0.2277
 8036W        W 8036   0.266   2.517   7.492  0.1346  0.3876  0.0175
 8037W        W 8037   4.533   2.588   3.621  0.0295  0.1869 -0.2163
 8038W        W 8038   3.321   5.691   2.892  0.1593  0.0313  0.0675
 8039W        W 8039   7.497   0.351   0.081  0.2110 -0.0096 -0.2198
 8040W        W 8040   5.273   1.148  10.152  0.0117  0.0343  0.3773
 8041W        W 8041   4.592   9.040   6.018 -0.3518 -0.0066 -0.0080
 8042W        W 8042   6.515   4.697   8.846  0.1980 -0.4193  0.0860
 8043W        W 8043  10.312   4.219   5.377  0.1563 -0.0254 -0.0125
 8044W        W 8044   5.440   5.141   5.439  0.1517 -0.0403  0.2589
 8045W        W 8045   3.042   2.901   3.047 -0.0912 -0.0150  0.3392
 8046W        W 8046   6.538   1.359   1.935 -0.1065  0.5584  0.0164
 8047W        W 8047   3.290   7.921   2.421 -0.1158 -0.2445 -0.1464
 8048W        W 8048   9.933   4.968   5.766 -0.0394  0.3721 -0.2341
 8049W        W 8049   0.064   1.597   9.990 -0.3648  0.1097 -0.0356
 8050W        W 8050   5.856  10.002   2.285 -0.0773  0.0199  0.0804
 8051W        W 8051   2.959   4.385   3.751 -0.1253  0.0091 -0.0735
 8052W        W 8052   1.507   1.597   3.101 -0.1544  0.1902 -0.2785
 8053W        W 8053   1.693   9.062   1.208  0.2498  0.1530 -0.2070
 8054W        W 8054   3.977   9.050   8.878 -0.0691 -0.3301  0.0571
 8055W        W 8055   1.191   9.048   1.376 -0.3189 -0.3263  0.0479
 8056W        W 8056   6.875   5.542   7.644 -0.0475 -0.2770  0.2243
 8057W        W 8057   7.391   6.266   9.485  0.0585 -0.0491 -0.2819
 8058W        W 8058   8.133   6.825   5.514  0.0728 -0.0449 -0.3654
 8059W        W 8059   9.049   8.774   8.347 -0.1998  0.0118 -0.2438
 8060W        W 8060   3.662   1.156   8.209  0.0254 -0.1453  0.0439
 8061W        W 8061   3.187   3.834   3.611 -0.2062 -0.1868  0.0427
 8062W        W 8062   4.290   9.861   5.787  0.2619 -0.0108  0.0158
 8063W        W 8063   6.293   5.539   9.533  0.0743 -0.2062 -0.0830
 8064W        W 8064   8.302   6.079   4.401 -0.0520  0.0113  0.1200
 8065W        W 8065   8.463   3.127   8.433 -0.1112 -0.1609  0.1703
 8066W        W 8066   1.524   0.386   9.334 -0.1603 -0.0021  0.3274
 8067W        W 8067   0.044   0.440   4.971  0.0139  0.1635 -0.1800
 8068W        W 8068   4.083   6.144   3.044 -0.0242 -0.0642  0.2080
 8069W        W 8069   8.430   4.589   0.924  0.0552 -0.1525 -0.0894
 8070W        W 8070   2.638   0.063   1.565 -0.2700  0.2052 -0.0773
 8071W        W 8071   6.197   6.855   3.997 -0.1769  0.0100  0.1043
 8072W        W 8072   3.724   5.980   2.334  0.2574 -0.1610  0.0513
 8073W        W 8073   8.873   9.042   1.844 -0.1869  0.0932 -0.2304
 8074W        W 8074   6.920   1.724   7.193 -0.2975 -0.2099 -0.1420
 8075W        W 8075   2.399   8.293   2.760  0.0712 -0.2184  0.3713
 8076W        W 8076   8.391   8.245   8.822 -0.1779 -0.1719 -0.0715
 8077W        W 8077   9.077   3.997   0.597 -0.1074 -0.0792  0.1411
 8078W        W 8078   9.790   9.475   4.917  0.0861 -0.3201 -0.0072
 8079W        W 8079   9.319   4.092   9.927 -0.3089 -0.2784 -0.1390
 8080W        W 8080   2.197  10.227   3.577  0.0865  0.0253  0.0440
 8081W        W 8081   1.957   3.333   7.740 -0.0973  0.0408 -0.0301
 8082W        W 8082   5.841   4.921   0.316  0.0263 -0.0253 -0.1197
 8083W        W 8083   9.524   9.772   3.439  0.1424 -0.1005 -0.1084
 8084W        W 8084   4.740  10.140   7.158  0.1193 -0.0535  0.0331
 8085W        W 8085   1.055   6.484   1.688  0.1641 -0.2029 -0.1303
 8086W        W 8086   0.815   3.888   9.681  0.2015  0.0030  0.3337
 8087W        W 8087   4.133   4.776   0.036 -0.0721  0.0727  0.1274
 8088W        W 8088   3.153   8.202   1.555 -0.1451 -0.0242 -0.0026
 8089W        W 8089   8.239   3.538   0.083  0.2378  0.1989 -0.0094
 8090W        W 8090   7.949   2.133   9.085  0.2621 -0.0070  0.1521
 8091W        W 8091   9.002   9.966   5.317 -0.0221 -0.2130 -0.2400
 8092W        W 8092   6.128   6.707   7.401  0.0645  0.0593  0.1319
 8093W        W 8093   7.131   8.063  10.249  0.0295  0.1460 -0.1687
 8094W        W 8094   2.627   1.393   0.171 -0.1136 -0.0392 -0.1649
 8095W        W 8095   8.514   7.609   0.038  0.1689  0.0388 -0.1186
 8096W        W 8096   5.316   9.479   8.349 -0.0610  0.0986 -0.2773
 8097W        W 8097   5.943   0.866   8.403 -0.0106 -0.2843 -0.1480
 8098W        W 8098  10.080   0.569   1.619  0.4780 -0.1703  0.1519
 8099W        W 8099   6.044   8.692   2.385 -0.0532 -0.2146  0.1619
 8100W        W 8100   3.396   1.132   7.213 -0.1317  0.2622  0.1709
 8101W        W 8101   9.828   6.134   3.277 -0.1766 -0.1279  0.3358
 8102W        W 8102   6.450   8.220   0.670  0.0507 -0.1524  0.0832
 8103W        W 8103   4.229   9.013   2.432  0.1096  0.1064 -0.0435
 8104W        W 8104   1.162   8.431   3.789  0.1195  0.0558 -0.3326
 8105W        W 8105   8.404   4.595   8.659 -0.2857 -0.0043 -0.2013
 8106W        W 8106   2.410   8.659   2.415 -0.0430  0.1612  0.1379
 8107W        W 8107   2.519   3.401   0.732 -0.0696 -0.2621 -0.2498
 8108W        W 8108   1.552   6.209   0.450  0.0355  0.0574  0.1548
 8109W        W 8109   5.850   8.012   5.142 -0.0527 -0.0008  0.2295
 8110W        W 8110   6.814   6.090   2.390  0.1359 -0.0426 -0.2872
 8111W        W 8111   7.965   6.985   8.838  0.1768 -0.3058 -0.0491
 8112W        W 8112   9.248   7.496   9.706  0.0226  0.0334 -0.0385
 8113W        W 8113  10.311   0.686   5.677 -0.0382 -0.0669 -0.0036
 8114W        W 8114   1.405   0.567   5.420 -0.0600 -0.1125  0.1709
 8115W        W 8115   0.762   4.715   8.120 -0.0459 -0.0685  0.0582
 8116W        W 8116   3.668   1.301   0.109 -0.0699 -0.2383 -0.1727
 8117W        W 8117   4.843   9.965   4.666  0.0179  0.0193 -0.0320
 8118W        W 8118   8.567   9.634   9.417  0.0425  0.1661 -0.3014
 8119W        W 8119   3.697   5.334   6.657  0.0214 -0.1840 -0.2586
 8120W        W 8120   9.661   8.233   8.305  0.0590 -0.4057 -0.0828
 8121W        W 8121   6.371   9.772  10.049  0.2784  0.1800  0.2631
 8122W        W 8122   7.038   3.265   3.335  0.1687  0.0046  0.0364
 8123W        W 8123   2.014   5.813   5.300 -0.2095 -0.0625 -0.0148
 8124W        W 8124   6.913   9.412   9.300  0.1505 -0.2106  0.1384
 8125W        W 8125   2.437   9.962   1.782 -0.2103  0.1694 -0.1065
 8126W        W 8126   0.960   9.455   3.934  0.0228  0.2769  0.0512
 8127W        W 8127   6.705   7.026   1.280 -0.1890 -0.0324  0.0616
 8128W        W 8128   4.983   1.572   1.006  0.0477 -0.0042  0.4653
 8129W        W 8129   5.842   7.631   3.082  0.0334  0.0939 -0.0062
 8130W        W 8130   5.934   8.283   0.790  0.0936  0.0625 -0.1526
 8131W        W 8131   1.812   3.769   0.333  0.0638 -0.0029  0.1559
 8132W        W 8132   9.369   9.771   5.040 -0.3764  0.3867  0.1449
 8133W        W 8133   9.213   7.171   9.370  0.0906  0.2412  0.1412
 8134W        W 8134   9.263   7.447   2.586  0.1917  0.1172  0.1769
 8135W        W 8135   1.179   2.328  10.179  0.0605  0.1936  0.4816
 8136W        W 8136   7.963   2.496   6.028 -0.2031  0.0782 -0.4736
 8137W        W 8137   3.534   1.133   4.403  0.2100 -0.0225 -0.0786
 8138W        W 8138   4.286  10.191   8.293 -0.0531 -0.2221  0.0293
 8139W        W 8139   0.633   0.569   6.383  0.0725 -0.2560  0.0019
 8140W        W 8140   9.210   2.275   7.796 -0.0701 -0.1773 -0.0237
 8141W        W 8141   7.700   1.391   9.102 -0.0298  0.2518 -0.2459
 8142W        W 8142   1.945   2.139   3.538 -0.1886  0.0780 -0.1956
 8143W        W 8143   9.015   7.390   6.648 -0.2519  0.1798 -0.1763
 8144W        W 8144   1.393   7.379   3.760 -0.0541  0.0264 -0.0844
 8145W        W 8145   0.329   1.407   9.150  0.2394 -0.0519 -0.0150
 8146W        W 8146   4.197   3.752   4.124  0.0820 -0.0292  0.2244
 8147W        W 8147   4.063  10.011   2.366 -0.1721  0.2508  0.0538
 8148W        W 8148   5.278   0.493   8.202  0.0265 -0.1144  0.0925
 8149W        W 8149   5.712   1.248   1.342 -0.1913 -0.4255 -0.0208
 8150W        W 8150   3.412   8.862   1.315  0.0397 -0.1469 -0.2835
 8151W        W 8151   6.147   3.575   0.292  0.0203 -0.1368 -0.1475
 8152W        W 8152   8.435   9.007   8.928  0.3698 -0.0472  0.0550
 8153W        W 8153   4.090   6.359   6.890  0.0722 -0.0590 -0.2702
 8154W        W 8154   4.662   7.100   6.668  0.0546  0.1206 -0.0802
 8155W        W 8155   2.353   1.517   6.806  0.3670 -0.0744 -0.1192
 8156W        W 8156   4.527   3.217   1.879  0.1100 -0.0028 -0.0502
 8157W        W 8157   7.031   0.170   6.422 -0.2490 -0.2485  0.2200
 8158W        W 8158   9.886   7.494   6.225  0.1801  0.0498  0.2854
 8159W        W 8159   0.348   6.844   2.253 -0.0356 -0.1761 -0.1637
 8160W        W 8160   2.155   1.262   7.368  0.0333  0.2096 -0.2102
 8161W        W 8161   6.702   1.372  10.102  0.1472  0.0187 -0.0917
 8162W        W 8162   1.272   9.023   8.433 -0.2173  0.3437 -0.0405
 8163W        W 8163   3.814   4.710   7.959 -0.0374 -0.2266 -0.1354
 8164W        W 8164   2.899   0.628   0.759 -0.1293 -0.0652  0.0328
 8165W        W 8165   2.633   8.931   9.240  0.0162 -0.0878 -0.0282
 8166W        W 8166   0.867   9.737   0.460 -0.0785 -0.0129 -0.1724
 8167W        W 8167   7.867   5.470   9.345  0.1283  0.3170  0.2130
 8168W        W 8168   4.872   7.424   9.077 -0.0454  0.2242  0.0489
 8169W        W 8169   9.733  10.332   3.804  0.1534  0.1042  0.0994
 8170W        W 8170   4.910   4.488   0.619 -0.0567  0.0619  0.0100
 8171W        W 8171   7.052   8.037   7.933  0.4079  0.1557  0.1830
 8172W        W 8172   1.181   3.373   2.320 -0.0123  0.0827  0.0072
 8173W        W 8173   9.606   3.703   1.806 -0.0871  0.2688  0.1763
 8174W        W 8174   8.788   4.690   6.696  0.2727 -0.3402 -0.1079
 8175W        W 8175   8.730  10.106   0.687  0.0129  0.2172  0.1240
 8176W        W 8176   8.330   0.574   5.502  0.0604 -0.1145  0.1632
 8177W        W 8177   8.117   5.160   6.275 -0.0304 -0.0120  0.0016
 8178W        W 8178   5.058   0.781   2.840 -0.0136 -0.2578 -0.5013
 8179W        W 8179   6.217   6.722   9.211  0.0234  0.3476 -0.2666
 8180W        W 8180   0.539  10.133   7.315 -0.0847 -0.0528 -0.1427
 8181W        W 8181   8.705   9.780   2.245  0.0584 -0.1026 -0.1045
 8182W        W 8182   7.067   7.948   4.856 -0.1399 -0.0060 -0.2026
 8183W        W 8183   3.019   0.927   6.240 -0.0939 -0.2094  0.2105
 8184W        W 8184   6.805   6.903   2.696  0.0679  0.3244 -0.0405
 8185W        W 8185   3.642   9.698   2.345  0.1166  0.0427  0.2388
 8186W        W 8186   0.714   0.587   0.802  0.0619 -0.1360  0.0487
 8187W        W 8187   6.620   2.778   7.632  0.1184  0.2496  0.0885
 8188W        W 8188   2.441   5.895   2.541 -0.1099  0.0947  0.1040
 8189W        W 8189   9.769   2.943   5.202 -0.0284 -0.1401  0.0492
 8190W        W 8190   1.755   6.269   5.011 -0.0974  0.0307  0.1738
 8191W        W 8191   0.726   8.018   5.500 -0.3608 -0.1712  0.3091
 8192W        W 8192   0.989  10.185   1.947 -0.1831  0.0815  0.1998
 8193W        W 8193   9.324   5.018   8.612 -0.0279  0.1568 -0.1228
 8194W        W 8194   5.413   3.157  10.305 -0.2237  0.0341 -0.2456
 8195W        W 8195   4.630   8.275   9.079 -0.2205 -0.2442  0.1753
 8196W        W 8196   8.726   4.634   9.066 -0.1184 -0.2459  0.1395
 8197W        W 8197   2.594   6.951   3.666  0.1375 -0.0701 -0.0598
 8198W        W 8198   3.035   0.303   3.123 -0.0331  0.0967 -0.0986
 8199W        W 8199   8.959  10.055  10.161  0.2492  0.0580  0.1234
 8200W        W 8200   6.112   5.359   7.344  0.0535 -0.1677  0.2071
 8201W        W 8201   0.602   5.113   2.926 -0.1066 -0.1148  0.1956
 8202W        W 8202   0.729   8.439   4.323 -0.1216  0.0422 -0.1334
 8203W        W 8203   1.396   7.851   3.472 -0.0432  0.2060 -0.0445
 8204W        W 8204   4.519   6.261   9.804 -0.1337 -0.1203  0.0609
 8205W        W 8205   2.309   7.249   9.327 -0.0080 -0.0546  0.0427
 8206W        W 8206   6.032   8.757   0.787 -0.1706 -0.3318  0.2907
 8207W        W 8207   7.029   7.238   0.333 -0.2403 -0.1136 -0.0559
 8208W        W 8208   3.259   4.284   0.235 -0.2191 -0.2162 -0.1491
 8209W        W 8209   1.050   5.306   6.436  0.0407  0.0277  0.1425
 8210W        W 8210   7.420   0.267   9.373 -0.0967  0.1472 -0.3591
 8211W        W 8211   6.804   2.697   3.992  0.0852 -0.0973  0.4504
 8212W        W 8212   5.768   9.305   8.137 -0.0333  0.1317 -0.0484
 8213W        W 8213   8.031   1.172   5.289  0.2579  0.0419 -0.0185
 8214W        W 8214   6.621   0.146   2.429 -0.1062  0.2943  0.0054
 8215W        W 8215   6.559   1.930   8.850 -0.0201  0.3614  0.2353
 8216W        W 8216   3.041   1.152   1.127  0.3513 -0.0540  0.1292
 8217W        W 8217   1.298   9.818   7.075 -0.2473  0.1071  0.0886
 8218W        W 8218   4.737   0.528   4.421  0.0295  0.2323 -0.1636
 8219W        W 8219   5.856   0.244   0.894  0.0862 -0.0295 -0.4030
 8220W        W 8220   1.687   1.097   4.206  0.2690 -0.0257 -0.1213
 8221W        W 8221   8.718   3.473   1.139  0.2294  0.3963 -0.1138
 8222W        W 8222   0.741   1.746   5.653 -0.0852 -0.0177 -0.1095
 8223W        W 8223   6.880   6.772   6.975 -0.0776 -0.1661 -0.1177
 8224W        W 8224   9.109   9.069   0.339  0.0025 -0.2311  0.2060
 8225W        W 8225   4.148   3.129   0.525 -0.0684 -0.0357  0.2157
 8226W        W 8226   7.165   2.990   2.184 -0.0835  0.2024 -0.1111
 8227W        W 8227   0.020   4.085   9.535  0.1614 -0.0544 -0.1127
 8228W        W 8228   6.588   3.125   8.052 -0.0864  0.0350 -0.2911
 8229W        W 8229   0.531   6.205   9.249  0.0586  0.0699  0.0289
 8230W        W 8230   9.657   1.049   5.059  0.2969 -0.2265 -0.0221
 8231W        W 8231   1.836   3.742   3.833  0.0128 -0.0968  0.2542
 8232W        W 8232   3.099   3.795   4.195  0.1923  0.0376  0.1190
 8233W        W 8233   0.475   1.528   8.564 -0.5619  0.5791  0.1185
 8234W        W 8234   5.492   2.469   0.820  0.1990 -0.2754 -0.1750
 8235W        W 8235   1.077   1.603   9.489 -0.0578 -0.2391 -0.1651
 8236W        W 8236   2.526   4.651   8.140  0.1688  0.0546  0.2537
 8237W        W 8237   5.613   3.448   1.533 -0.4117 -0.2106  0.4746
 8238W        W 8238   4.933   8.592   9.298 -0.2629 -0.2908  0.0430
 8239W        W 8239   6.939   7.522   8.841  0.2429  0.2864 -0.1643
 8240W        W 8240   5.879   9.894   1.130  0.1316  0.2641  0.0422
 8241W        W 8241   4.563   0.866   4.756 -0.1237  0.0510 -0.2105
 8242W        W 8242   3.818   8.965   4.312 -0.1502  0.3083 -0.0814
 8243W        W 8243   1.388   2.017   6.450 -0.2084  0.0908 -0.0456
 8244W        W 8244   0.793   5.471   1.164 -0.0637  0.0866 -0.3786
 8245W        W 8245   1.909   8.204   3.021  0.1636  0.2774  0.0154
 8246W        W 8246   0.934   0.192   3.482 -0.1475 -0.2024  0.0528
 8247W        W 8247   2.960   6.180   9.821  0.1045 -0.1285 -0.0080
 8248W        W 8248   0.712  10.049   9.306 -0.0256  0.1088 -0.1787
 8249W        W 8249   8.951   6.735   3.177  0.2679  0.1445 -0.0812
 8250W        W 8250  10.237   3.821   0.331 -0.1701  0.2938  0.0029
 8251W        W 8251   8.047   7.403   7.824  0.0732 -0.0148 -0.0647
 8252W        W 8252   5.324   7.093   4.362  0.0706  0.0697  0.3207
 8253W        W 8253   1.843   0.523   0.005  0.1090 -0.1428 -0.0870
 8254W        W 8254   4.109   4.321   8.868  0.0962  0.1941 -0.1311
 8255W        W 8255   8.905   4.727   9.540  0.0293  0.0089 -0.1674
 8256W        W 8256   3.958   8.535   4.146  0.0035 -0.2423  0.0408
 8257W        W 8257   0.536   9.075   5.668  0.4814 -0.1073  0.1751
 8258W        W 8258   0.873   8.552   9.330 -0.0564 -0.0367 -0.3249
 8259W        W 8259   2.393   3.330   6.092  0.1773 -0.1376  0.0314
 8260W        W 8260   7.030   0.402   8.443  0.0003 -0.0039 -0.0333
 8261W        W 8261   4.253   9.942   6.292  0.3044 -0.1366 -0.1861
 8262W        W 8262  10.166   1.664   2.312 -0.1583  0.2094  0.2905
 8263W        W 8263   8.919   4.373   2.850  0.1555 -0.0566 -0.1463
 8264W        W 8264   9.482  10.188   5.391 -0.0585  0.1947  0.1756
 8265W        W 8265   5.795   3.124   5.946 -0.2871  0.0567  0.2981
 8266W        W 8266   6.375   5.469   5.854 -0.0846  0.2142  0.2661
 8267W        W 8267   9.431   3.606   5.920 -0.0010 -0.0811 -0.0036
 8268W        W 8268   4.916   3.472   3.343  0.0655 -0.1514  0.1645
 8269W        W 8269   4.833   7.894   0.580  0.2312 -0.0900  0.0353
 8270W        W 8270   9.958   9.137   4.486 -0.0697 -0.1158 -0.2871
 8271W        W 8271   3.884   3.785  10.324  0.0658  0.1475  0.0298
 8272W        W 8272   3.021   6.420   3.889 -0.0253 -0.0467 -0.0853
 8273W        W 8273   3.354   2.832   3.496  0.4592 -0.0087 -0.1094
 8274W        W 8274   6.890   0.275  10.261  0.1605  0.0650 -0.2053
 8275W        W 8275   0.371   1.140   9.828 -0.2470  0.0751  0.1324
 8276W        W 8276   6.570   9.658   2.592  0.0385  0.0413  0.0283
 8277W        W 8277   5.467   2.106   5.534 -0.1582  0.3693 -0.0577
 8278W        W 8278   3.307   6.696   6.511  0.0352 -0.0387  0.1174
 8279W        W 8279   5.106   2.985   0.296  0.0295 -0.1243 -0.1809
 8280W        W 8280   7.579   0.177   1.093 -0.1805  0.0095  0.1371
 8281W        W 8281   6.044   8.247   8.130 -0.0781 -0.0678 -0.1398
 8282W        W 8282   4.464   5.090   4.666 -0.0844  0.0280  0.1842
 8283W        W 8283   8.867   7.216   2.333  0.2003  0.1135  0.1506
 8284W        W 8284   5.255   3.475   3.701  0.2366  0.2172  0.1967
 8285W        W 8285   5.337   3.958   7.584 -0.1418  0.1200  0.0031
 8286W        W 8286   2.174   3.924   3.432 -0.2498 -0.0750  0.0537
 8287W        W 8287   3.827   0.505   6.348 -0.1642 -0.1106  0.0452
 8288W        W 8288   2.153   4.547   4.940  0.1098  0.0825  0.1030
 8289W        W 8289   3.728   6.339   3.311 -0.3017 -0.2346  0.1988
 8290W        W 8290   5.701   0.624   3.366 -0.0064  0.1849  0.0786
 8291W        W 8291   2.401   9.073   0.089  0.0580  0.2309  0.0134
 8292W        W 8292   1.271   9.238   1.919  0.1013 -0.2625  0.1677
 8293W        W 8293   7.719   7.505   9.344 -0.2297  0.0347  0.1552
 8294W        W 8294   4.080   5.861   3.630 -0.2537  0.1046  0.1074
 8295W        W 8295   6.790   9.391   3.062  0.1176 -0.0994  0.1472
 8296W        W 8296   1.069  10.227  10.279  0.0432 -0.5896  0.2801
 8297W        W 8297   5.159   6.058   7.374 -0.1428  0.0313 -0.0981
 8298W        W 8298   0.984   4.177   4.781  0.0173  0.0395  0.0165
 8299W        W 8299   4.205   5.881   6.914 -0.0345 -0.1539  0.1121
 8300W        W 8300   8.452   0.340   3.253  0.1881  0.0888  0.2156
 8301W        W 8301   4.691   6.302   8.953  0.1032 -0.3420 -0.0803
 8302W        W 8302   1.266   9.820   6.562  0.1791  0.0385 -0.1518
 8303W        W 8303   5.057   5.121   0.154  0.4366  0.1936  0.0720
 8304W        W 8304   2.923   1.321  10.107 -0.1818 -0.0405 -0.2011
 8305W        W 8305   9.420   7.351   2.065  0.0814 -0.0251  0.1353
 8306W        W 8306   5.398   6.604   2.379  0.0033 -0.1420  0.0122
 8307W        W 8307   7.264   6.352   2.421  0.0609 -0.0244 -0.1825
 8308W        W 8308   4.811   0.313   0.732 -0.1470  0.3404 -0.2136
 8309W        W 8309   7.533   7.883   7.978  0.1171 -0.2685 -0.0193
 8310W        W 8310   8.095   8.302   7.297  0.5483 -0.0454 -0.3717
 8311W        W 8311   5.574   3.643   4.487 -0.1278  0.0383 -0.2281
 8312W        W 8312   3.394   6.369   9.992  0.1380 -0.0088 -0.1715
 8313W        W 8313   5.901  10.263   5.813 -0.2042  0.0022 -0.0827
 8314W        W 8314   9.401   3.557   7.259  0.2702 -0.0681 -0.0307
 8315W        W 8315  10.127   6.763   7.102 -0.0206  0.2574 -0.3421
 8316W        W 8316   8.861   7.763   3.297  0.0858 -0.1374  0.1538
 8317W        W 8317   4.378  10.053   0.032  0.2574 -0.3370  0.0218
 8318W        W 8318   0.232   0.599   8.244 -0.1131 -0.0761 -0.1086
 8319W        W 8319   7.235   9.493   6.653 -0.0312 -0.1166  0.0236
 8320W        W 8320   7.922   3.458   1.264  0.0058 -0.1411 -0.0924
 8321W        W 8321   0.073   7.655   8.301 -0.1106 -0.1989 -0.2171
 8322W        W 8322   6.653   6.145   1.902 -0.2856 -0.0557 -0.3370
 8323W        W 8323   5.067   0.757   0.900 -0.1157 -0.1263  0.0341
 8324W        W 8324   8.769   4.459   7.158  0.0704 -0.1460 -0.2687
 8325W        W 8325   4.968   8.713   0.096  0.0435  0.4416  0.0553
 8326W        W 8326   5.447   8.337   9.244 -0.0789  0.1474 -0.0652
 8327W        W 8327   4.951   6.917   0.710 -0.0737 -0.1757 -0.0982
 8328W        W 8328   6.640   6.631   8.473 -0.1555 -0.0062 -0.1263
 8329W        W 8329   8.732   7.608   5.259  0.1421 -0.1202 -0.4525
 8330W        W 8330   4.735   7.979   7.570  0.2855 -0.3049 -0.1052
 8331W        W 8331  10.332   2.159   0.416 -0.0089  0.3098 -0.4734
 8332W        W 8332   6.271   6.796   2.638 -0.1553 -0.2651 -0.1090
 8333W        W 8333   6.923   4.562   0.048  0.0200 -0.4299  0.0357
 8334W        W 8334   1.127   1.626   4.488 -0.2036  0.2107  0.3407
 8335W        W 8335   3.593   6.855   9.985 -0.3595 -0.2250 -0.0458
 8336W        W 8336   0.754   0.581   3.076  0.0152 -0.0181 -0.1169
 8337W        W 8337   0.611   1.194   1.782  0.2220  0.0274  0.1081
 8338W        W 8338   2.409   9.825   3.267  0.0527 -0.0517 -0.0829
 8339W        W 8339  10.058   6.689   4.356 -0.2980  0.0372  0.0568
 8340W        W 8340   2.927   2.125   3.703  0.1324  0.1871  0.2328
 8341W        W 8341   8.446   7.304   9.968  0.0020 -0.0702  0.1889
 8342W        W 8342   0.990   2.282   6.112  0.3114  0.1324 -0.0333
 8343W        W 8343  10.119   0.234   7.380  0.1199  0.2101 -0.0539
 8344W        W 8344   3.557   0.257   9.836  0.0455  0.0494  0.0701
 8345W        W 8345   7.511  10.155   4.712  0.2175  0.0294 -0.1495
 8346W        W 8346   8.907   0.175   5.522  0.2597 -0.0680 -0.2084
 8347W        W 8347   0.655   9.114   0.714  0.1565  0.1882 -0.0842
 8348W        W 8348   9.441   0.339   2.458  0.2275  0.3869 -0.0606
 8349W        W 8349   9.442   8.368   1.651 -0.1717  0.2089  0.4269
 8350W        W 8350   6.153   3.494   4.213 -0.0820  0.1392  0.0010
 8351W        W 8351   2.610   8.426  10.041  0.0837 -0.1590  0.0271
 8352W        W 8352   9.617   6.525   5.831 -0.2318  0.0816  0.0385
 8353W        W 8353   2.618   6.615   0.830 -0.2770  0.1061  0.0309
 8354W        W 8354   6.664   3.193   7.135  0.1782 -0.1889  0.3986
 8355W        W 8355   0.894   7.130   3.997 -0.1877 -0.2402  0.0434
 8356W        W 8356   1.794   0.872   2.900  0.0544  0.0094 -0.2689
 8357W        W 8357   4.458   2.037   2.113  0.0350 -0.2623  0.1202
 8358W        W 8358   2.108   4.905   0.322  0.1191 -0.0801 -0.2800
 8359W        W 8359   4.646   1.564   2.003 -0.3142 -0.0807  0.0877
 8360W        W 8360   5.773   3.862   6.041 -0.1418  0.2362  0.0099
 8361W        W 8361   0.411   8.656   7.706 -0.0162  0.1162  0.0837
 8362W        W 8362   1.240   5.035   9.280 -0.0628 -0.1142 -0.0887
 8363W        W 8363   0.098   2.238   1.701 -0.0453  0.0227 -0.0193
 8364W        W 8364   7.699   3.905   1.064 -0.1363 -0.1913  0.5482
 8365W        W 8365   1.810   5.175   3.588 -0.2586  0.0457 -0.0302
 8366W        W 8366   8.521   4.183   7.476  0.0163 -0.0481  0.2109
 8367W        W 8367   8.476  10.060  10.107  0.0692  0.1212 -0.0907
 8368W        W 8368  10.080   7.719   8.664  0.2900  0.0659 -0.0069
 8369W        W 8369   0.891   0.952   2.726  0.0581  0.0417 -0.0907
 8370W        W 8370   8.372   1.389   1.186 -0.0668  0.1114 -0.4372
 8371W        W 8371   3.534   4.779   3.085  0.2434  0.1114  0.2595
 8372W        W 8372   6.229   8.692   3.515  0.0413 -0.2160  0.2320
 8373W        W 8373   9.092   7.688   9.256  0.4820  0.2224  0.1309
 8374W        W 8374   6.249   4.095   5.927 -0.1041  0.0612 -0.2400
 8375W        W 8375   5.680   5.565   6.703 -0.0660  0.2683  0.2171
 8376W        W 8376   1.457   6.219   9.110  0.1923 -0.0931  0.2636
 8377W        W 8377   6.067   5.684   6.992  0.2438 -0.1368  0.0577
 8378W        W 8378   4.149   1.737   5.011  0.2249  0.2645 -0.2303
 8379W        W 8379   6.418   2.326   9.227  0.1006  0.1214 -0.2266
 8380W        W 8380   3.009   7.801   2.816  0.0319 -0.1025  0.0897
 8381W        W 8381   9.821   6.353   8.307 -0.0932 -0.0311 -0.1867
 8382W        W 8382  10.183   9.693   9.087 -0.2492  0.0294  0.0443
 8383W        W 8383   9.807   8.700   4.777  0.2216 -0.5088 -0.0312
 8384W        W 8384   5.033   0.286   2.679  0.0179  0.0018  0.1487
 8385W        W 8385   9.755   1.750   1.286  0.1662 -0.3628  0.1151
 8386W        W 8386   5.870   4.499   6.009 -0.0113 -0.0486 -0.0331
 8387W        W 8387   2.600   0.231   3.933  0.2089 -0.0147 -0.1111
 8388W        W 8388   5.603   6.496   1.249  0.0248 -0.0461  0.3236
 8389W        W 8389   5.359   3.044   9.728  0.3440  0.1633 -0.0881
 8390W        W 8390   8.477   2.865   1.553 -0.2045 -0.3568 -0.1258
 8391W        W 8391   4.702   6.278   3.361  0.6155  0.2447  0.1188
 8392W        W 8392   5.168   9.050   8.713 -0.1687  0.0341  0.1626
 8393W        W 8393   6.564   0.284   3.023 -0.2402 -0.2588 -0.1623
 8394W        W 8394   3.816   2.939   1.533 -0.1286  0.2659 -0.1966
 8395W        W 8395   9.711   6.798   9.978 -0.0304 -0.0684 -0.0032
 8396W        W 8396   6.789   2.347   0.408 -0.4802 -0.1723  0.0566
 8397W        W 8397   4.826   7.802   9.908  0.0251  0.1529  0.0879
 8398W        W 8398   9.466   8.227   3.957 -0.1442 -0.2139  0.1437
 8399W        W 8399   3.362   2.466   3.047  0.3558  0.3381 -0.2051
 8400W        W 8400   2.164   5.096  10.183 -0.0838  0.0043  0.0988
 8401W        W 8401   4.214   5.706   6.410  0.2776 -0.1162  0.0265
 8402W        W 8402   7.796   8.127   8.715  0.1783  0.0332 -0.0878
 8403W        W 8403   6.526   3.836   0.137 -0.0512  0.0287  0.1279
 8404W        W 8404   6.186   8.778   5.471 -0.0751 -0.2011  0.1174
 8405W        W 8405   5.196   3.825   6.195 -0.1366 -0.2543  0.0576
 8406W        W 8406   7.383   9.808   3.850  0.3521  0.1028  0.0287
 8407W        W 8407   7.794   5.639   2.670 -0.1250 -0.0359 -0.0660
 8408W        W 8408   4.530   8.972   9.320 -0.1093  0.3019  0.1464
 8409W        W 8409   6.006  10.135  10.079 -0.0019 -0.2664 -0.2772
 8410W        W 8410   2.680   3.629   6.677  0.2430  0.4239 -0.0255
 8411W        W 8411   3.876   2.864   3.012 -0.2511 -0.2054 -0.1570
 8412W        W 8412   4.366   2.542   6.611 -0.0074  0.1186  0.2617
 8413W        W 8413   2.692   7.848   6.778 -0.0507 -0.3029  0.1177
 8414W        W 8414   3.294   7.861   4.394 -0.2273 -0.3138  0.0188
 8415W        W 8415   7.931   8.792   7.431 -0.0761  0.0566 -0.0055
 8416W        W 8416   0.243   3.496   1.921 -0.3078 -0.0625  0.0699
 8417W        W 8417   8.362   7.262   8.689 -0.0472 -0.5153 -0.1608
 8418W        W 8418   7.704  10.022   8.009 -0.1368 -0.1266  0.2453
 8419W        W 8419   8.784   8.632   6.424 -0.0719  0.2541  0.1622
 8420W        W 8420   5.095   5.768   2.194 -0.2750  0.4707  0.1515
 8421W        W 8421   9.776   8.086   1.924  0.1167 -0.0845 -0.0765
 8422W        W 8422   0.085   6.254   8.679 -0.3669 -0.0749 -0.3617
 8423W        W 8423   1.505   7.695   8.573  0.0435  0.0900  0.1866
 8424W        W 8424   3.698  10.033   8.616  0.0190 -0.2860  0.0066
 8425W        W 8425   6.464   2.397   1.987  0.1606  0.2078 -0.0031
 8426W        W 8426   8.452   0.720   4.022 -0.0965 -0.1214  0.0832
 8427W        W 8427   7.654   1.818   5.673 -0.0920  0.1678 -0.1519
 8428W        W 8428   9.483   6.994   6.485 -0.2076  0.0100  0.0748
 8429W        W 8429   1.852   9.329   3.282  0.2766 -0.0586 -0.0137
 8430W        W 8430   7.429   0.070   6.690 -0.0861  0.0532  0.1415
 8431W        W 8431   4.514   8.644   8.048  0.0807 -0.1065 -0.0898
 8432W        W 8432   5.870   8.753   9.369 -0.3281  0.1028 -0.2751
 8433W        W 8433   1.547   8.121   3.921 -0.0710 -0.5453 -0.2449
 8434W        W 8434   6.053   7.192   7.460 -0.0382  0.1040 -0.4388
 8435W        W 8435   3.839   9.103   1.295 -0.2141 -0.1092 -0.0447
 8436W        W 8436   3.046   5.456   6.706  0.0528  0.0287  0.1180
 8437W        W 8437   8.394   6.493   3.388 -0.0778  0.1973 -0.1045
 8438W        W 8438   0.910   8.743   0.462 -0.1424  0.0480 -0.0835
 8439W        W 8439   3.148   7.522   5.634  0.0208  0.2071 -0.1911
 8440W        W 8440   2.257   0.319   4.376 -0.1029  0.1458  0.1434
 8441W        W 8441   4.944   1.091   6.286 -0.0182 -0.3535 -0.0640
 8442W        W 8442   6.338   8.648   0.440  0.3036 -0.2182  0.0176
 8443W        W 8443   4.025   0.857   3.981  0.0788  0.0681 -0.0577
 8444W        W 8444   8.477   3.180   2.411  0.1640 -0.2498 -0.2385
 8445W        W 8445   8.350   0.640   6.557  0.1593 -0.0769 -0.1041
 8446W        W 8446   3.858   1.985   8.265 -0.0991  0.0770 -0.4433
 8447W        W 8447   7.405   3.389   6.028 -0.1235  0.1439 -0.1471
 8448W        W 8448   5.557   5.813   5.104 -0.1933 -0.1740  0.3955
 8449W        W 8449   3.870   7.934   9.804 -0.0841  0.2351 -0.2210
 8450W        W 8450   9.183   0.784   7.581  0.5218 -0.2199 -0.1088
 8451W        W 8451   8.195   3.780   3.666 -0.0033  0.1191 -0.2284
 8452W        W 8452   9.300   7.820   7.554  0.0045 -0.1633 -0.0051
 8453W        W 8453   7.486   2.848   0.569 -0.1924 -0.0026 -0.0726
 8454W        W 8454   3.684   7.091   1.335 -0.2147  0.1036 -0.1480
 8455W        W 8455   8.008   8.023   7.745  0.2060 -0.0901 -0.1272
 8456W        W 8456   8.771   6.563   8.065 -0.0280  0.4592 -0.1546
 8457W        W 8457   0.606   6.803   5.995 -0.0196  0.2179 -0.1712
 8458W        W 8458   7.760   6.766   7.006  0.0893  0.0534 -0.0766
 8459W        W 8459   9.641   8.041   6.764 -0.0958  0.0331  0.0506
 8460W        W 8460   5.837   2.493   1.230  0.1471  0.3973 -0.1782
 8461W        W 8461   0.729   0.800   9.698  0.2857  0.1884  0.1890
 8462W        W 8462   1.592   5.845   7.649 -0.2112  0.0676 -0.0369
 8463W        W 8463   1.538   6.618   4.793 -0.0162  0.2557  0.1891
 8464W        W 8464   7.091  10.202   0.891 -0.0510  0.2791 -0.2964
 8465W        W 8465   1.955   0.504   1.936 -0.1508  0.0128  0.1641
 8466W        W 8466   2.787   6.629   6.598  0.1748 -0.0629  0.1045
 8467W        W 8467   4.186   5.004   0.490 -0.1772 -0.2020  0.1634
 8468W        W 8468   0.889   8.224   2.256 -0.0098  0.0241  0.1584
 8469W        W 8469   6.437   2.779   4.343 -0.0252 -0.2699 -0.2332
 8470W        W 8470   7.200   9.994   1.751 -0.1806 -0.0262 -0.1085
 8471W        W 8471  10.122   3.229   9.175  0.0302 -0.1063  0.2539
 8472W        W 8472   0.402   8.646   9.612  0.1503  0.3353 -0.1612
 8473W        W 8473   2.285   3.047   4.999 -0.1009 -0.1113  0.0633
 8474W        W 8474   5.592   0.329   2.679 -0.1610  0.3248 -0.2336
 8475W        W 8475   6.813   5.655   6.885  0.2519 -0.1899 -0.1589
 8476W        W 8476   0.622   4.141   0.618  0.0415  0.0961 -0.3158
 8477W        W 8477   6.890   9.749   0.019  0.0135  0.1487 -0.2910
 8478W        W 8478  10.159   9.345   8.652 -0.3171 -0.1503  0.1211
 8479W        W 8479   8.237   0.567   4.876 -0.2654 -0.0439 -0.0125
 8480W        W 8480   2.697   2.555   8.062  0.3008  0.1107 -0.0129
 8481W        W 8481   1.127   2.303   9.208 -0.3595 -0.0469 -0.0687
 8482W        W 8482   8.060   3.838   0.507  0.0093 -0.2408 -0.0283
 8483W        W 8483   7.471   6.764   3.111 -0.1459  0.0866 -0.0329
 8484W        W 8484   6.742   1.865   2.570 -0.3250  0.0353 -0.1887
 8485W        W 8485   8.059   8.402   3.948  0.1883 -0.2722  0.0027
 8486W        W 8486   1.313   0.753   9.706 -0.1280 -0.2246  0.0462
 8487W        W 8487   7.743   1.816   9.458 -0.3248  0.0755  0.1780
 8488W        W 8488   6.942   0.360   5.979 -0.0541 -0.0745 -0.0303
 8489W        W 8489   5.213   4.594   4.315 -0.0243  0.1951  0.0355
 8490W        W 8490   2.336   6.942   6.532  0.0000  0.1410  0.0029
 8491W        W 8491   0.995   5.792   5.086  0.1078 -0.0157  0.0884
 8492W        W 8492   7.142   9.897   7.884 -0.1615  0.0341  0.4029
 8493W        W 8493   2.866   9.970   0.183 -0.2621  0.2499 -0.0453
 8494W        W 8494   3.623   1.016   6.355 -0.3404  0.0028 -0.0860
 8495W        W 8495   9.445   1.351   5.712  0.0816  0.1367 -0.0220
 8496W        W 8496   3.761   5.510   2.691 -0.0936  0.0483 -0.1009
 8497W        W 8497   0.506   8.539   0.283 -0.0692  0.1890  0.2764
 8498W        W 8498   0.731   6.345   8.728 -0.3046  0.2443 -0.0236
 8499W        W 8499   1.086  10.165   4.893  0.0067 -0.2718  0.0045
 8500W        W 8500   0.435   4.319   1.086 -0.3794  0.1220  0.0477
 8501W        W 8501   9.851  10.181   7.217  0.1006  0.2722  0.0525
 8502W        W 8502   6.608   4.689   9.457 -0.1407  0.0963  0.0031
 8503W        W 8503   6.728   6.528   8.021 -0.2431 -0.3402 -0.0246
 8504W        W 8504   3.822   9.194   0.553 -0.0793 -0.1573  0.2738
 8505W        W 8505   5.228   6.350   4.934 -0.0857  0.2538 -0.1079
 8506W        W 8506   5.909   4.935   5.258 -0.3253 -0.3694  0.0404
 8507W        W 8507   3.271   9.901   6.366 -0.2009  0.2135 -0.3542
 8508W        W 8508   9.129   5.823   3.912 -0.1205  0.0383 -0.0733
 8509W        W 8509   7.982   4.590   1.116  0.1886 -0.3554  0.3874
 8510W        W 8510   1.394   5.450   4.729 -0.1151  0.0867 -0.0860
 8511W        W 8511   7.245   6.070   4.568  0.2016 -0.3390 -0.2629
 8512W        W 8512   1.092   3.681   4.934 -0.0472  0.5115  0.1220
 8513W        W 8513   0.654   1.732   7.461  0.0173  0.2171 -0.2416
 8514W        W 8514   6.277   7.368   7.875  0.0307  0.0564  0.0391
 8515W        W 8515  10.067  10.253   6.325 -0.1580  0.3094 -0.1618
 8516W        W 8516   5.899   8.637   8.539 -0.1174 -0.1605  0.3218
 8517W        W 8517   3.397   2.596   1.699  0.0930 -0.0275  0.0329
 8518W        W 8518   1.983   6.249   0.041  0.2505  0.4960 -0.0955
 8519W        W 8519   5.505   7.291   2.974 -0.1341 -0.0926 -0.0339
 8520W        W 8520   1.005   3.838   0.760 -0.1065 -0.1129 -0.0433
 8521W        W 8521   0.594   9.433   4.443 -0.1031  0.0257 -0.2840
 8522W        W 8522   3.100   4.549   6.909  0.1135  0.0584  0.0511
 8523W        W 8523   6.985   9.986   4.635  0.1341 -0.3517  0.2144
 8524W        W 8524   0.188   4.937   7.878 -0.0191  0.1299  0.1041
 8525W        W 8525   2.160   3.494   4.910  0.2364 -0.0319 -0.0770
 8526W        W 8526   6.242   4.743   6.677 -0.3517  0.0904 -0.0230
 8527W        W 8527   1.018   6.488   7.654 -0.0926 -0.0095  0.1038
 8528W        W 8528   4.384   6.740   9.056 -0.2116 -0.1172  0.2871
 8529W        W 8529   5.931   1.337   7.944  0.1768 -0.1267 -0.5923
 8530W        W 8530   9.264   2.972   2.577  0.1715 -0.0293 -0.1202
 8531W        W 8531   5.377   2.595   4.826 -0.2555  0.1115  0.2854
 8532W        W 8532   6.850   2.650   2.132 -0.0976  0.1412 -0.0814
 8533W        W 8533   0.474   1.913   8.227 -0.1457  0.2287  0.3296
 8534W        W 8534  10.283   9.047   2.434  0.2369  0.1509  0.0287
 8535W        W 8535   0.507   7.193   8.159 -0.0427  0.0253 -0.0076
 8536W        W 8536   6.386   0.693   8.376  0.0167  0.0912  0.0641
 8537W        W 8537   4.959   3.334   6.435  0.1621  0.0131 -0.1686
 8538W        W 8538   8.043   3.096   4.226 -0.0586  0.3236  0.2080
 8539W        W 8539   1.007   0.735   4.512  0.0246 -0.2606  0.0467
 8540W        W 8540   2.069   3.069   5.792  0.0468  0.0564 -0.0506
 8541W        W 8541   9.566   9.937   7.855  0.1108  0.1679  0.1182
 8542W        W 8542   0.953   9.779   7.436  0.2304  0.1364 -0.0827
 8543W        W 8543   9.982   0.218   4.238 -0.0931  0.0077  0.1380
 8544W        W 8544   0.813   5.361   9.108  0.4119  0.2728  0.2922
 8545W        W 8545   1.735   3.737   6.373  0.0682 -0.0844  0.1701
 8546W        W 8546   3.450   7.196   6.610 -0.1352 -0.0779  0.0455
 8547W        W 8547   8.225   1.882   0.976 -0.0511  0.2094  0.2802
 8548W        W 8548   9.985   9.243   5.904  0.4844 -0.2470  0.2723
 8549W        W 8549  10.133   4.575   2.651 -0.0203 -0.0448  0.4716
 8550W        W 8550   6.987  10.143   3.263  0.2144  0.1175 -0.0904
 8551W        W 8551   0.430   7.579  10.244  0.3736  0.1747 -0.1820
 8552W        W 8552   0.185   6.286   3.675  0.2083  0.0015  0.1704
 8553W        W 8553   1.814   4.874   5.040  0.0749  0.1115  0.0243
 8554W        W 8554   5.807   2.741   8.903 -0.1990  0.1273  0.1898
 8555W        W 8555  10.203   6.305   1.470  0.0254  0.0428  0.3823
 8556W        W 8556   0.886   5.855   0.851  0.0474 -0.0032 -0.3453
 8557W        W 8557   7.130   7.456   0.760  0.2158 -0.0814 -0.0410
 8558W        W 8558   2.638   0.660   4.630 -0.0471  0.1027 -0.0944
 8559W        W 8559   2.233   4.746   5.441  0.0478  0.0295  0.0337
 8560W        W 8560   9.440   6.982   4.326 -0.1093  0.1583  0.1429
 8561W        W 8561   9.366   3.888   5.489 -0.1547  0.2573 -0.1816
 8562W        W 8562   8.787  10.060   3.397 -0.0910  0.1507  0.0949
 8563W        W 8563   5.610   1.319   0.700  0.0900 -0.3500 -0.1015
 8564W        W 8564   2.599   5.511   5.769 -0.0659  0.2551  0.0332
 8565W        W 8565   0.566   0.744   3.566 -0.0567 -0.1583 -0.0986
 8566W        W 8566   6.464   3.428  10.120 -0.0090  0.0039 -0.1096
 8567W        W 8567   4.551   3.059   5.692  0.4345  0.1111  0.0610
 8568W        W 8568   9.287   4.532   4.622  0.1045 -0.3021 -0.1614
 8569W        W 8569   2.756   7.211   7.925  0.1703  0.1699 -0.2104
 8570W        W 8570   5.361   1.231   9.374 -0.1496 -0.2000  0.0473
 8571W        W 8571   5.101   6.260   4.393  0.0513 -0.2816  0.1994
 8572W        W 8572   8.718   2.678   6.657  0.0818  0.1262  0.1485
 8573W        W 8573   2.595   7.359   1.495 -0.0664  0.0463 -0.1818
 8574W        W 8574  10.149  10.069   5.525 -0.2091 -0.1548  0.0996
 8575W        W 8575   0.091   2.768   5.848 -0.3627  0.0511  0.0387
 8576W        W 8576   5.132   9.162  10.024  0.1478 -0.3469  0.0083
 8577W        W 8577   4.770   4.899   3.270 -0.0116  0.0073  0.0858
 8578W        W 8578   5.599   4.454   0.179  0.2383 -0.2599 -0.0794
 8579W        W 8579  10.315   9.876   8.604  0.1807  0.2807  0.1648
 8580W        W 8580   6.465   9.213   7.814 -0.2106  0.0340  0.2116
 8581W        W 8581   3.612   7.668   5.759 -0.0109 -0.4991  0.1735
 8582W        W 8582   2.454   5.990   9.939 -0.0773 -0.0631 -0.2174
 8583W        W 8583  10.023   7.670   3.984 -0.0819  0.0617 -0.0818
 8584W        W 8584   5.324   3.247   1.201 -0.1481 -0.2764 -0.0182
 8585W        W 8585   7.919   5.027   9.504 -0.0027 -0.3779  0.2561
 8586W        W 8586   9.437   8.959   7.079 -0.4773  0.2543  0.0451
 8587W        W 8587   7.320   0.524   1.782  0.1273 -0.2377  0.0688
 8588W        W 8588   2.377   7.154   7.019 -0.1636 -0.2718  0.1554
 8589W        W 8589   8.240   2.379   0.027  0.0471 -0.0380 -0.4373
 8590W        W 8590   0.227   2.270   2.277  0.1547  0.1111 -0.0396
 8591W        W 8591   7.619   8.083   5.597 -0.1931  0.0796 -0.0190
 8592W        W 8592   7.020   2.934   8.156 -0.1737 -0.2072  0.1614
 8593W        W 8593   4.587   6.810   3.320 -0.0206 -0.1537  0.1934
 8594W        W 8594   8.206   0.435   7.877 -0.1010 -0.0021 -0.4383
 8595W        W 8595   7.910   6.806   6.152  0.1435  0.1201  0.3295
 8596W        W 8596   1.611   6.638   8.223  0.3415  0.2002 -0.0030
 8597W        W 8597   5.795   6.494   9.081  0.0286  0.2350 -0.1968
 8598W        W 8598   2.219   8.254   1.589  0.0250  0.3778  0.3399
 8599W        W 8599   2.575   3.450   7.128 -0.2075  0.1644 -0.0265
 8600W        W 8600   4.139   0.308   9.135 -0.0314 -0.1835  0.2619
 8601W        W 8601   4.901   1.899   5.732  0.1642  0.0358  0.2475
 8602W        W 8602   3.523   1.494   0.663  0.2479  0.2488 -0.2184
 8603W        W 8603   3.544   4.306   8.924 -0.2384 -0.0049  0.1610
 8604W        W 8604   5.009   4.696   5.299 -0.5914 -0.0825  0.3884
 8605W        W 8605   5.633   3.868   7.073  0.1868  0.0179  0.1834
 8606W        W 8606   6.568   7.866   1.114  0.1316  0.0229 -0.0823
 8607W        W 8607   5.913   6.767   3.594  0.0393 -0.1558  0.0319
 8608W        W 8608   9.591   7.637   8.607 -0.0497 -0.0212 -0.1148
 8609W        W 8609   5.207   9.284   3.891  0.0713  0.1709 -0.0030
 8610W        W 8610   0.172   5.535   9.671 -0.2215  0.2054  0.2201
 8611W        W 8611   8.930   1.749   5.670  0.0018 -0.1534 -0.2792
 8612W        W 8612   4.972   4.424   2.373 -0.2980  0.1993  0.0394
 8613W        W 8613   0.914   6.742   6.479 -0.1249  0.3185  0.2235
 8614W        W 8614   1.534   4.479   7.367  0.1445  0.3027  0.2116
 8615W        W 8615   6.599   2.292  10.060  0.3215  0.4892 -0.2198
 8616W        W 8616   5.227   8.424   5.340  0.0070  0.2316  0.1987
 8617W        W 8617   3.642   3.741   3.973 -0.0415  0.0869  0.0603
 8618W        W 8618   1.660   9.779   8.962  0.2147  0.0643  0.2380
 8619W        W 8619   3.364   2.085   9.838 -0.2388  0.0577 -0.1207
 8620W        W 8620   2.877   5.604  10.138  0.0896 -0.0735  0.0359
 8621W        W 8621   0.858   9.974   1.415  0.0076  0.0521  0.2417
 8622W        W 8622  10.218   0.021   3.584 -0.0812  0.0179 -0.2704
 8623W        W 8623   6.840   6.903   7.496  0.1972 -0.3219  0.2180
 8624W        W 8624   7.583   8.400   7.219 -0.1269  0.0530 -0.0356
 8625W        W 8625  10.187   8.366   6.182 -0.0177  0.2767 -0.0525
 8626W        W 8626   0.117   4.962   7.342 -0.2099  0.1099  0.3298
 8627W        W 8627   3.575   0.027  10.268 -0.1245  0.1693  0.0491
 8628W        W 8628   7.432   9.384   8.507  0.0341  0.1692 -0.2074
 8629W        W 8629   5.847   4.851   6.937  0.1439  0.0346  0.1502
 8630W        W 8630   1.924   0.887   7.041 -0.0190 -0.2772 -0.0495
 8631W        W 8631   2.543   0.803   1.796 -0.0731  0.2691 -0.1171
 8632W        W 8632   4.808   6.605   4.716  0.0472 -0.0285 -0.0394
 8633W        W 8633   1.095   3.372   8.664 -0.1711  0.2080  0.2808
 8634W        W 8634   2.355   2.861   3.995 -0.0080  0.1457 -0.0165
 8635W        W 8635   0.901   1.686   6.174 -0.2091 -0.1009 -0.1369
 8636W        W 8636   0.588   6.551   1.503  0.3548 -0.3858  0.0799
 8637W        W 8637   3.171   6.529   0.776  0.0243  0.0308 -0.5658
 8638W        W 8638   6.443   6.208   0.231  0.0688  0.0698 -0.1273
 8639W        W 8639   8.129   2.741   8.273  0.1905 -0.2374  0.3186
 8640W        W 8640   2.442   5.732   4.037 -0.0358 -0.0216  0.0251
 8641W        W 8641   4.332   6.429   5.639  0.0579 -0.1549  0.2755
 8642W        W 8642   3.033   8.310   4.424  0.1236 -0.1035 -0.1670
 8643W        W 8643   5.776   5.640   1.721 -0.0600 -0.1043 -0.2862
 8644W        W 8644   2.075   4.863   5.927  0.1097  0.0951 -0.0308
 8645W        W 8645   1.784  10.289   0.973 -0.1267  0.1047 -0.1042
 8646W        W 8646   0.324   4.291   8.037 -0.2101 -0.1194  0.1654
 8647W        W 8647   4.894   4.580   3.919 -0.1187 -0.2828 -0.0018
 8648W        W 8648   0.638   7.414   1.306  0.1744 -0.2277 -0.0744
 8649W        W 8649   5.324   5.790   8.593 -0.0788  0.1920 -0.1853
 8650W        W 8650   1.275   3.118   1.195  0.1630  0.1813 -0.0900
 8651W        W 8651   2.285   7.661   1.157  0.1250 -0.0141  0.0605
 8652W        W 8652   0.761   4.403   1.387 -0.1222 -0.2631 -0.1506
 8653W        W 8653   1.899   8.069   3.501  0.1446 -0.0155 -0.1061
 8654W        W 8654   6.063   9.459   4.107  0.1845 -0.3853  0.1609
 8655W        W 8655   6.114   4.239   6.419 -0.2375  0.2556  0.0992
 8656W        W 8656   7.896   7.306   7.104  0.0669  0.0840 -0.1679
 8657W        W 8657   3.683   2.036   4.031  0.0025  0.0126  0.0372
 8658W        W 8658   0.845   3.412   1.067 -0.1996 -0.0805 -0.1033
 8659W        W 8659   8.886  10.331   3.877 -0.2714 -0.0620  0.0247
 8660W        W 8660   6.660   4.112   6.228  0.0202  0.1588  0.1013
 8661W        W 8661   8.277   5.324   4.947 -0.0925  0.0513  0.1191
 8662W        W 8662   9.229   1.530   0.262  0.3070  0.0196  0.1638
 8663W        W 8663   0.519   1.085   2.307  0.0561  0.1496  0.2330
 8664W        W 8664   4.362   5.835   3.205  0.0922  0.0760  0.0987
 8665W        W 8665   5.224   0.538   3.290 -0.0904 -0.0086 -0.0667
 8666W        W 8666   6.949   8.681   2.618  0.0160 -0.0714 -0.1743
 8667W        W 8667   1.172   9.598   5.378 -0.1610  0.0223  0.1978
 8668W        W 8668   9.324   0.771  10.184 -0.0106  0.3409 -0.0731
 8669W        W 8669   9.119   8.659   7.810  0.0149 -0.0970  0.3788
 8670W        W 8670   2.128   7.981   4.009 -0.2312 -0.2312  0.2449
 8671W        W 8671   0.266   3.380   7.048  0.1951  0.0114 -0.2586
 8672W        W 8672   5.636   3.033   7.554 -0.0422  0.0659 -0.5050
 8673W        W 8673   5.653   5.373   7.173  0.1065 -0.0433  0.1490
 8674W        W 8674   7.130   7.417   4.759 -0.0712  0.0648  0.0064
 8675W        W 8675   9.938   3.668   6.006 -0.4464  0.1728  0.1670
 8676W        W 8676   3.318   2.350   3.559  0.1470 -0.0328 -0.1564
 8677W        W 8677   7.195   1.994   0.279  0.0214 -0.2447 -0.0967
 8678W        W 8678   1.142   7.321   1.783 -0.0535 -0.5545 -0.0016
 8679W        W 8679   9.856   2.044   0.446 -0.2300 -0.0006 -0.0127
 8680W        W 8680   1.539   8.946   3.088 -0.0101  0.0949  0.2777
 8681W        W 8681   6.211   3.638   9.183  0.0144  0.2795  0.2516
 8682W        W 8682   1.954   0.690   9.384  0.0373  0.2204  0.2575
 8683W        W 8683  10.156   1.075   1.668 -0.0470 -0.1633  0.0807
 8684W        W 8684   3.635   2.838   2.014  0.1426 -0.1303 -0.2511
 8685W        W 8685   9.836  10.118   3.325  0.1105 -0.1187  0.1138
 8686W        W 8686   1.092   0.900   1.789  0.1813  0.1625 -0.1270
 8687W        W 8687   0.149   7.153   0.228  0.1912 -0.3245 -0.0178
 8688W        W 8688   4.965   1.050   5.080 -0.1694  0.0184 -0.0568
 8689W        W 8689   6.236   2.496   6.560  0.0817  0.1347  0.2781
 8690W        W 8690   0.898   3.480   5.479  0.0884  0.0313  0.1386
 8691W        W 8691   4.838   6.870   8.998  0.2237 -0.0080 -0.2152
 8692W        W 8692   5.279  10.269   1.493 -0.0169  0.1504  0.4424
 8693W        W 8693   5.391  10.128  10.042 -0.1719  0.0502  0.0802
 8694W        W 8694   0.970   6.718   4.699 -0.0421 -0.0923  0.2900
 8695W        W 8695   2.327   6.109   5.498 -0.0988 -0.5975  0.1139
 8696W        W 8696   3.718   7.135   2.833 -0.1844 -0.1350  0.0464
 8697W        W 8697   3.323   0.926   9.218  0.2370 -0.2979  0.2807
 8698W        W 8698   3.189   2.403   4.716  0.0088 -0.0483  0.3534
 8699W        W 8699   8.140   7.621   2.498  0.0201  0.1930  0.4018
 8700W        W 8700   3.587   5.349   1.000 -0.3073  0.2010  0.1113
 8701W        W 8701   6.089   2.235   8.294  0.2701  0.0841  0.0565
 8702W        W 8702   4.349   1.409   5.589  0.3768 -0.3887 -0.1638
 8703W        W 8703   3.815   0.821   6.816 -0.1470 -0.1801 -0.0520
 8704W        W 8704   0.567   6.699   9.420  0.2938 -0.2217  0.0655
 8705W        W 8705   7.960   3.729   9.418  0.0845 -0.0489  0.0703
 8706W        W 8706   6.240   5.113   1.881 -0.3712  0.0368  0.1539
 8707W        W 8707   3.108   1.942   9.319 -0.1082 -0.1409  0.2782
 8708W        W 8708   5.437   2.142   0.436 -0.0156  0.0720 -0.0003
 8709W        W 8709   9.147   5.713   5.828  0.2258 -0.2430 -0.1829
 8710W        W 8710   1.912   7.507   7.059 -0.1232  0.2801 -0.0179
 8711W        W 8711   1.477   2.648   8.432 -0.0820  0.2627 -0.3281
 8712W        W 8712   5.214   4.710   0.940 -0.0041 -0.1349  0.0670
 8713W        W 8713   3.225   9.738   1.215  0.0529  0.2889 -0.0916
 8714W        W 8714   5.389   2.282   7.786  0.0052  0.1355  0.1419
 8715W        W 8715   1.937   3.693   2.995 -0.1462 -0.0058 -0.2295
 8716W        W 8716   9.943   8.324   9.375 -0.0331  0.1117  0.0246
 8717W        W 8717   6.636   4.462   4.269  0.2094  0.0473 -0.0778
 8718W        W 8718   6.978   6.119   6.770  0.0080 -0.0460 -0.0357
 8719W        W 8719   4.745   9.350   9.647 -0.0994 -0.0677  0.2543
 8720W        W 8720   9.096   9.230   6.906 -0.2547  0.0316 -0.1867
 8721W        W 8721   4.205   5.521   8.917 -0.0138  0.1786 -0.0666
 8722W        W 8722   5.909   9.189   6.314 -0.1739  0.0074  0.0202
 8723W        W 8723   2.060   3.778   7.910  0.2256  0.2323 -0.0701
 8724W        W 8724   9.888   1.730  10.143  0.1237  0.2031  0.1613
 8725W        W 8725   0.972   9.986   8.309  0.1931  0.0659 -0.1777
 8726W        W 8726   3.493   4.442   4.362 -0.1022 -0.2058 -0.0771
 8727W        W 8727   8.204   7.736   8.681  0.3711 -0.0376  0.2196
 8728W        W 8728   9.338   1.625   8.634 -0.0583  0.2011  0.0519
 8729W        W 8729   3.441   5.486   7.065  0.1275  0.0853  0.2979
 8730W        W 8730   0.007   1.308   4.005 -0.0444  0.1173  0.1529
 8731W        W 8731   6.874   3.454   0.075 -0.2290  0.0958 -0.1451
 8732W        W 8732   8.220   9.346   1.196  0.0322 -0.0616 -0.1018
 8733W        W 8733   6.520   8.408   2.547  0.3166 -0.1483  0.1062
 8734W        W 8734   1.489   9.347   4.627  0.2284  0.0312 -0.3245
 8735W        W 8735   1.901   7.965  10.074 -0.1174 -0.2258  0.1937
 8736W        W 8736   4.601   8.773   0.848 -0.1085  0.1264 -0.1108
 8737W        W 8737   1.230   6.368   8.686 -0.1779 -0.2052  0.2415
 8738W        W 8738   4.305   6.543   1.734  0.1826  0.1308  0.1851
 8739W        W 8739   0.979   5.991   8.984 -0.0333 -0.1486 -0.1621
 8740W        W 8740   7.478   0.900   5.475 -0.0407 -0.0018  0.1391
 8741W        W 8741   4.418   9.178   0.544  0.2842  0.0779  0.0203
 8742W        W 8742   5.792   5.425   8.028  0.1064 -0.4679  0.0236
 8743W        W 8743   9.943   3.369   6.516 -0.2961 -0.2023 -0.1645
 8744W        W 8744   9.689   5.068   4.784 -0.1498 -0.2675  0.0789
 8745W        W 8745   4.626   3.499   9.863 -0.2646 -0.0503  0.2123
 8746W        W 8746   6.182   6.000   0.958 -0.1102 -0.1458 -0.0079
 8747W        W 8747   6.168   9.217   0.181 -0.2389 -0.0810  0.0461
 8748W        W 8748   4.589   1.897   0.749 -0.4055  0.1838 -0.0448
 8749W        W 8749   9.415   6.906   2.801  0.2065  0.1622  0.0645
 8750W        W 8750   1.418   5.806   0.052  0.0165  0.2054 -0.0015
 8751W        W 8751   4.063   4.056   5.538 -0.0789 -0.3017  0.2991
 8752W        W 8752   3.975  10.253   1.144  0.2866 -0.2484  0.2294
 8753W        W 8753   2.169   2.411   4.191 -0.0081  0.0822 -0.1020
 8754W        W 8754   2.956   0.200   4.876 -0.2482 -0.1603 -0.1073
 8755W        W 8755   3.601   0.370   2.686  0.2530  0.0620 -0.1191
 8756W        W 8756   7.084   3.235   0.717 -0.2449  0.2117  0.1327
 8757W        W 8757   4.549   9.714   8.139 -0.1086 -0.0572 -0.1196
 8758W        W 8758   8.713   1.004   8.858 -0.2144 -0.1714  0.1354
 8759W        W 8759   7.784   6.231   2.675 -0.2589 -0.1474 -0.2092
 8760W        W 8760   2.716   2.875   5.877 -0.1562  0.1305 -0.2272
 8761W        W 8761   7.852   9.720   1.163  0.0041 -0.0228  0.0350
 8762W        W 8762   6.484   3.230   9.524 -0.1817 -0.0559  0.2285
 8763W        W 8763   3.101   4.903   5.155 -0.0410  0.1079 -0.2886
 8764W        W 8764   5.779   7.432   8.093 -0.1359  0.0075 -0.0321
 8765W        W 8765   0.912   0.200   0.341 -0.0016  0.2654 -0.0123
 8766W        W 8766   0.834   5.610   8.063  0.1209 -0.0824 -0.2031
 8767W        W 8767   7.672   3.891   1.899  0.0853  0.0915 -0.6437
 8768W        W 8768   5.346   4.545   9.989  0.2318  0.0314  0.0011
 8769W        W 8769   3.779   2.097   9.531 -0.0582 -0.3872 -0.0648
 8770W        W 8770   8.304   7.544   3.592 -0.0329  0.2342  0.3468
 8771W        W 8771   6.411   1.075   6.176 -0.2056  0.0518 -0.1027
 8772W        W 8772   5.329   1.983   1.755 -0.0659  0.0940 -0.2229
 8773W        W 8773   5.174   9.399   2.177  0.0080  0.1958 -0.2276
 8774W        W 8774   6.469   8.219   4.266 -0.1530  0.0243 -0.0726
 8775W        W 8775   2.614   9.657   4.056  0.0035 -0.0013 -0.1662
 8776W        W 8776   1.202   0.805   8.651 -0.0707 -0.1749 -0.3340
 8777W        W 8777   8.294   0.609   9.351  0.3091  0.5297 -0.1642
 8778W        W 8778   4.786  10.144   5.619  0.2279 -0.2023 -0.0780
 8779W        W 8779   4.693   9.097  10.322  0.0504 -0.3672  0.2276
 8780W        W 8780   2.084   1.774   5.488 -0.0275 -0.0425  0.0379
 8781W        W 8781   1.445   3.113   7.804  0.0895 -0.0737  0.0927
 8782W        W 8782   4.176   5.839   2.473  0.1745 -0.0465 -0.0262
 8783W        W 8783   9.885   1.191   9.586 -0.1737 -0.0083  0.2071
 8784W        W 8784   3.306   9.704   8.688  0.1139 -0.1373 -0.0752
 8785W        W 8785   8.506   2.065   8.985 -0.0414  0.3250  0.1438
 8786W        W 8786   2.856   4.874   7.449 -0.4468  0.1078 -0.0127
 8787W        W 8787   7.809   6.311   6.286  0.0244 -0.2328 -0.2254
 8788W        W 8788   4.366   3.561   0.862  0.2557  0.0033 -0.0404
 8789W        W 8789   7.686   9.411   3.542  0.2195 -0.2296  0.1741
 8790W        W 8790   2.871   5.982   3.818  0.1174  0.0850  0.0959
 8791W        W 8791   0.067   3.965   7.558  0.2029  0.0269 -0.2938
 8792W        W 8792   5.041   9.162   9.298  0.2600 -0.2197  0.0181
 8793W        W 8793   6.064   0.684   7.487 -0.0188 -0.0675  0.0079
 8794W        W 8794   6.274   1.319   4.861  0.1717  0.0860  0.0462
 8795W        W 8795  10.334   8.714   6.460 -0.1028  0.4615  0.0158
 8796W        W 8796  10.212   4.268   0.087  0.1237 -0.1764  0.0606
 8797W        W 8797   7.358   4.852   4.750 -0.3451  0.2332  0.3980
 8798W        W 8798   3.714   5.115   0.162  0.0720 -0.1357 -0.0779
 8799W        W 8799   9.354   8.731   5.134  0.4253 -0.3513  0.0310
 8800W        W 8800   8.331   5.155   3.641 -0.2029 -0.2005 -0.0497
 8801W        W 8801   2.327   2.242   9.006 -0.0679  0.1495 -0.1120
 8802W        W 8802   1.495   3.488   4.805  0.1595 -0.0530 -0.0856
 8803W        W 8803   4.263   0.703   6.692  0.2213 -0.6349 -0.2579
 8804W        W 8804   5.229   3.850   2.407 -0.1304 -0.2583 -0.0805
 8805W        W 8805   5.052   9.402   7.586  0.1626  0.0888  0.1152
 8806W        W 8806   4.004   1.289   9.080 -0.0685  0.1959  0.1112
 8807W        W 8807   8.645   3.163   0.042 -0.1184 -0.0916 -0.0028
 8808W        W 8808   0.296   1.131   4.381  0.0540 -0.1998  0.1315
 8809W        W 8809   9.420   0.651   0.690 -0.5013 -0.1837  0.4371
 8810W        W 8810   5.489   9.759   9.234 -0.0733 -0.0765 -0.1037
 8811W        W 8811   5.127   4.409   9.115  0.2035 -0.1667 -0.1479
 8812W        W 8812   8.664   0.459   7.008  0.2006  0.1930  0.0235
 8813W        W 8813   8.750   9.483   8.043 -0.1745  0.6490  0.1163
 8814W        W 8814   0.529   9.882   1.848  0.1305  0.1343  0.1987
 8815W        W 8815   5.266   3.405   8.788 -0.0720  0.0320 -0.3960
 8816W        W 8816   5.835   7.487   4.831 -0.0895 -0.0051  0.3470
 8817W        W 8817   5.832   9.672   9.913 -0.0466 -0.0309 -0.1024
 8818W        W 8818   2.979   7.659   1.738  0.0242  0.1305 -0.0914
 8819W        W 8819   6.951   1.642   4.145  0.4921  0.1678 -0.0093
 8820W        W 8820   7.601   8.552   8.974 -0.1987 -0.0596  0.3742
 8821W        W 8821   6.244   6.336   3.590  0.1492 -0.1780  0.2790
 8822W        W 8822   2.948   0.617   5.611  0.2666  0.0438  0.0931
 8823W        W 8823   2.393   9.776   9.258 -0.1526  0.0737 -0.1860
 8824W        W 8824   0.025   2.091   8.361 -0.0034 -0.1006  0.1102
 8825W        W 8825   0.596   4.774  10.144  0.6134  0.0081  0.2929
 8826W        W 8826   2.740   2.986   7.248 -0.0014 -0.4660  0.1076
 8827W        W 8827   8.977   7.743   7.931  0.1306 -0.0199 -0.0808
 8828W        W 8828   6.534   3.261   7.572 -0.1225 -0.0380 -0.1382
 8829W        W 8829   3.890   7.731   1.803 -0.1255 -0.0034 -0.0122
 8830W        W 8830  10.217   4.651   0.977 -0.0520  0.1164  0.1861
 8831W        W 8831  10.242   1.685   0.172 -0.2298  0.1857  0.0893
 8832W        W 8832   9.045   1.906  10.315  0.0635  0.2090 -0.1411
 8833W        W 8833   2.524   0.803   6.393 -0.2409  0.1860  0.0933
 8834W        W 8834   0.570   9.848   4.115 -0.1302 -0.1815  0.0345
 8835W        W 8835   0.472   7.004   2.814 -0.0403  0.2518  0.2085
 8836W        W 8836   9.176   2.726   8.618 -0.0585 -0.3931 -0.0109
 8837W        W 8837   3.888   6.136   5.408  0.2193 -0.0939  0.0563
 8838W        W 8838   3.703   6.072   9.795  0.0920  0.1408 -0.1757
 8839W        W 8839   8.288   3.536   4.508  0.2772  0.0669  0.1795
 8840W        W 8840   0.976   4.838   4.136 -0.0584 -0.0212  0.0994
 8841W        W 8841   1.199   8.211   3.245 -0.0077 -0.2554 -0.1560
 8842W        W 8842   0.411   8.805   3.906 -0.1426  0.0259  0.1407
 8843W        W 8843   6.388   6.250  10.045 -0.1577  0.0830 -0.0249
 8844W        W 8844   2.565   7.128   1.043 -0.1631 -0.2757  0.0603
 8845W        W 8845   3.946   6.707   6.569  0.1592  0.0216  0.3548
 8846W        W 8846   3.448   6.990   4.473  0.1235  0.1299 -0.0181
 8847W        W 8847   6.088   8.207   8.675 -0.1577 -0.2365  0.2837
 8848W        W 8848   4.350   8.520   9.500 -0.2690 -0.0056  0.0976
 8849W        W 8849   5.719   8.219   7.545 -0.3746  0.0507 -0.2954
 8850W        W 8850   3.050   7.332   1.257  0.0427 -0.0599 -0.1405
 8851W        W 8851   6.405   3.600   7.195 -0.0414 -0.1634 -0.2263
 8852W        W 8852   4.871   5.045   4.171 -0.1073 -0.1804  0.3053
 8853W        W 8853   3.463   7.555   2.728  0.1524 -0.2231  0.0275
 8854W        W 8854   1.237   5.696   4.307 -0.1739 -0.2506  0.0090
 8855W        W 8855   5.995   9.681   6.677  0.0400  0.1146 -0.0416
 8856W        W 8856   2.702   4.051   3.424 -0.1748 -0.2419 -0.2391
 8857W        W 8857   1.342   1.579   0.533 -0.0217 -0.3894  0.0712
 8858W        W 8858   6.764   1.731   0.598 -0.1117  0.1418  0.2238
 8859W        W 8859   0.870   9.576   2.061 -0.0364  0.0565  0.0473
 8860W        W 8860   6.912   7.063   5.911  0.1790 -0.1327 -0.0631
 8861W        W 8861   8.015   9.256   2.733 -0.1903  0.2087 -0.1263
 8862W        W 8862   0.331   5.601   6.827 -0.3138  0.1237 -0.0871
 8863W        W 8863   4.201   4.106   3.731  0.0273 -0.1113 -0.0406
 8864W        W 8864   1.972   4.710   2.362 -0.1021 -0.1651 -0.2772
 8865W        W 8865   2.102   3.640  10.219  0.2902  0.1314 -0.0816
 8866W        W 8866   5.849   3.499   2.825  0.0014  0.0847  0.1290
 8867W        W 8867   5.163   2.262  10.345 -0.0217 -0.1519 -0.1075
 8868W        W 8868   7.313   5.034   3.451 -0.1088  0.4297 -0.1422
 8869W        W 8869   4.265   7.111   9.690  0.1613  0.4072  0.0564
 8870W        W 8870   9.796   9.299   3.691  0.0724 -0.3105  0.0266
 8871W        W 8871   4.054   6.830   7.049  0.2063 -0.1571  0.0551
 8872W        W 8872   0.242   2.452   0.031 -0.1616 -0.2247 -0.2456
 8873W        W 8873   1.140   0.242   5.705  0.2356 -0.1182 -0.2124
 8874W        W 8874   8.912   1.035   7.952  0.0425  0.0278  0.1020
 8875W        W 8875   9.614   7.762   3.700 -0.0179  0.2685 -0.1548
 8876W        W 8876   3.638   0.166   4.038  0.2909  0.0963 -0.0169
 8877W        W 8877   7.828   3.382   2.691  0.1135 -0.1258  0.3269
 8878W        W 8878   2.420   1.102   4.817  0.0610 -0.3953 -0.0382
 8879W        W 8879   0.843   7.140   9.539 -0.0091  0.3164  0.1429
 8880W        W 8880   4.785   3.311   7.957  0.0198  0.0052 -0.0715
 8881W        W 8881  10.130   7.740   6.593 -0.3242  0.1479  0.0686
 8882W        W 8882   6.000   0.470   2.940  0.3450 -0.0580  0.2697
 8883W        W 8883   3.295   1.454   8.355 -0.2162 -0.3208 -0.0517
 8884W        W 8884  10.306   9.445   3.599  0.2376 -0.1081  0.2096
 8885W        W 8885   0.441  10.300   4.729  0.3275 -0.2722 -0.3630
 8886W        W 8886   5.500   8.136   7.149  0.2663  0.0813  0.0019
 8887W        W 8887   2.308   9.268   9.309  0.1234  0.1283 -0.0668
 8888W        W 8888   2.614   9.048   1.063  0.0910 -0.1088 -0.1956
 8889W        W 8889   8.409   8.631   3.646 -0.0654  0.0081 -0.0502
 8890W        W 8890   6.635   0.866   2.240  0.1465  0.1499 -0.3140
 8891W        W 8891   3.395   3.709   1.359 -0.3808  0.0274 -0.0538
 8892W        W 8892   3.251   5.095   4.245  0.0040 -0.1059  0.0985
 8893W        W 8893   7.308   6.895   7.226  0.2856  0.1099  0.0774
 8894W        W 8894   2.676   3.453   8.156 -0.3725 -0.0802  0.1116
 8895W        W 8895   7.509   4.939   1.828 -0.3138  0.0790 -0.1400
 8896W        W 8896   1.853   1.208   8.257  0.1129  0.0714 -0.1087
 8897W        W 8897   1.405   7.902   4.515 -0.0187 -0.1740 -0.2162
 8898W        W 8898   2.254   6.025   4.957  0.1854 -0.0619  0.1712
 8899W        W 8899   6.687   8.374   1.148 -0.2868  0.0218  0.0037
 8900W        W 8900   5.800   3.748   6.532 -0.2959 -0.3834 -0.0163
 8901W        W 8901   3.784   3.893   1.631  0.2549 -0.2075 -0.0494
 8902W        W 8902   0.180   9.092   7.474  0.1902  0.4017  0.1807
 8903W        W 8903   1.677   5.928   2.356 -0.3511 -0.1890  0.0867
 8904W        W 8904   6.466   9.319   9.105  0.0292  0.3003  0.0751
 8905W        W 8905   7.278   9.858   5.069  0.4788 -0.3392 -0.1119
 8906W        W 8906   3.841   4.814   4.334  0.3497  0.0225 -0.0436
 8907W        W 8907   7.752   0.988   8.209 -0.0167 -0.0422 -0.1095
 8908W        W 8908   9.195   6.738  10.102 -0.1864 -0.1117  0.0304
 8909W        W 8909   8.477   7.129   1.985 -0.2089  0.1135 -0.2174
 8910W        W 8910   2.845   8.737   4.226  0.0197 -0.0745  0.0067
 8911W        W 8911   5.857   8.086   3.576  0.0377 -0.3345  0.0182
 8912W        W 8912   6.638   7.161   3.885 -0.1127 -0.0159 -0.2312
 8913W        W 8913   1.846   1.144   2.232  0.0446  0.0822 -0.0017
 8914W        W 8914   0.430   4.365   6.316 -0.0452  0.0569 -0.0982
 8915W        W 8915   7.774   1.331   6.464 -0.2320 -0.3990 -0.1980
 8916W        W 8916   8.584   2.866   7.595  0.1362  0.1780  0.0052
 8917W        W 8917   8.591   2.292   8.396 -0.1760  0.0737  0.0405
 8918W        W 8918   7.452   4.162   7.375  0.1549  0.1388 -0.0000
 8919W        W 8919   8.340   7.847   3.181 -0.1934  0.1101  0.0408
 8920W        W 8920   4.964   1.154   6.781  0.0958  0.5336 -0.0714
 8921W        W 8921   0.900   3.602   8.191  0.0940  0.4546 -0.1079
 8922W        W 8922   0.129   5.185   5.827  0.0364 -0.0180  0.0166
 8923W        W 8923   9.741   5.560   4.675  0.2245 -0.0380  0.0047
 8924W        W 8924   2.837   6.864   9.222 -0.0667 -0.2851  0.2532
 8925W        W 8925   8.081   7.751   5.849  0.0771  0.2442 -0.0102
 8926W        W 8926   2.134   2.048   1.443 -0.2636  0.1879 -0.0462
 8927W        W 8927   3.678   4.991  10.023  0.0289 -0.2373 -0.0869
 8928W        W 8928  10.008   7.793   5.759  0.0253 -0.0460 -0.2563
 8929W        W 8929   7.942   5.074  10.091  0.1210 -0.2843 -0.3233
 8930W        W 8930   1.370   2.000   7.874 -0.1949 -0.0280 -0.1911
 8931W        W 8931   2.067   4.757   3.697  0.0889  0.2696 -0.1780
 8932W        W 8932   4.834   8.554   6.688  0.3241  0.1842 -0.0739
 8933W        W 8933   4.731   4.577   4.427 -0.3549  0.3391  0.0397
 8934W        W 8934   5.281   6.273   8.917  0.2670  0.0223  0.0586
 8935W        W 8935   6.352   9.040   1.300  0.3858  0.1700 -0.1817
 8936W        W 8936   5.783   2.313   6.759  0.0217 -0.3340 -0.1498
 8937W        W 8937   7.047   3.200   7.669  0.4165 -0.0603  0.1418
 8938W        W 8938   1.924   4.149   7.115  0.0675  0.0764  0.0765
 8939W        W 8939   2.372   3.170   2.541  0.0533  0.3747  0.1583
 8940W        W 8940   7.184   1.007   0.347  0.0681  0.0771  0.1761
 8941W        W 8941   4.811   1.589   1.475 -0.2786  0.1726  0.2697
 8942W        W 8942   6.088   2.462   7.119  0.1239  0.2347 -0.1716
 8943W        W 8943   9.346   0.679   2.094  0.1494  0.0263  0.3677
 8944W        W 8944   4.808   2.930   1.134 -0.0344  0.2303 -0.2905
 8945W        W 8945   6.080   3.895   7.438 -0.3499  0.4793 -0.0223
 8946W        W 8946   8.777   1.508   6.447 -0.3620 -0.2828 -0.0690
 8947W        W 8947   5.003   9.935   7.508 -0.0007 -0.0247  0.0668
 8948W        W 8948   5.284   9.700   3.663  0.1940 -0.2239  0.1814
 8949W        W 8949  10.153   2.988  10.200 -0.0513 -0.2093 -0.0665
 8950W        W 8950   2.649   2.417  10.260 -0.1072 -0.0246  0.3995
 8951W        W 8951   7.208   2.407   9.371 -0.0679 -0.0886  0.0077
 8952W        W 8952   1.608   3.788   2.309  0.2948 -0.4697 -0.0845
 8953W        W 8953   8.456   8.793   8.456 -0.4145  0.3013 -0.0748
 8954W        W 8954   1.773   5.435   1.205  0.1873  0.1812 -0.1693
 8955W        W 8955   3.456   4.483   3.487 -0.0794  0.3020  0.0925
 8956W        W 8956   4.410   5.651   4.646 -0.0587 -0.0590  0.1847
 8957W        W 8957   3.630   1.921   2.405 -0.1496 -0.1634 -0.1354
 8958W        W 8958   5.451   5.807   9.140 -0.1742  0.0409  0.1009
 8959W        W 8959   7.794   6.902   7.814 -0.1329 -0.0310 -0.0864
 8960W        W 8960   4.873   5.551   8.523 -0.1396 -0.6807  0.1341
 8961W        W 8961   1.780   4.405   5.222  0.0451 -0.0972  0.1179
 8962W        W 8962   1.212   4.631   7.918 -0.2066  0.1379 -0.0976
 8963W        W 8963   4.529   1.040   0.438  0.3246  0.1057  0.2270
 8964W        W 8964   6.630   3.493   0.560  0.2267  0.1825 -0.1907
 8965W        W 8965   6.455   6.669   9.680  0.2303 -0.1322 -0.2944
 8966W        W 8966   1.673   3.343   2.097  0.0549  0.0629  0.0305
 8967W        W 8967   3.162   0.328   7.478 -0.0258  0.3075  0.1564
 8968W        W 8968   0.211  10.032   9.216  0.1517 -0.1828  0.1789
 8969W        W 8969   8.561  10.014   8.275  0.2521  0.2336  0.0697
 8970W        W 8970   4.173   8.938   3.917  0.0884  0.1374  0.2909
 8971W        W 8971   3.185   6.877   7.888 -0.0552  0.3380 -0.0654
 8972W        W 8972   4.281   3.865   1.361 -0.4538  0.3858  0.0642
 8973W        W 8973   3.318   3.512   0.429 -0.1126 -0.0277  0.2230
 8974W        W 8974  10.190   3.089   7.717  0.2579 -0.2112  0.1048
 8975W        W 8975   1.512   5.805   0.808 -0.1191 -0.1127 -0.3012
 8976W        W 8976   9.402   1.099   2.350 -0.0865  0.1534  0.0607
 8977W        W 8977   4.353   0.840   1.397 -0.1099  0.0115  0.2383
 8978W        W 8978   9.828   6.287   2.292 -0.0372  0.2183 -0.1310
 8979W        W 8979   6.842   0.967   9.801 -0.1611  0.1749  0.2020
 8980W        W 8980   9.788   5.517   2.721  0.3012 -0.0474 -0.0090
 8981W        W 8981   2.022   1.061   1.764 -0.3334  0.0696  0.0937
 8982W        W 8982   5.717   1.766   3.886  0.2833 -0.0012 -0.2231
 8983W        W 8983   1.455   2.482   0.796 -0.2555  0.1233 -0.0481
 8984W        W 8984   9.238   1.373   8.165  0.3324 -0.0708 -0.2519
 8985W        W 8985   5.883   3.548   5.655  0.0868 -0.3467 -0.1248
 8986W        W 8986   7.477   8.583   8.500  0.3094  0.0055 -0.0588
 8987W        W 8987   7.687  10.344   8.400 -0.2211  0.0238  0.0437
 8988W        W 8988   7.282   5.711   5.725 -0.0394  0.1663  0.0358
 8989W        W 8989   4.254   0.993   5.224  0.0868  0.2761 -0.2080
 8990W        W 8990   7.404   4.336   4.654 -0.0145 -0.1750 -0.2875
 8991W        W 8991   2.011   4.610   9.712 -0.3066 -0.0946 -0.1788
 8992W        W 8992   3.060   2.325   8.313  0.0076  0.4637  0.1187
 8993W        W 8993   9.824   8.785   2.926  0.0986  0.1385  0.2875
 8994W        W 8994   2.051   8.492   3.771 -0.1993  0.2157  0.0159
 8995W        W 8995   3.289   1.972   0.736  0.0583 -0.1405 -0.1208
 8996W        W 8996   0.071   0.155   4.479 -0.1798  0.1895  0.0006
 8997W        W 8997   9.290   9.015   9.752  0.0323 -0.0082  0.2063
 8998W        W 8998   3.760   2.422   2.671  0.0416  0.2257 -0.3979
 8999W        W 8999   5.657   0.238   6.142 -0.1105  0.0094  0.0013
 9000W        W 9000   2.361   7.758   7.796  0.1109  0.1115 -0.0727
 9001W        W 9001   6.348   3.720   1.381  0.0237  0.0471  0.0286
 9002W        W 9002   6.428   9.138   6.238 -0.0717  0.0969  0.3011
 9003W        W 9003   6.661   1.239   4.115 -0.0961 -0.0397  0.1572
 9004W        W 9004   3.912  10.075   0.138  0.1951  0.0559  0.1939
 9005W        W 9005   4.723   3.955   9.881 -0.2284 -0.0611  0.0145
 9006W        W 9006   2.665   8.844   2.037  0.1102 -0.1412 -0.0696
 9007W        W 9007   8.867   5.716   0.463  0.3374  0.0112  0.2558
 9008W        W 9008   5.908   2.672   2.118  0.3448  0.3028  0.1088
 9009W        W 9009   9.845   7.561   1.900  0.2843 -0.1126  0.0848
 9010W        W 9010   1.363   0.233   3.175 -0.0927 -0.2257  0.1843
 9011W        W 9011   8.252   5.549   5.940  0.0875 -0.0957 -0.0237
 9012W        W 9012   9.924   3.771   2.956  0.1445 -0.2968  0.0598
 9013W        W 9013   7.501   6.190   7.099  0.4470  0.1533 -0.0605
 9014W        W 9014  10.267   9.475   7.288 -0.1059 -0.3000 -0.2169
 9015W        W 9015   9.913   9.652   0.117 -0.0437 -0.1966  0.1095
 9016W        W 9016   4.832   0.172   3.583  0.3315 -0.2636  0.2621
 9017W        W 9017   7.699   8.565   0.513  0.1558  0.2023 -0.2291
 9018W        W 9018   2.133   2.641   0.196 -0.1928  0.3986 -0.2568
 9019W        W 9019   9.070   3.357   6.286 -0.0527 -0.2947  0.2622
 9020W        W 9020   2.808   4.256  10.328 -0.1849 -0.0243  0.4240
 9021W        W 9021   2.908   2.920   9.187 -0.0996 -0.0877  0.1160
 9022W        W 9022   5.285   9.671   1.302 -0.1774 -0.0964  0.2344
 9023W        W 9023   0.657   1.333   1.344  0.0498  0.2017  0.0627
 9024W        W 9024   5.974   7.429   9.051 -0.1354  0.2051  0.1382
 9025W        W 9025   0.855   0.364  10.145  0.0329 -0.1154  0.0115
 9026W        W 9026   5.697   3.669   4.005 -0.2362 -0.1270  0.0733
 9027W        W 9027   2.467   7.943  10.120 -0.0094  0.1209  0.1895
 9028W        W 9028   4.866   3.487   5.988 -0.1872 -0.0369  0.1585
 9029W        W 9029   6.520   5.676   7.287  0.5511  0.3832  0.2886
 9030W        W 9030   6.444  10.317   8.775 -0.3050 -0.0928 -0.1710
 9031W        W 9031   6.694   6.607   9.010 -0.0257  0.2442  0.0774
 9032W        W 9032   9.938   0.654   5.244 -0.1142  0.2538 -0.0569
 9033W        W 9033   5.291   6.711   4.632 -0.2675 -0.0871 -0.1840
 9034W        W 9034   6.978   2.525   1.267 -0.1882  0.1655  0.0334
 9035W        W 9035   1.261   0.230   7.552  0.1534 -0.0208  0.2762
 9036W        W 9036   8.639   1.773   9.940  0.1929 -0.0973  0.0248
 9037W        W 9037   9.651   7.483   7.510 -0.2017 -0.5600  0.0669
 9038W        W 9038   4.941   2.793   3.900  0.0126 -0.4314  0.1789
 9039W        W 9039   3.360   0.097   1.858  0.2252  0.0356 -0.0352
 9040W        W 9040   3.994   8.598   8.021 -0.0679 -0.0713 -0.4145
 9041W        W 9041   3.112   3.317   4.899 -0.0318 -0.1134 -0.3487
 9042W        W 9042   7.666   2.361   9.434 -0.2408 -0.2028 -0.1374
 9043W        W 9043   6.928   4.211   4.624 -0.0907 -0.0527 -0.3989
 9044W        W 9044   8.552   1.844   8.209 -0.1552 -0.0203  0.1341
 9045W        W 9045   2.171   3.587   8.826  0.2540  0.2061  0.0860
 9046W        W 9046   2.962   3.823   2.521 -0.0729 -0.0492 -0.0057
 9047W        W 9047   3.124   5.514   5.803  0.0798 -0.0083  0.2703
 9048W        W 9048   6.938   9.685   3.518 -0.4171 -0.2156  0.0790
 9049W        W 9049   8.229   0.953   4.566  0.0415  0.1703 -0.1339
 9050W        W 9050   5.397   5.081   6.517  0.0187 -0.1063 -0.2158
 9051W        W 9051   2.196   4.398   2.843  0.0570 -0.1493 -0.1234
 9052W        W 9052   7.904   4.063   1.448 -0.4549  0.2656 -0.0443
 9053W        W 9053   1.853   5.800   8.632  0.1329  0.1354  0.0771
 9054W        W 9054   2.525   6.985  10.211 -0.0994  0.1980  0.3309
 9055W        W 9055   3.743   9.329   3.143  0.1830  0.1993  0.0230
 9056W        W 9056   8.888   6.991   2.748 -0.0370 -0.0451 -0.0908
 9057W        W 9057   9.786   6.011   6.510 -0.2195  0.0748 -0.0323
 9058W        W 9058   5.820   8.297   6.729 -0.3357 -0.0604 -0.5817
 9059W        W 9059   8.835   4.211   8.435 -0.1655  0.0597 -0.0476
 9060W        W 9060   0.555   4.191   7.325 -0.0342 -0.0826  0.0078
 9061W        W 9061  10.051   7.679   2.709 -0.2827 -0.2718 -0.1148
 9062W        W 9062   8.701   2.605   0.828 -0.0490 -0.1040  0.0697
 9063W        W 9063   9.278  10.317   7.098 -0.2737 -0.0713  0.2934
 9064W        W 9064   0.518   2.226   9.993 -0.1401 -0.0555 -0.1224
 9065W        W 9065   2.258   9.858   4.396 -0.2434  0.1525 -0.2713
 9066W        W 9066   3.092   4.224   3.203 -0.2904  0.3573  0.1649
 9067W        W 9067   4.099   0.853   5.893 -0.2459  0.0388  0.1839
 9068W        W 9068   7.210  10.301   4.286  0.0737  0.0815 -0.0838
 9069W        W 9069   5.368   5.131   4.206 -0.0383  0.3805 -0.0935
 9070W        W 9070   1.936   9.499   4.671 -0.2470 -0.1502 -0.0439
 9071W        W 9071   2.830   9.719   8.170 -0.0214  0.0532 -0.0070
 9072W        W 9072   1.474   6.600   0.672  0.4054  0.2477 -0.1628
 9073W        W 9073   2.603   2.887   0.116 -0.1116 -0.2256 -0.1004
 9074W        W 9074   7.377   7.670   8.935 -0.0066  0.0397 -0.0444
 9075W        W 9075   5.449   4.888   4.612  0.1255 -0.2252  0.1961
 9076W        W 9076   2.730   2.513   3.367  0.1587  0.0907  0.4111
 9077W        W 9077   4.680   7.323  10.172 -0.2479 -0.2000  0.0985
 9078W        W 9078  10.056   7.105  10.235  0.2270  0.2983 -0.2380
 9079W        W 9079   5.063   9.755   5.893  0.1341  0.0480 -0.1615
 9080W        W 9080   6.808   4.662   8.467 -0.0704  0.2975  0.1093
 9081W        W 9081   4.538  10.167   2.068 -0.0447 -0.4103  0.0014
 9082W        W 9082   4.879   2.828   4.898 -0.0845 -0.1802 -0.0516
 9083W        W 9083   1.002   6.787   5.668  0.0378 -0.0802 -0.0811
 9084W        W 9084   8.175   2.428   7.431  0.3173  0.2322 -0.1373
 9085W        W 9085   6.452   6.558   1.278 -0.1618 -0.2019 -0.4499
 9086W        W 9086   0.476   9.275   7.084 -0.1164 -0.0833 -0.0873
 9087W        W 9087   7.036   4.820   7.208 -0.0566 -0.2417  0.1865
 9088W        W 9088   3.924   5.489   2.231 -0.0954 -0.1760 -0.2193
 9089W        W 9089   9.587   0.242   7.562 -0.1652 -0.5330 -0.0968
 9090W        W 9090   1.619   1.187   1.450  0.1780 -0.1045  0.0186
 9091W        W 9091   0.865   4.362   3.353  0.0928 -0.1669  0.0483
 9092W        W 9092   9.420   1.340   9.675 -0.0810  0.1528  0.0345
 9093W        W 9093   3.859   4.486   5.699  0.4719  0.2704  0.0908
 9094W        W 9094   1.731   3.135   5.064 -0.4053  0.1891  0.0266
 9095W        W 9095  10.019   6.291   7.785 -0.1463 -0.2636  0.2118
 9096W        W 9096   9.002   0.215   3.370  0.0366 -0.2107 -0.0101
 9097W        W 9097   9.413   3.937   2.850 -0.0507  0.0595  0.0843
 9098W        W 9098   3.053   3.621   8.491 -0.0581  0.0537 -0.0306
 9099W        W 9099   7.438   8.871   1.766  0.0854 -0.0654 -0.2268
 9100W        W 9100  10.056   9.128   3.278 -0.0734  0.1528  0.0773
 9101W        W 9101   8.433   5.689   6.685 -0.0444  0.2486  0.2528
 9102W        W 9102   7.410   4.006   1.466  0.0374  0.2101  0.0992
 9103W        W 9103   3.763   4.583   8.521  0.1967 -0.0584  0.1660
 9104W        W 9104   4.994   7.505   5.359 -0.0738 -0.2664 -0.1760
 9105W        W 9105   2.111   1.887   9.787  0.0698  0.0230  0.0752
 9106W        W 9106   2.743   5.077   2.675 -0.0052  0.1347 -0.1353
 9107W        W 9107   9.629   8.567   1.101 -0.0956  0.1723 -0.1153
 9108W        W 9108   1.326   0.066   6.891 -0.0712  0.0896  0.1598
 9109W        W 9109   4.117   5.803   5.034  0.2008  0.1045  0.2137
 9110W        W 9110   8.670   0.827   1.776 -0.0610 -0.2438 -0.0216
 9111W        W 9111   7.784   3.292  10.165  0.0622 -0.4290  0.1532
 9112W        W 9112   7.644   9.762   1.647 -0.0351 -0.0186  0.2260
 9113W        W 9113   2.723   4.099   4.822 -0.1090 -0.2297 -0.0415
 9114W        W 9114   7.757   8.828  10.323  0.1579 -0.0122 -0.0940
 9115W        W 9115   7.332   3.612  10.277 -0.0529  0.0106  0.0383
 9116W        W 9116   9.497   0.152   3.416  0.5032 -0.3331 -0.2412
 9117W        W 9117   7.214   7.360   2.132  0.0988  0.3974 -0.1492
 9118W        W 9118   0.589   2.821   9.219 -0.0233 -0.0482  0.2809
 9119W        W 9119   1.558   2.984   9.445  0.1243 -0.0488  0.2460
 9120W        W 9120   3.961   2.068   8.845 -0.0797 -0.2515 -0.2337
 9121W        W 9121   9.958   5.412   0.504 -0.1184 -0.0360  0.2257
 9122W        W 9122   6.239   8.882   4.995 -0.4789 -0.0249  0.2778
 9123W        W 9123   1.890   6.546   6.481 -0.2955  0.2095 -0.0690
 9124W        W 9124   4.886  10.094   1.191 -0.1062  0.2414 -0.0969
 9125W        W 9125   9.160   7.724   5.436 -0.1829 -0.2894 -0.2397
 9126W        W 9126   3.075   3.298   6.999  0.1142  0.5444  0.1056
 9127W        W 9127   6.392   0.175   0.789  0.2052 -0.1699 -0.0157
 9128W        W 9128   3.142   9.143   2.023 -0.1277  0.3116  0.0773
 9129W        W 9129   6.206   3.160   0.680 -0.0459 -0.1002  0.0675
 9130W        W 9130   4.260   3.228   2.321 -0.1949  0.3120  0.2927
 9131W        W 9131   6.305   9.758   7.089 -0.1511  0.0837  0.1966
 9132W        W 9132   9.988  10.032   2.005 -0.0161  0.2146  0.0332
 9133W        W 9133  10.027   9.346   9.428 -0.1339  0.3286 -0.1887
 9134W        W 9134   3.983   9.783   9.114  0.0241 -0.0583  0.4744
 9135W        W 9135   5.793   6.848   0.640  0.2725 -0.0673 -0.2018
 9136W        W 9136   9.629   3.894   3.992 -0.0256 -0.2474  0.2139
 9137W        W 9137   2.005   5.379   8.779 -0.2393 -0.0065 -0.1594
 9138W        W 9138   0.024   0.314   1.115  0.2461  0.1704 -0.1235
 9139W        W 9139   1.887   3.224   6.261 -0.2358 -0.1699  0.1364
 9140W        W 9140   9.186   9.359   3.548 -0.2444 -0.2636  0.0815
 9141W        W 9141   1.919   8.404   4.305  0.2549 -0.0854 -0.1668
 9142W        W 9142   9.629   2.143   0.885 -0.2443  0.1507  0.0817
 9143W        W 9143   1.041   0.518   1.165 -0.2251  0.0387 -0.0724
 9144W        W 9144   1.130   7.036   6.087 -0.0526 -0.0340 -0.0528
 9145W        W 9145   7.527   3.885   4.389 -0.0706  0.3434  0.1597
 9146W        W 9146   0.922   0.669   9.104 -0.0480  0.3411 -0.0705
 9147W        W 9147   9.469   5.692   3.065 -0.1682 -0.0139 -0.3031
 9148W        W 9148   0.394   9.924   5.943  0.0648 -0.1529 -0.0511
 9149W        W 9149   1.083   1.056   4.123  0.0656 -0.2930  0.5416
 9150W        W 9150   4.520   1.923   5.345 -0.0206  0.1011  0.1229
 9151W        W 9151  10.281   2.146   3.372 -0.3196 -0.0030 -0.1137
 9152W        W 9152   0.180   6.278   0.406 -0.2820  0.1179  0.1231
 9153W        W 9153   0.877  10.204   7.728  0.1068  0.1055  0.1404
 9154W        W 9154   9.513   1.982   0.084  0.2678 -0.0414 -0.0840
 9155W        W 9155   3.786  10.138   3.687 -0.1518 -0.3474  0.0997
 9156W        W 9156   0.612   3.213   9.555 -0.4091  0.1448 -0.1795
 9157W        W 9157   4.811   2.315   6.513 -0.2443 -0.0734 -0.0190
 9158W        W 9158   9.129   9.181   7.548 -0.1662 -0.2455  0.0279
 9159W        W 9159   6.401   3.560   8.209  0.1398  0.2004 -0.0026
 9160W        W 9160   0.892   9.463   2.674 -0.0706  0.2331 -0.1025
 9161W        W 9161   5.922   2.094   5.185  0.2275  0.0813  0.2463
 9162W        W 9162   4.157   1.060   4.530  0.1272  0.0064  0.1159
 9163W        W 9163   1.469   3.951   2.817  0.1351  0.1074 -0.0819
 9164W        W 9164   2.491   5.943   7.658 -0.1995  0.0541 -0.0546
 9165W        W 9165   8.783   6.032   8.043 -0.4167 -0.0424  0.1620
 9166W        W 9166   4.167   3.618   2.708 -0.2662 -0.0377  0.0133
 9167W        W 9167   5.028   4.713   7.106  0.2131  0.4764 -0.1374
 9168W        W 9168   3.515   7.366   5.381  0.1239 -0.1578  0.1037
 9169W        W 9169   8.035   3.609   5.006  0.1033 -0.0031 -0.0410
 9170W        W 9170   2.001   9.950   4.843 -0.0537  0.2794  0.1970
 9171W        W 9171   3.358   5.995   7.373 -0.1554  0.0160 -0.1712
 9172W        W 9172   6.620   3.913   9.911  0.1178  0.0220 -0.0544
 9173W        W 9173   4.191   7.172   3.436  0.0602  0.2942  0.3159
 9174W        W 9174   9.363   7.880   0.850 -0.2227 -0.1059  0.1301
 9175W        W 9175   6.083   5.639   3.072 -0.2314 -0.2847 -0.0592
 9176W        W 9176   2.371   2.294   1.786  0.0351  0.0250  0.2589
 9177W        W 9177   0.537   1.207   3.888 -0.4303  0.2542  0.0641
 9178W        W 9178   8.475   7.955   4.467  0.1033 -0.0627 -0.1174
 9179W        W 9179   6.276  10.289   8.184  0.1450  0.0713  0.0409
 9180W        W 9180   0.986   3.446   1.602 -0.1533  0.0220 -0.0321
 9181W        W 9181   6.676   8.956   8.282  0.2745 -0.1313 -0.0443
 9182W        W 9182   4.606   0.014   1.513 -0.0707 -0.0466 -0.0799
 9183W        W 9183   7.769   2.355   6.531 -0.2719 -0.0265  0.0108
 9184W        W 9184   7.517   7.040  10.059  0.0050 -0.0540 -0.2302
 9185W        W 9185   6.962   8.010   4.300  0.0973  0.1751 -0.3769
 9186W        W 9186   2.885  10.263   1.977  0.0281  0.2876  0.0166
 9187W        W 9187   4.462   6.410   7.197  0.0299 -0.3802 -0.0140
 9188W        W 9188   3.838   0.838   5.430 -0.0483  0.0778  0.1546
 9189W        W 9189   1.275   9.466   0.640 -0.0041 -0.0067  0.0704
 9190W        W 9190   3.105   4.078   5.623  0.0936  0.1801 -0.0416
 9191W        W 9191   7.182   5.994   0.016  0.3804 -0.0475  0.2050
 9192W        W 9192   3.365   3.642   8.913  0.2894 -0.0237 -0.4153
 9193W        W 9193   4.195   5.159   0.975  0.2094 -0.1722  0.0537
 9194W        W 9194   0.242   0.900   1.434  0.3351  0.0720 -0.4243
 9195W        W 9195   1.284   8.354   9.529 -0.1675 -0.1543  0.3936
 9196W        W 9196   1.460   0.827   9.090  0.0026 -0.0130 -0.2353
 9197W        W 9197   7.414   9.457   8.037 -0.0321 -0.1877 -0.1562
 9198W        W 9198   5.549   4.047   9.198  0.0141 -0.0742  0.0205
 9199W        W 9199   1.816   2.234   1.087  0.2717  0.0389  0.2366
 9200W        W 9200   9.289   1.162   0.853 -0.0343 -0.1422  0.2967
 9201W        W 9201   3.904   2.422   1.757  0.0568 -0.2161 -0.1173
 9202W        W 9202   0.444   7.998   7.657 -0.2466  0.0110 -0.2214
 9203W        W 9203   7.965   1.204   0.945  0.2214 -0.1298  0.2831
 9204W        W 9204   7.889   3.402   6.229 -0.0869 -0.3442  0.0052
 9205W        W 9205   4.228   7.068   5.741 -0.0881  0.0153 -0.3472
 9206W        W 9206   9.059   2.531   2.913  0.0453  0.0675  0.1004
 9207W        W 9207   5.549   2.316   3.055  0.0201 -0.0833  0.2145
 9208W        W 9208   1.375  10.174   2.337 -0.0483 -0.0695  0.0679
 9209W        W 9209   8.410   3.729   7.235 -0.0498 -0.1689  0.0190
 9210W        W 9210   5.427   1.604   3.513 -0.1477  0.0054 -0.1970
 9211W        W 9211   2.330   0.868   0.183 -0.2549  0.0678  0.0737
 9212W        W 9212   3.674   1.656   7.467 -0.1301  0.3686 -0.4232
 9213W        W 9213   0.320  10.084   5.480 -0.4169  0.0784 -0.0064
 9214W        W 9214   0.863   3.923   0.270 -0.0783 -0.1268 -0.0632
 9215W        W 9215   8.786   0.688   0.759 -0.3407 -0.0532  0.0338
 9216W        W 9216   3.408   1.267   7.773  0.0744  0.0373  0.1241
 9217W        W 9217   8.611   7.342   9.412  0.1278  0.0153  0.0434
 9218W        W 9218   4.557   5.880   5.658  0.1090 -0.0580 -0.1823
 9219W        W 9219   6.146   7.863   7.745 -0.1547  0.2272 -0.2003
 9220W        W 9220   3.570   0.999   5.819 -0.2972  0.0910  0.1493
 9221W        W 9221   1.598   2.515   2.732  0.2992 -0.0563  0.2377
 9222W        W 9222   1.515   4.656   5.921  0.0929 -0.0082 -0.0569
 9223W        W 9223   8.003   4.171   7.419 -0.1399 -0.2534  0.0005
 9224W        W 9224   9.276   1.292   7.521 -0.2972  0.0679 -0.1627
 9225W        W 9225   1.861   9.013   5.751  0.1160  0.2279  0.1617
 9226W        W 9226   8.217   1.620   3.778  0.1305  0.0095 -0.1214
 9227W        W 9227   0.600   9.170   2.391 -0.2650  0.0010  0.0296
 9228W        W 9228   8.443   5.105   9.440  0.1877 -0.0375 -0.0030
 9229W        W 9229   1.002   4.064   1.608 -0.0571  0.1469 -0.2738
 9230W        W 9230   8.240   7.870  10.022  0.2467  0.0698  0.0287
 9231W        W 9231   6.953   8.308   6.734 -0.0665  0.1786  0.4848
 9232W        W 9232   7.261   5.853   2.486 -0.2761 -0.1627  0.0354
 9233W        W 9233   5.493   1.896   7.424  0.3325 -0.0848 -0.0738
 9234W        W 9234   5.384   5.497   5.971 -0.1283  0.1873  0.1487
 9235W        W 9235   5.567   0.346   4.938  0.3374 -0.1068 -0.0022
 9236W        W 9236   5.120   1.556   4.965 -0.0577 -0.0255 -0.0569
 9237W        W 9237   4.291   4.763   9.779 -0.2563  0.0568 -0.0347
 9238W        W 9238   8.892   1.560   7.856  0.1096  0.0882 -0.0147
 9239W        W 9239   4.977   0.518   4.958  0.4511  0.1642 -0.1120
 9240W        W 9240   6.134   4.964   2.385  0.0158 -0.2762 -0.0220
 9241W        W 9241   2.387   1.815   3.140 -0.3086 -0.1665 -0.1397
 9242W        W 9242   9.922   8.642   8.414 -0.0213  0.1569 -0.0259
 9243W        W 9243   8.449   6.783   2.923  0.0782 -0.2666  0.0485
 9244W        W 9244   9.783   3.586   4.967  0.1582  0.3639 -0.1343
 9245W        W 9245   4.425   1.592   2.797  0.2292  0.1096 -0.2200
 9246W        W 9246   2.803   7.981   4.742  0.1836  0.0604  0.3552
 9247W        W 9247   4.219   5.330   3.317  0.0343 -0.0916 -0.2955
 9248W        W 9248   6.217   9.263  10.066 -0.1858 -0.0934  0.1963
 9249W        W 9249   8.427   5.750   0.685 -0.0472  0.3244  0.2572
 9250W        W 9250   3.142   9.108   6.812  0.0567 -0.0478 -0.2613
 9251W        W 9251   2.703   7.616   3.220 -0.1494  0.0668  0.3503
 9252W        W 9252   8.459   6.357   0.987  0.1370  0.2560 -0.0360
 9253W        W 9253   7.512   6.670   9.165  0.1228  0.0648  0.1068
 9254W        W 9254   2.942   0.467   1.865 -0.0866  0.0855 -0.0284
 9255W        W 9255   0.418   1.211   6.711 -0.2949 -0.0899 -0.0277
 9256W        W 9256   6.155   6.085   6.725  0.1138  0.1059  0.0184
 9257W        W 9257   5.446   3.889   0.957  0.3597 -0.0136  0.1831
 9258W        W 9258   9.901   5.980   2.784 -0.0558  0.1039 -0.3056
 9259W        W 9259   0.680   5.733   9.504  0.0068  0.2857  0.1326
 9260W        W 9260   6.972   6.981   8.744 -0.2699  0.0677 -0.3312
 9261W        W 9261   6.723  10.252   4.177  0.0375 -0.2359  0.1255
 9262W        W 9262   0.444   2.836   8.699 -0.0333  0.1741 -0.2037
 9263W        W 9263   7.995   2.073   7.057 -0.0188 -0.0710 -0.0578
 9264W        W 9264   0.748   3.477   4.067  0.0819 -0.1532 -0.0709
 9265W        W 9265   4.239   4.137   2.369 -0.4089  0.1136 -0.0342
 9266W        W 9266   6.608   8.220   8.114  0.0373 -0.1693 -0.0675
 9267W        W 9267   2.449   3.355   7.707  0.0551 -0.0727  0.1463
 9268W        W 9268   0.732   2.324   3.023 -0.0569  0.1116  0.1967
 9269W        W 9269   8.822   3.585   5.771  0.0645  0.0370  0.1364
 9270W        W 9270   3.011   7.287   3.561 -0.0527  0.0762  0.0311
 9271W        W 9271   7.671   0.201   1.661 -0.0655  0.0960  0.1382
 9272W        W 9272   8.283   7.928   6.559 -0.0056  0.0776  0.0651
 9273W        W 9273  10.093   2.824   9.469 -0.2183  0.0304  0.0664
 9274W        W 9274   7.225   8.629   7.540  0.0529  0.0167 -0.2893
 9275W        W 9275   4.382   7.228   7.099 -0.0097 -0.1709  0.1870
 9276W        W 9276   2.828   3.765   9.401  0.1765 -0.2527  0.1381
 9277W        W 9277   0.419  10.326   6.848 -0.2650  0.1839  0.0035
 9278W        W 9278   5.328   3.061   5.796  0.1235  0.1379  0.0471
 9279W        W 9279   0.336   0.396  10.056  0.3813  0.2222  0.0141
 9280W        W 9280   0.777   4.080   8.921 -0.1972  0.2062 -0.1257
 9281W        W 9281   1.277   8.810   6.891 -0.4560 -0.0559  0.3033
 9282W        W 9282   1.473   5.062   6.148  0.1555 -0.1196 -0.0803
 9283W        W 9283   2.475   0.312   5.066  0.0131 -0.0545  0.0049
 9284W        W 9284   6.974   3.951  10.336  0.0066  0.1766  0.1144
 9285W        W 9285   1.670   9.129   9.230 -0.0909  0.0964  0.3968
 9286W        W 9286   4.837   8.276   3.662  0.0981  0.0556  0.0389
 9287W        W 9287   8.721   5.949   7.545  0.0246 -0.0896  0.1188
 9288W        W 9288   2.477   6.212   9.133  0.0500 -0.0604  0.0452
 9289W        W 9289   8.428  10.284   4.278 -0.3753 -0.1426 -0.1527
 9290W        W 9290   0.408   7.141   9.137 -0.1798  0.1419 -0.1254
 9291W        W 9291   9.979   7.399   3.591  0.2935  0.0500  0.0261
 9292W        W 9292   1.893   1.115   6.146 -0.0744 -0.0363 -0.1599
 9293W        W 9293   1.444   3.953   4.583 -0.1230  0.1374 -0.0577
 9294W        W 9294   7.978   5.192   0.977 -0.0132 -0.0187  0.1793
 9295W        W 9295   1.246   2.452   6.580  0.0900  0.0601  0.0630
 9296W        W 9296   0.984   2.084   8.230 -0.1297  0.1741  0.4262
 9297W        W 9297   6.669   5.013   7.982 -0.2223 -0.0337  0.2342
 9298W        W 9298   5.931   8.241   1.928 -0.0864  0.2738 -0.0658
 9299W        W 9299   0.013   3.612   8.711  0.0648  0.3178 -0.4651
 9300W        W 9300   2.932   1.073   4.612 -0.0159 -0.1471  0.1040
 9301W        W 9301   1.800   8.543   4.753 -0.0921 -0.0261 -0.2942
 9302W        W 9302   9.209   3.936   4.583 -0.2361  0.2510  0.0286
 9303W        W 9303   9.613   7.569   0.526  0.1813 -0.0706  0.1821
 9304W        W 9304   3.886   0.991   9.985  0.0827 -0.3434  0.2989
 9305W        W 9305   6.546   2.905   6.699  0.0315  0.1977 -0.0580
 9306W        W 9306   9.118   1.420   1.295 -0.0995  0.1843 -0.2943
 9307W        W 9307   2.544   0.059   7.079  0.2753 -0.1183  0.2884
 9308W        W 9308   3.270   8.057   5.515  0.1665 -0.2058 -0.3123
 9309W        W 9309   5.971   4.781   3.876 -0.2920 -0.0260  0.0109
 9310W        W 9310   5.717   3.010   5.028 -0.0671 -0.2035 -0.1153
 9311W        W 9311   0.001   1.174   8.927  0.1051  0.0556  0.2893
 9312W        W 9312   3.073   4.769   2.952  0.0049 -0.1330  0.4020
 9313W        W 9313   5.377   1.973   5.993 -0.3761  0.1585 -0.1754
 9314W        W 9314   5.596   5.891   1.315  0.2849  0.2350 -0.1490
 9315W        W 9315   8.121   4.125   0.916 -0.3403  0.1041 -0.0914
 9316W        W 9316   0.227   7.626   0.425  0.1210 -0.2239 -0.3518
 9317W        W 9317   3.932   5.901   0.348  0.2661  0.1190 -0.3697
 9318W        W 9318   7.556   9.448   5.246  0.0110 -0.0156  0.1933
 9319W        W 9319   6.167  10.335   2.551  0.0516 -0.1643  0.3230
 9320W        W 9320   0.576   2.746   9.910  0.2276  0.2372  0.0461
 9321W        W 9321   9.802   2.731   5.983 -0.0898  0.3492  0.0625
 9322W        W 9322   2.533   1.075  10.091  0.1044  0.1928  0.3614
 9323W        W 9323   4.185   7.806   2.395  0.0019  0.0992  0.1372
 9324W        W 9324   0.656   2.263   7.390 -0.1430 -0.2347  0.1106
 9325W        W 9325   1.526   0.993  10.179 -0.1095  0.1126  0.4807
 9326W        W 9326   3.112   1.919   4.104 -0.2362  0.0611 -0.2622
 9327W        W 9327   4.237   7.176   2.852 -0.1800  0.3809  0.2505
 9328W        W 9328   2.653   7.837   6.042 -0.3519  0.1202 -0.3323
 9329W        W 9329   7.802   1.245   1.443  0.2302 -0.3439 -0.0932
 9330W        W 9330   0.697   7.630   8.336 -0.1106  0.0466 -0.2041
 9331W        W 9331   0.661   7.791   5.058 -0.3067 -0.0667 -0.0245
 9332W        W 9332   3.806   5.458   3.639  0.1670 -0.1647 -0.0638
 9333W        W 9333   0.763   8.651   2.509 -0.1258 -0.0831  0.1827
 9334W        W 9334   1.751   3.700   9.810 -0.2528 -0.0034 -0.0153
 9335W        W 9335   5.879   8.511   8.972  0.2714  0.2747 -0.1648
 9336W        W 9336   0.894   7.863  10.128  0.5314 -0.0830  0.0176
 9337W        W 9337   5.069   0.898   4.617  0.0823  0.2948 -0.0217
 9338W        W 9338   9.941   8.324   1.477  0.1252  0.2591  0.1410
 9339W        W 9339   9.900   0.043   2.391  0.1321  0.1503 -0.0761
 9340W        W 9340   0.200   0.822   3.924 -0.0726 -0.1111  0.0426
 9341W        W 9341   7.314   3.117  10.209  0.1995  0.0943  0.2035
 9342W        W 9342   0.030   0.599  10.333 -0.1577 -0.0077 -0.0575
 9343W        W 9343   0.728   3.198   0.138  0.2982  0.0189 -0.4337
 9344W        W 9344   8.124   0.380   0.793  0.0022  0.0879 -0.1949
 9345W        W 9345   4.244  10.008   0.723  0.0609  0.0443 -0.2666
 9346W        W 9346   3.037   8.470   0.179 -0.2536  0.1057 -0.1241
 9347W        W 9347   9.432   4.342   5.106 -0.1936 -0.1586  0.5352
 9348W        W 9348   7.315   5.108   6.868  0.1964  0.0280 -0.1803
 9349W        W 9349   7.135   8.540   4.367  0.1275  0.1973  0.2563
 9350W        W 9350   1.426   8.869   4.781  0.1577  0.1149  0.0903
 9351W        W 9351   2.077   6.741   8.705  0.2926  0.0928 -0.0772
 9352W        W 9352   5.358   8.084   1.555 -0.0418 -0.2378  0.1072
 9353W        W 9353   9.372   5.309   9.099 -0.0098  0.0490  0.0262
 9354W        W 9354   6.386   1.907   2.196 -0.0934  0.1163  0.0553
 9355W        W 9355   6.132   4.189   9.898  0.3514  0.1216  0.0950
 9356W        W 9356   6.756   4.449   0.973  0.2113  0.1497  0.1862
 9357W        W 9357   2.632   7.304   2.767 -0.0821 -0.0993 -0.0060
 9358W        W 9358   2.939   2.494   1.592  0.0150 -0.2408  0.0554
 9359W        W 9359   9.471   6.130   3.673 -0.1185  0.0600 -0.0672
 9360W        W 9360   9.540   9.885   6.971  0.0036 -0.0448 -0.2511
 9361W        W 9361   6.501   1.742   6.838  0.1247 -0.1482  0.1002
 9362W        W 9362   9.139   8.091   7.098  0.0015  0.1713  0.0181
 9363W        W 9363   8.687   5.743   1.649  0.1325 -0.0771  0.0192
 9364W        W 9364   1.808  10.128   0.478  0.0589 -0.1016  0.0216
 9365W        W 9365   2.476   6.448   3.726  0.4054  0.0804  0.2572
 9366W        W 9366   0.334   7.401   5.952 -0.0146  0.1052  0.0492
 9367W        W 9367   5.679   2.134  10.286  0.0998  0.0353 -0.1786
 9368W        W 9368   1.187  10.119   5.427  0.2363 -0.4211  0.1027
 9369W        W 9369   4.351   0.652   3.475  0.2857  0.1783  0.1489
 9370W        W 9370   1.368   3.457   3.142 -0.0858 -0.0592 -0.3043
 9371W        W 9371   2.691   6.555   7.192  0.1739 -0.2000  0.0484
 9372W        W 9372   2.787  10.213   0.944 -0.0096  0.0043 -0.1459
 9373W        W 9373   4.833   6.354   5.863  0.0125  0.1980 -0.0527
 9374W        W 9374   6.965   5.990   2.848  0.2611 -0.1030 -0.0091
 9375W        W 9375   0.345   6.158   1.485  0.0995  0.2113 -0.0296
 9376W        W 9376   9.604   0.717   3.443 -0.1671 -0.0791  0.1383
 9377W        W 9377   7.649   6.258   9.023  0.0155 -0.4096  0.4047
 9378W        W 9378   1.024   3.958   4.282  0.2544 -0.2764  0.2834
 9379W        W 9379   6.215   7.848   3.323 -0.0146 -0.2705 -0.0211
 9380W        W 9380   3.276   7.525   0.578  0.0212 -0.0106 -0.2076
 9381W        W 9381   7.001   3.419   2.826  0.1414  0.3029 -0.1159
 9382W        W 9382   0.449   0.936   9.269 -0.1423 -0.2836  0.1438
 9383W        W 9383   0.971   5.747   6.071 -0.3683  0.0547  0.1192
 9384W        W 9384   3.125   7.820   1.233  0.0666  0.2061 -0.1916
 9385W        W 9385   6.410   4.960   8.445  0.2930  0.1240 -0.2298
 9386W        W 9386   4.559   8.350   4.746 -0.0864 -0.6225 -0.0461
 9387W        W 9387   4.593   9.165   7.375 -0.1545 -0.1466 -0.2054
 9388W        W 9388   7.011   5.858   7.314 -0.1636 -0.0632 -0.1803
 9389W        W 9389   9.133   8.583   7.294  0.2010  0.1054 -0.0124
 9390W        W 9390   0.832   0.784   7.427  0.1183  0.0053 -0.0043
 9391W        W 9391  10.064   6.471   1.008 -0.2172  0.1942 -0.2977
 9392W        W 9392   4.574   7.359   3.169 -0.1671 -0.0066 -0.0619
 9393W        W 9393   0.228   0.565   9.581 -0.1725  0.2340  0.1470
 9394W        W 9394   2.329   8.484   3.235  0.0082  0.2827 -0.1383
 9395W        W 9395   2.666   1.920   8.887  0.0934  0.0469  0.0618
 9396W        W 9396   7.174   2.719   7.553  0.0374  0.0358 -0.0877
 9397W        W 9397   8.342   8.309   1.172  0.0523 -0.0966  0.1303
 9398W        W 9398   6.540   6.065   8.231  0.2434  0.2564  0.1400
 9399W        W 9399   7.592   5.984   1.071 -0.1703  0.1390  0.0822
 9400W        W 9400   3.046   4.293   0.672  0.0362 -0.0709 -0.1070
 9401W        W 9401   2.985   4.253   9.349 -0.0492 -0.2649  0.1325
 9402W        W 9402   4.022   7.534   5.576 -0.0824 -0.1782 -0.2293
 9403W        W 9403   2.433   6.714   0.268 -0.1323 -0.2042 -0.1608
 9404W        W 9404   0.196   8.398   5.124 -0.3019  0.3547 -0.1484
 9405W        W 9405   4.819   8.949   2.386 -0.0209  0.0630 -0.0652
 9406W        W 9406   9.842   9.941   5.145  0.3168 -0.2282 -0.2963
 9407W        W 9407   2.053   4.628   7.264 -0.2330  0.1698  0.1086
 9408W        W 9408   4.148   1.325  10.242  0.0711 -0.3003 -0.1901
 9409W        W 9409   3.864   3.235   6.835 -0.0485  0.0442  0.0837
 9410W        W 9410   4.082   0.057   7.901 -0.3761 -0.0844  0.1279
 9411W        W 9411   7.458   5.697   7.477  0.0197  0.0369 -0.4151
 9412W        W 9412   6.634   5.633   2.931  0.2189  0.0321 -0.0601
 9413W        W 9413   6.750   9.896   9.513 -0.0725 -0.0027 -0.0043
 9414W        W 9414   7.455   7.256   3.933  0.0057 -0.0307  0.2462
 9415W        W 9415   1.205   3.023   8.257  0.0922  0.0327  0.5814
 9416W        W 9416   2.110   2.298   2.322  0.0671 -0.0264  0.0478
 9417W        W 9417   8.390   7.958   5.026 -0.0298 -0.3151  0.3675
 9418W        W 9418   2.931   5.897   5.516  0.0345  0.4464 -0.1539
 9419W        W 9419   1.093   7.374   8.134  0.1994 -0.0623  0.3508
 9420W        W 9420   7.822   4.003   6.110  0.0936 -0.1363 -0.4849
 9421W        W 9421   5.731   1.461   9.178 -0.0706 -0.0583  0.0710
 9422W        W 9422   8.748   7.298   6.239  0.1833  0.1184 -0.0319
 9423W        W 9423   0.266   2.692   1.483 -0.0083 -0.2936 -0.0588
 9424W        W 9424   0.773   2.156   6.536 -0.0460  0.0951  0.0290
 9425W        W 9425   1.034   9.315   6.247 -0.0719  0.0412 -0.0128
 9426W        W 9426   1.373   7.964   7.713  0.1068 -0.1514  0.0396
 9427W        W 9427   9.731   6.455   7.061 -0.1915  0.0014 -0.3194
 9428W        W 9428   6.700   5.087   2.688  0.0085 -0.0882  0.2344
 9429W        W 9429   9.247   2.755   6.559  0.0473 -0.2120 -0.0011
 9430W        W 9430   9.447   1.825   5.624  0.0529 -0.0956 -0.1169
 9431W        W 9431   5.613   2.412   8.601  0.3368  0.1996  0.0854
 9432W        W 9432   9.408   0.214   0.978 -0.1016  0.0669 -0.2300
 9433W        W 9433   9.051   2.391   8.280  0.0921 -0.0321 -0.1202
 9434W        W 9434   7.338   7.306   8.478  0.2431 -0.0270 -0.1020
 9435W        W 9435   4.564   0.256   5.871  0.2266  0.0279 -0.1761
 9436W        W 9436   6.856   2.876   5.838  0.3472 -0.1370  0.0408
 9437W        W 9437   8.665   3.205   5.469  0.1217  0.2362 -0.2758
 9438W        W 9438   1.588   0.314   6.476 -0.1886  0.3166  0.2021
 9439W        W 9439  10.293   5.321   7.662  0.1431 -0.2191  0.0970
 9440W        W 9440   4.982   2.494   3.485  0.0475  0.3047  0.1541
 9441W        W 9441   8.480   9.361   1.929  0.1153 -0.1518 -0.1791
 9442W        W 9442   2.578   3.330   9.393 -0.1377 -0.0542  0.3224
 9443W        W 9443   4.912   2.409   2.391  0.2670 -0.2117  0.0664
 9444W        W 9444   1.225   3.709   1.256  0.0903 -0.1561  0.0530
 9445W        W 9445   3.037   8.101  10.238  0.0123  0.1074  0.3216
 9446W        W 9446   1.806   2.328   9.812  0.3104  0.2024  0.1383
 9447W        W 9447   5.385   7.298   9.111  0.1030 -0.1861  0.2213
 9448W        W 9448   1.945   2.659   7.060 -0.1522 -0.0032 -0.3559
 9449W        W 9449   7.789   8.250   8.227  0.1269 -0.0881 -0.0835
 9450W        W 9450   0.698   5.579   9.986  0.0568  0.2988 -0.2932
 9451W        W 9451   8.091   9.895   2.053  0.1358 -0.0804  0.0779
 9452W        W 9452   4.605   4.670   4.897 -0.1924  0.0817 -0.2246
 9453W        W 9453   0.091   7.391   2.782 -0.1053 -0.2589  0.1740
 9454W        W 9454   1.469   8.456   7.671  0.3493  0.0088  0.1428
 9455W        W 9455   9.002   0.900   8.439 -0.0184 -0.0521  0.1262
 9456W        W 9456   2.456   7.955   5.107 -0.0403  0.0433  0.4261
 9457W        W 9457   1.366   4.098   0.614  0.0275  0.1665  0.0803
 9458W        W 9458   1.289   3.972   6.283  0.0825 -0.2854  0.2682
 9459W        W 9459   2.567   2.262   8.472  0.0582  0.1009 -0.1544
 9460W        W 9460   9.936   3.415  10.000 -0.0524 -0.0922 -0.1739
 9461W        W 9461   4.698   7.388   9.659 -0.1400  0.1415  0.1636
 9462W        W 9462   1.851   8.311   9.657 -0.1053  0.1984 -0.0889
 9463W        W 9463   8.789   2.945   6.242 -0.0639  0.0677  0.1459
 9464W        W 9464   7.122   3.472   6.413 -0.0226 -0.0241 -0.0301
 9465W        W 9465   3.629   7.915   1.310  0.1018  0.1115 -0.2133
 9466W        W 9466   1.921   3.192   2.880 -0.3339  0.2650  0.0580
 9467W        W 9467   1.870   7.007   6.938 -0.1017 -0.1707  0.2530
 9468W        W 9468   9.224   0.891   4.107 -0.1619  0.1130 -0.0625
 9469W        W 9469   1.023   0.128   9.196  0.0895  0.1730 -0.2001
 9470W        W 9470   5.904   0.856   4.639  0.4346 -0.0287 -0.1178
 9471W        W 9471   7.370   3.944   8.404 -0.1904  0.2633  0.3610
 9472W        W 9472   6.160   2.352   8.780 -0.2025  0.3380  0.3467
 9473W        W 9473   7.502   9.846   0.818 -0.0270  0.1075 -0.0212
 9474W        W 9474   1.560   6.006   4.143 -0.1780 -0.1316  0.0958
 9475W        W 9475   8.831   5.059   0.050 -0.1024 -0.0551  0.1426
 9476W        W 9476   5.885   4.288   5.108 -0.1358 -0.0640  0.1907
 9477W        W 9477   1.734   1.131   8.795  0.1878 -0.2374 -0.0978
 9478W        W 9478   6.035  10.295   5.076 -0.0465  0.1166  0.2089
 9479W        W 9479   5.785   7.827   4.081  0.0115 -0.1601 -0.0697
 9480W        W 9480   0.804   3.594  10.223  0.0565  0.0981  0.1553
 9481W        W 9481   6.639   3.449   4.170  0.1048  0.1787  0.1035
 9482W        W 9482   8.040   3.698   9.926  0.0284  0.1060 -0.2039
 9483W        W 9483   9.432   1.420   6.547 -0.1210  0.1089 -0.3692
 9484W        W 9484   5.406   5.771   5.555  0.1933  0.1198  0.0596
 9485W        W 9485   1.276   8.481   2.426 -0.1376  0.2418  0.0200
 9486W        W 9486   6.053   6.733   5.377  0.0033  0.1113  0.1611
 9487W        W 9487   7.608   6.965   5.725  0.1760  0.0343  0.0354
 9488W        W 9488   6.882   6.582   3.134  0.0808  0.2720 -0.1444
 9489W        W 9489   7.863   1.950   2.952 -0.0811  0.0541 -0.0675
 9490W        W 9490   5.616   4.835   1.235  0.0276  0.3331  0.1303
 9491W        W 9491   4.554   5.622   0.255  0.1087  0.3827 -0.0399
 9492W        W 9492   0.230   7.965   3.819  0.0817  0.2107 -0.1879
 9493W        W 9493   5.161   3.841  10.075 -0.1270 -0.1897  0.0286
 9494W        W 9494   5.792   0.005   1.473 -0.2105  0.1026  0.1773
 9495W        W 9495   4.688   5.438   3.366  0.0562 -0.1673  0.0021
 9496W        W 9496   9.121   2.984   3.140  0.2313  0.1149  0.2878
 9497W        W 9497   1.781   2.600   2.084 -0.2758 -0.0969  0.0423
 9498W        W 9498   6.076   3.842   4.693 -0.0982 -0.0252  0.1858
 9499W        W 9499   2.300   8.905   4.644  0.0167 -0.0937 -0.2503
 9500W        W 9500   9.537   2.510   8.879  0.0568 -0.0743  0.3407
 9501W        W 9501   1.699   5.687   5.703  0.1220  0.3073 -0.0860
 9502W        W 9502   8.026   8.530   6.505 -0.0445 -0.0701 -0.1590
 9503W        W 9503   4.559   9.635   0.946 -0.0594  0.0190 -0.0117
 9504W        W 9504   2.076   8.838   3.408  0.0463  0.2679  0.1443
 9505W        W 9505   2.656   7.345   0.267 -0.1633 -0.0050  0.3052
 9506W        W 9506   2.170   0.377   3.656 -0.0927 -0.0002  0.0008
 9507W        W 9507   6.422   5.603   1.737  0.1442  0.2417 -0.1187
 9508W        W 9508   5.477   8.000   5.637 -0.3162 -0.0641  0.0806
 9509W        W 9509   0.052   3.924   8.295 -0.0537 -0.0067  0.0141
 9510W        W 9510   2.294  10.265   9.241 -0.3928 -0.0313 -0.1258
 9511W        W 9511   7.983   3.042   8.677  0.1782  0.4797  0.2657
 9512W        W 9512   6.861   5.136  10.330 -0.2699  0.3567  0.1482
 9513W        W 9513   7.585   2.034   8.082  0.0200  0.0161  0.1292
 9514W        W 9514   8.142   2.837   3.656 -0.0641 -0.2521  0.2262
 9515W        W 9515   0.739   5.728   7.065 -0.0604 -0.1534 -0.0193
 9516W        W 9516   0.025   1.230   7.066 -0.0164 -0.0149 -0.0084
 9517W        W 9517   0.810   9.522   6.759 -0.0514  0.1773  0.1164
 9518W        W 9518   9.051   5.007   6.186 -0.1394 -0.2456  0.0931
 9519W        W 9519   8.009   1.976   3.404  0.3840 -0.0382 -0.2029
 9520W        W 9520   2.493   0.378   2.054  0.0277 -0.1013 -0.0449
 9521W        W 9521   5.315  10.146   3.452  0.0356 -0.0148  0.1185
 9522W        W 9522   2.593   0.175   2.864 -0.1107 -0.0002 -0.0366
 9523W        W 9523   1.411   5.166   4.297 -0.2555 -0.3020  0.0316
 9524W        W 9524   0.358   7.075   9.652 -0.2090 -0.0151 -0.1898
 9525W        W 9525   7.614  10.090   7.009 -0.1288 -0.0948  0.2494
 9526W        W 9526   7.523   2.056   6.907 -0.0399 -0.1629 -0.1838
 9527W        W 9527   0.576   0.531   6.966  0.1871  0.3722 -0.2424
 9528W        W 9528   6.082   7.343   0.103 -0.3088  0.2928 -0.1019
 9529W        W 9529   6.382   8.303   3.105  0.1096 -0.0319 -0.2359
 9530W        W 9530   8.254  10.052   5.989 -0.1986  0.1163 -0.3050
 9531W        W 9531   0.828   8.832   5.254 -0.1355 -0.3792 -0.6154
 9532W        W 9532   1.589   4.841   4.575  0.1693  0.1601  0.0435
 9533W        W 9533   2.880   8.209   1.085 -0.0319 -0.0321  0.1273
 9534W        W 9534   9.909   7.944  10.304  0.0121 -0.3646 -0.0882
 9535W        W 9535   0.007   0.461   0.478  0.0740 -0.1032 -0.1551
 9536W        W 9536   9.793   4.575   0.218 -0.4053  0.1534  0.2032
 9537W        W 9537  10.138   1.714   2.850 -0.0505 -0.1481 -0.0568
 9538W        W 9538   0.155   4.785   8.900  0.3730 -0.2408  0.1504
 9539W        W 9539   4.134   8.312   6.126  0.2957  0.1928  0.2263
 9540W        W 9540   1.006   2.658   4.771  0.1040  0.2802  0.2400
 9541W        W 9541   2.332   6.946   1.689  0.2449 -0.0514  0.2002
 9542W        W 9542   4.340   5.061   5.860 -0.0872 -0.0092 -0.1559
 9543W        W 9543   9.596   6.543   4.961 -0.2004  0.5482  0.1366
 9544W        W 9544   5.677   2.306   4.011 -0.1283 -0.4079  0.0319
 9545W        W 9545   4.272   9.450   8.777  0.1803 -0.0334  0.0927
 9546W        W 9546   8.123   4.593   7.795  0.0895  0.0004  0.2042
 9547W        W 9547   0.257   3.611   9.638  0.0177 -0.1237 -0.1495
 9548W        W 9548   4.042   4.147   7.064 -0.2393  0.1031 -0.1953
 9549W        W 9549   9.669  10.251   2.850  0.2552  0.0546 -0.0559
 9550W        W 9550   1.391   3.411   7.398 -0.4276  0.2525  0.0488
 9551W        W 9551   9.912   5.630   3.330  0.1061 -0.0636  0.2567
 9552W        W 9552   0.114   3.201   1.563 -0.2099 -0.0049  0.2741
 9553W        W 9553   3.620   6.608   8.688  0.0682 -0.0117  0.2249
 9554W        W 9554   6.026   7.118   1.295  0.0774  0.1303  0.0478
 9555W        W 9555   3.646   8.931   3.878  0.0800  0.0816 -0.0824
 9556W        W 9556   5.367   9.663   1.816  0.2804  0.1694  0.3521
 9557W        W 9557   6.754   9.600   7.987  0.0808  0.0477  0.1887
 9558W        W 9558   4.003   4.381   1.416  0.0559  0.0052 -0.2446
 9559W        W 9559   6.996  10.146   3.787 -0.3823  0.1694  0.0022
 9560W        W 9560   8.682   4.902   3.906  0.0645  0.1104 -0.0070
 9561W        W 9561   4.636   3.449   2.909 -0.0305 -0.2495  0.1675
 9562W        W 9562   0.995   1.115   8.236 -0.1833 -0.3414 -0.0403
 9563W        W 9563   6.842   7.850   6.571 -0.2229 -0.0126  0.0272
 9564W        W 9564   6.388   0.178   5.798 -0.2472 -0.1721  0.0487
 9565W        W 9565   1.934   7.199   5.254 -0.1022  0.2534 -0.3692
 9566W        W 9566   5.613  10.017   9.622 -0.0303  0.1142 -0.0268
 9567W        W 9567   3.137   1.257   0.251 -0.1975 -0.0753 -0.3016
 9568W        W 9568   4.075   9.483   0.875  0.1972 -0.3462  0.1848
 9569W        W 9569   4.607   8.187   5.918 -0.1302 -0.1716 -0.1190
 9570W        W 9570   2.789   1.417   3.249 -0.0866 -0.2660 -0.1906
 9571W        W 9571   4.706   1.241   4.543 -0.0361 -0.1111 -0.2206
 9572W        W 9572   6.682   1.946   0.094 -0.2003 -0.0620  0.0636
 9573W        W 9573   0.264   2.962   0.086  0.1380  0.1313  0.0830
 9574W        W 9574   6.919   6.425   1.477 -0.3941  0.0063  0.2566
 9575W        W 9575   0.934   6.954   2.029  0.0546  0.3542 -0.2138
 9576W        W 9576   1.632   5.428   6.571 -0.1367  0.2859 -0.2081
 9577W        W 9577   8.348   8.467   4.730  0.3089  0.2501  0.1638
 9578W        W 9578   8.566   5.602   2.468 -0.1381  0.1418 -0.1774
 9579W        W 9579   4.228   4.570   1.868  0.2153  0.0900 -0.2471
 9580W        W 9580   3.941   2.564   6.260  0.1999  0.3452  0.4080
 9581W        W 9581   3.018   8.995   8.939 -0.0502  0.2042  0.2054
 9582W        W 9582   2.875   0.818   8.979 -0.1043 -0.2092 -0.0701
 9583W        W 9583   4.025   0.071   8.696  0.0216  0.0869 -0.2414
 9584W        W 9584   0.529   2.976   0.551 -0.0998 -0.4171 -0.0417
 9585W        W 9585   5.553   3.647  10.333  0.2308  0.4078 -0.0055
 9586W        W 9586   1.118   6.039   6.932 -0.0391 -0.1994 -0.0757
 9587W        W 9587   7.555   6.363   8.065  0.0735 -0.2792 -0.0370
 9588W        W 9588   2.031   7.647   8.340  0.0241  0.0041 -0.0046
 9589W        W 9589   2.247   4.506   0.626 -0.1805 -0.1746 -0.2400
 9590W        W 9590   0.230   6.001   1.957  0.1881 -0.0127  0.0130
 9591W        W 9591   4.711   4.790   2.726  0.1750  0.3016  0.0796
 9592W        W 9592   8.015   6.074   7.924  0.0160  0.1039  0.2350
 9593W        W 9593   0.589   8.782   3.479 -0.1321  0.0122  0.2106
 9594W        W 9594   5.524   0.462   0.206  0.0105 -0.1600  0.2168
 9595W        W 9595   3.078   9.802   7.702 -0.0925  0.2440  0.0320
 9596W        W 9596   6.039   3.155   9.204  0.0510 -0.0239 -0.1763
 9597W        W 9597   7.235   9.393   4.817  0.1893 -0.0273  0.1976
 9598W        W 9598   0.492   7.268   8.659 -0.1327 -0.1360 -0.0163
 9599W        W 9599   6.418   1.611   8.490 -0.0668  0.0493 -0.0373
 9600W        W 9600   4.723   3.390   4.925  0.0619 -0.2298 -0.4444
 9601W        W 9601  10.298   6.013   5.171 -0.1334  0.3264  0.3115
 9602W        W 9602   1.494   7.377   6.223  0.2181  0.1908 -0.0667
 9603W        W 9603   5.160   3.519   0.217  0.1346 -0.2385 -0.1135
 9604W        W 9604   3.765   2.980   0.962 -0.3267 -0.2459  0.3176
 9605W        W 9605   0.191   0.415   1.591 -0.1742 -0.2432  0.2282
 9606W        W 9606   7.400   0.373   9.926 -0.0475  0.1409  0.0382
 9607W        W 9607   9.229   1.354   9.186  0.0367 -0.2317  0.1646
 9608W        W 9608   7.399   8.977   3.440 -0.3168  0.1747 -0.0889
 9609W        W 9609   2.244   4.405   6.823  0.0148  0.1074 -0.0954
 9610W        W 9610   4.540   2.125   8.026  0.1770  0.3473 -0.0600
 9611W        W 9611   6.719   1.942   8.122  0.1009 -0.0110 -0.1319
 9612W        W 9612   2.345   0.441   9.570 -0.0212  0.2117  0.3084
 9613W        W 9613   8.802   8.636   3.289  0.4899 -0.1165  0.0292
 9614W        W 9614   3.018   5.039   7.018  0.0365 -0.0343  0.1862
 9615W        W 9615   4.586   9.598  10.263 -0.3733 -0.1338 -0.0543
 9616W        W 9616   8.376   7.176   2.532 -0.0789  0.1698 -0.1144
 9617W        W 9617   4.217   4.055   1.872 -0.1359 -0.0696  0.1567
 9618W        W 9618   3.832   6.986   0.047 -0.0751  0.0552 -0.1676
 9619W        W 9619   4.134   2.394   8.300  0.1886  0.0739 -0.7178
 9620W        W 9620   7.363   0.796   4.399 -0.3782 -0.0331  0.0005
 9621W        W 9621   6.197   7.851   4.436  0.1814 -0.0075 -0.1761
 9622W        W 9622   7.805   2.266   4.567 -0.2702 -0.1863 -0.0050
 9623W        W 9623   1.473   3.393   3.710  0.1831  0.1567 -0.1735
 9624W        W 9624   6.852   2.224   4.897  0.0070  0.1908 -0.0336
 9625W        W 9625   3.825   5.450   0.572 -0.0579  0.0624 -0.2012
 9626W        W 9626   9.933   6.808   5.610 -0.3438 -0.1202 -0.1239
 9627W        W 9627   8.229   5.454   1.433 -0.0418 -0.1866  0.0249
 9628W        W 9628   1.971   9.820   2.976  0.0508 -0.0813  0.0432
 9629W        W 9629   5.824   6.059   8.806  0.1137 -0.3627 -0.5111
 9630W        W 9630   6.842   1.924   9.855 -0.3231 -0.2913 -0.1079
 9631W        W 9631   8.133   1.418   2.792 -0.2202  0.1347 -0.1888
 9632W        W 9632   8.234   1.519  10.056  0.1090 -0.0821  0.2327
 9633W        W 9633   8.854   0.418   4.055  0.0970 -0.2351  0.0119
 9634W        W 9634   2.288   9.427   4.989 -0.2865  0.1409 -0.0025
 9635W        W 9635   0.824   0.420   2.614  0.1380  0.0094  0.1451
 9636W        W 9636   5.391   8.547  10.284  0.0191  0.1439 -0.0868
 9637W        W 9637   6.638   2.194   6.410 -0.2466 -0.2199  0.2915
 9638W        W 9638   6.817   0.315   1.114 -0.2140  0.1141  0.0216
 9639W        W 9639   3.073   8.789   6.237  0.1168 -0.0258 -0.2411
 9640W        W 9640   2.931   9.948   6.947  0.0028  0.1278 -0.2357
 9641W        W 9641   4.320  10.070   6.884 -0.0960 -0.0441  0.0072
 9642W        W 9642   7.635   7.037   1.375 -0.1131 -0.0054  0.1113
 9643W        W 9643   5.875   0.154   8.947 -0.0396  0.0053  0.0693
 9644W        W 9644   4.919  10.227  10.242  0.4051  0.0489 -0.3317
 9645W        W 9645   6.548  10.069   7.790 -0.1013  0.1662  0.0285
 9646W        W 9646   4.672   0.732  10.214 -0.0815  0.0237  0.0354
 9647W        W 9647   6.541   3.146   3.702 -0.2835  0.1627 -0.3174
 9648W        W 9648   0.239   4.403  10.002  0.1017  0.0707 -0.0269
 9649W        W 9649   1.942   5.947   9.986 -0.1518 -0.1609 -0.1777
 9650W        W 9650   8.968   9.340   2.782 -0.0053  0.2075 -0.0445
 9651W        W 9651   5.700   0.606   4.066  0.0002 -0.0986 -0.1058
 9652W        W 9652   5.210   5.442   5.127  0.1735  0.3514 -0.0991
 9653W        W 9653   1.743   5.350   5.203 -0.0256 -0.1811  0.0496
 9654W        W 9654   1.954  10.171   2.602  0.0253  0.0308  0.0568
 9655W        W 9655   3.172   0.479   9.597  0.2673 -0.3117 -0.0330
 9656W        W 9656   9.149   4.302   9.222  0.0058  0.1129 -0.2538
 9657W        W 9657   8.630   7.563   2.841 -0.1006 -0.0780  0.1414
 9658W        W 9658   0.640   8.985   1.320  0.0540 -0.0562  0.3334
 9659W        W 9659   8.853   4.232   4.450  0.1626  0.0448  0.1432
 9660W        W 9660   6.689   3.192   6.323 -0.3262  0.2444 -0.1987
 9661W        W 9661   9.137   9.529   4.241 -0.1689  0.0744 -0.1295
 9662W        W 9662   6.867   7.280   6.975 -0.0083 -0.0029  0.2894
 9663W        W 9663   4.088   9.612  10.159  0.0787  0.0905  0.2378
 9664W        W 9664   6.944   2.179   2.218 -0.1790 -0.1051 -0.0369
 9665W        W 9665   8.184   2.684   9.554 -0.2101  0.1794  0.2014
 9666W        W 9666   4.250   0.602   4.497 -0.0085 -0.2129 -0.0036
 9667W        W 9667   2.196   8.649   5.805 -0.1053  0.0528 -0.0246
 9668W        W 9668   1.105   5.409   0.716  0.2293  0.4643 -0.1509
 9669W        W 9669   5.137   5.908   2.660  0.0454 -0.3498 -0.3256
 9670W        W 9670   7.482   7.208   7.593  0.0486  0.3125  0.1300
 9671W        W 9671   9.542   0.511   2.934  0.2003 -0.0701 -0.0316
 9672W        W 9672   6.546   4.310   3.020  0.1170 -0.0651  0.3561
 9673W        W 9673   2.486   5.798   0.224  0.3369  0.1515  0.2382
 9674W        W 9674   4.165   2.658   3.998  0.4039 -0.0343  0.1676
 9675W        W 9675   0.275   6.691   8.033  0.1909  0.1017  0.1562
 9676W        W 9676   8.676   2.927   3.420 -0.0033 -0.2904  0.1515
 9677W        W 9677   0.648   6.906   6.900 -0.2734  0.3701  0.3379
 9678W        W 9678   9.346   7.853   6.036 -0.1614 -0.2002  0.2551
 9679W        W 9679   0.441   0.138   8.017  0.1488  0.1790  0.1414
 9680W        W 9680   9.872   2.590   4.072  0.1691 -0.0714  0.2606
 9681W        W 9681   6.950   4.573   6.194 -0.0898 -0.2235 -0.1309
 9682W        W 9682   6.127   3.015   7.922 -0.1594 -0.0658  0.2346
 9683W        W 9683   9.832   7.957   9.061  0.1897  0.0250  0.0571
 9684W        W 9684   7.179   1.728  10.120  0.1923  0.1994 -0.1514
 9685W        W 9685   8.244   5.875   3.879 -0.1144  0.0632 -0.0721
 9686W        W 9686   6.028   3.322   1.247 -0.1956 -0.3676  0.0596
 9687W        W 9687   0.198   5.241   6.321 -0.1218 -0.0601 -0.1536
 9688W        W 9688   5.338   0.296   2.189 -0.0583  0.0070  0.1174
 9689W        W 9689   8.685   9.208   9.913  0.2759 -0.0430 -0.0928
 9690W        W 9690   8.648   3.658  10.200  0.1663 -0.1866 -0.1157
 9691W        W 9691   2.396   7.843   0.293  0.2542 -0.1142  0.0477
 9692W        W 9692   1.243   9.184   5.110  0.0679  0.2011 -0.1425
 9693W        W 9693   8.269   2.827   3.032 -0.1618  0.1583 -0.2580
 9694W        W 9694   0.422   4.889   4.845  0.0609 -0.2556  0.0528
 9695W        W 9695   4.990   1.111   2.014 -0.2804  0.0777 -0.0741
 9696W        W 9696   3.290  10.156   8.386 -0.3857 -0.0082 -0.1177
 9697W        W 9697   7.938   1.305   2.362  0.0575  0.0129 -0.1765
 9698W        W 9698   8.710   0.477   6.301  0.1056 -0.0807 -0.0462
 9699W        W 9699   4.819   5.470   3.852  0.0944 -0.1067 -0.2397
 9700W        W 9700   2.665   0.605   7.212 -0.3176 -0.1860 -0.1938
 9701W        W 9701   6.971   4.476   9.197  0.3925  0.2975 -0.0100
 9702W        W 9702   3.621   9.753  10.070  0.3256 -0.0076  0.3473
 9703W        W 9703  10.126   4.575   1.488  0.0953  0.2001  0.2118
 9704W        W 9704   1.827   6.285   4.500 -0.0809  0.1785  0.0213
 9705W        W 9705   3.995   3.677   0.505  0.1536  0.0138  0.2102
 9706W        W 9706   4.288   1.240   3.712 -0.2011 -0.0159  0.0734
 9707W        W 9707   6.113   9.349   5.748  0.2538  0.0307 -0.2562
 9708W        W 9708   3.203   1.634   3.268 -0.2064  0.1894 -0.0067
 9709W        W 9709   5.078   3.395  10.059  0.3449 -0.1953 -0.1583
 9710W        W 9710   8.915   8.932   5.325  0.2362  0.0139 -0.2354
 9711W        W 9711   7.735   7.723   4.758  0.1228 -0.0134 -0.1087
 9712W        W 9712   5.797   7.377   1.669  0.2909 -0.3660  0.0956
 9713W        W 9713   6.018   3.727   1.733 -0.1409  0.0480  0.0350
 9714W        W 9714   0.692   2.682   0.050 -0.1417  0.1508 -0.1050
 9715W        W 9715   8.298   1.462   4.558  0.1383 -0.1110  0.1831
 9716W        W 9716   3.289   4.599   8.602 -0.0425 -0.0386 -0.3668
 9717W        W 9717   1.590   0.839   0.840 -0.0223 -0.6024  0.0492
 9718W        W 9718   1.390   1.821  10.038  0.1273  0.0023  0.4114
 9719W        W 9719   4.779   7.398   0.806  0.0216  0.0349 -0.0341
 9720W        W 9720   4.171   0.155   4.323 -0.2237 -0.0322  0.0256
 9721W        W 9721  10.154   8.251   5.629 -0.1862  0.1156  0.0750
 9722W        W 9722   5.600   7.421   6.611 -0.1172 -0.1496  0.0342
 9723W        W 9723   1.070   9.335   9.984 -0.1176 -0.0962  0.0350
 9724W        W 9724   4.387   1.334   4.166 -0.0855  0.4034  0.0055
 9725W        W 9725   0.555   8.189   8.927  0.3750 -0.1025  0.0471
 9726W        W 9726   8.365   6.185   9.262  0.3009 -0.0563 -0.0984
 9727W        W 9727   7.666   2.923   6.108 -0.0326  0.1543  0.2969
 9728W        W 9728   9.499   6.500   4.277 -0.0967 -0.1929 -0.0932
 9729W        W 9729   0.037   1.427   6.350  0.1114 -0.3494 -0.0459
 9730W        W 9730   1.942   7.631   8.833  0.0749  0.0586  0.1527
 9731W        W 9731   1.502   6.668   0.154 -0.0146 -0.3313 -0.2404
 9732W        W 9732   7.013   9.380   5.286  0.1773 -0.0449 -0.1110
 9733W        W 9733   4.071   3.264   4.181 -0.1720  0.0359  0.0782
 9734W        W 9734   0.459   8.107   4.670 -0.1907  0.0174 -0.0097
 9735W        W 9735   1.818   4.195   3.113  0.0747 -0.0621  0.0642
 9736W        W 9736   6.140   0.157   7.770  0.0555  0.2683  0.0647
 9737W        W 9737   6.340   4.840  10.314 -0.1033  0.0439 -0.0417
 9738W        W 9738   7.491   5.187   9.772 -0.0331  0.3237  0.0448
 9739W        W 9739   4.503   6.779  10.021 -0.0812  0.0391 -0.1186
 9740W        W 9740   8.192   5.877   7.076  0.0141 -0.2701  0.0865
 9741W        W 9741  10.023   7.826   1.491  0.1935  0.0752  0.0218
 9742W        W 9742   5.701   7.407   0.521  0.0158  0.0842  0.3009
 9743W        W 9743   3.322   1.564   5.018  0.1224  0.2244 -0.0484
 9744W        W 9744   7.698   3.751   8.035 -0.3795 -0.0204  0.0230
 9745W        W 9745   1.752   3.505   8.578  0.1430 -0.1632  0.0135
 9746W        W 9746   2.403   8.270   6.011 -0.1855  0.1025  0.0873
 9747W        W 9747   9.944   4.745   3.807  0.0354  0.1417 -0.2521
 9748W        W 9748   9.487   9.343   3.130  0.1446 -0.0253  0.1703
 9749W        W 9749   7.743   5.270   3.178 -0.0926  0.3960 -0.1994
 9750W        W 9750   9.802   8.147   0.828 -0.0689  0.2450 -0.3816
 9751W        W 9751   5.540   4.358   4.688 -0.1682  0.0514  0.1819
 9752W        W 9752  10.088   0.691   4.169 -0.1757  0.2265  0.0561
 9753W        W 9753   5.308  10.053   2.918 -0.1371 -0.1865  0.3608
 9754W        W 9754   3.516   2.129   1.615  0.0129  0.0505 -0.0840
 9755W        W 9755   7.910   5.758   6.303  0.1867  0.1161  0.4847
 9756W        W 9756   9.946   4.110   9.274  0.1194 -0.0191 -0.0658
 9757W        W 9757   2.179   0.089   5.714 -0.0402  0.0220  0.0641
 9758W        W 9758   6.050   8.290   6.218 -0.0232  0.0588  0.0043
 9759W        W 9759   6.814   6.372  10.311 -0.0178  0.1685  0.3653
 9760W        W 9760   4.992   8.445   1.840  0.1656  0.1809  0.0483
 9761W        W 9761   4.721   6.867   7.862 -0.2063 -0.0968 -0.1433
 9762W        W 9762   5.080   2.251   8.712  0.2727  0.0794 -0.1161
 9763W        W 9763   9.135   1.841   3.994  0.3905 -0.2465  0.1299
 9764W        W 9764   3.847  10.169   7.039 -0.2823  0.3066  0.2216
 9765W        W 9765   9.905   6.252   4.506  0.2367  0.1664 -0.0361
 9766W        W 9766   6.397   9.346   0.610 -0.1722  0.0072 -0.3168
 9767W        W 9767   0.511   2.107   6.017 -0.1811 -0.2375 -0.4188
 9768W        W 9768   3.267   1.011   0.698  0.1899 -0.1367 -0.1293
 9769W        W 9769   3.291   0.577   5.967  0.3044 -0.2654  0.1399
 9770W        W 9770   8.963   2.341   8.812 -0.1552 -0.3213 -0.1319
 9771W        W 9771   0.153   7.029   6.755  0.2423  0.1252  0.3045
 9772W        W 9772   5.088   2.379   7.331 -0.2921 -0.0587  0.0551
 9773W        W 9773   0.483   7.731   3.494  0.0737 -0.1064  0.0782
 9774W        W 9774   4.855   9.641   4.127 -0.2055 -0.0277 -0.0368
 9775W        W 9775   1.354   4.346   1.925 -0.2773 -0.1664 -0.3488
 9776W        W 9776   4.086   1.690   3.340 -0.1267 -0.1458  0.1024
 9777W        W 9777   2.685   1.418   8.795 -0.1298  0.0233 -0.3211
 9778W        W 9778   8.139   0.934   0.095  0.0440 -0.0603 -0.2338
 9779W        W 9779   6.353   9.597   6.331  0.3414 -0.1494  0.2254
 9780W        W 9780   3.121   2.037   5.086  0.0556  0.3047 -0.1058
 9781W        W 9781   3.717   5.144   4.026 -0.1668  0.1214  0.3332
 9782W        W 9782  10.324   9.753   1.149 -0.1200  0.0864  0.0133
 9783W        W 9783   6.715   7.979   7.500  0.0664 -0.3640 -0.0446
 9784W        W 9784  10.275   5.819   8.976  0.0391  0.3308  0.0751
 9785W        W 9785   6.051   8.953   8.966 -0.0009 -0.0188  0.1083
 9786W        W 9786   6.692   3.638   3.666 -0.1991 -0.4118  0.3170
 9787W        W 9787   6.293   2.198   7.869 -0.0605  0.1727 -0.1743
 9788W        W 9788   5.998   1.514   2.123 -0.1119  0.1919  0.2458
 9789W        W 9789   5.756   2.328   6.251 -0.2613 -0.1103 -0.2879
 9790W        W 9790   1.861   2.832   4.266 -0.1181  0.3810 -0.3084
 9791W        W 9791   1.578   6.275  10.143  0.0196 -0.1339 -0.1153
 9792W        W 9792   1.167   2.031   3.145 -0.0669  0.2650 -0.2617
 9793W        W 9793   1.104   7.757   0.425 -0.0454  0.1294 -0.1525
 9794W        W 9794   7.985   5.349   0.136 -0.1178 -0.3823 -0.0915
 9795W        W 9795   7.284   6.102   7.750 -0.3541 -0.0595  0.1453
 9796W        W 9796   4.643   4.585   8.354 -0.1742 -0.3376 -0.0956
 9797W        W 9797   8.432   5.298   0.855 -0.0180 -0.0285  0.1089
 9798W        W 9798   6.532   5.675   9.072  0.4502  0.0602  0.0607
 9799W        W 9799   5.535   7.032   1.329  0.0398  0.3268 -0.2282
 9800W        W 9800   4.572   4.006   0.787  0.2620 -0.0874 -0.1652
 9801W        W 9801  10.315  10.000   0.094  0.4063 -0.0059 -0.2927
 9802W        W 9802   2.145   0.086   1.767  0.1745 -0.2263  0.2093
 9803W        W 9803   0.850   5.284   3.909 -0.2172  0.0328 -0.1890
 9804W        W 9804   3.673   6.640   4.729  0.1080  0.0679  0.0615
 9805W        W 9805   0.678   8.153   1.219  0.1319 -0.1051 -0.2537
 9806W        W 9806   9.484   1.078   0.314 -0.1910 -0.2175  0.0027
 9807W        W 9807   8.649   8.272   2.844  0.0302  0.2247 -0.3714
 9808W        W 9808   0.877   9.874   3.609  0.1496 -0.3124 -0.0628
 9809W        W 9809  10.216   5.075   4.153 -0.4227 -0.0982  0.1558
 9810W        W 9810   2.059   6.998   8.257  0.0490  0.4241 -0.0666
 9811W        W 9811   9.164   0.635   5.500 -0.1382 -0.0287  0.3183
 9812W        W 9812   8.524   1.241   3.482 -0.1771 -0.1670  0.0836
 9813W        W 9813   4.941   0.193   7.930  0.1487 -0.1294  0.3445
 9814W        W 9814   1.085   5.386   0.229 -0.0552 -0.0613  0.1606
 9815W        W 9815   2.361   8.503   5.086  0.1243 -0.1069  0.0588
 9816W        W 9816   6.935   8.059   2.655  0.0190  0.0865 -0.0696
 9817W        W 9817   7.798   3.667   5.721 -0.0201  0.0379  0.0439
 9818W        W 9818  10.297   6.837   0.749 -0.1072 -0.0612 -0.1756
 9819W        W 9819   5.399   7.241   9.701  0.2117  0.1804 -0.0559
 9820W        W 9820   5.591   6.394   0.325  0.5573  0.0349 -0.3143
 9821W        W 9821   0.211   5.391   4.971  0.1949 -0.0310  0.1110
 9822W        W 9822   7.546   7.447   0.025 -0.0109  0.0220  0.1881
 9823W        W 9823   4.369   7.128   4.913 -0.0653 -0.2589  0.1739
 9824W        W 9824   9.209   0.244  10.106  0.2590  0.2726  0.3520
 9825W        W 9825   1.792   2.199   0.544 -0.4455 -0.0232 -0.0407
 9826W        W 9826   1.877   1.578   6.462  0.2124 -0.0760  0.0573
 9827W        W 9827   2.702   9.624   6.574 -0.5165 -0.1079 -0.3215
 9828W        W 9828   2.923   1.044   7.114  0.1687 -0.0135  0.1353
 9829W        W 9829   7.423   3.576   7.672  0.0583  0.0347  0.1151
 9830W        W 9830   2.604   6.925   9.698  0.0969 -0.1420 -0.1196
 9831W        W 9831   1.110   2.780   6.200  0.1762  0.2244  0.1457
 9832W        W 9832   0.021   8.345   7.733  0.1521 -0.0696  0.0204
 9833W        W 9833   1.816   6.993   1.673  0.1553 -0.0241  0.1901
 9834W        W 9834   3.871   1.364   4.787  0.0271 -0.3152 -0.1259
 9835W        W 9835   7.601   5.509   0.900  0.0807  0.0674 -0.1592
 9836W        W 9836   9.368   1.334   4.004  0.0108 -0.2533 -0.0522
 9837W        W 9837   6.650  10.162   2.780 -0.0098 -0.0427 -0.2659
 9838W        W 9838   2.399  10.168   5.149  0.1285  0.1464 -0.0036
 9839W        W 9839   7.513   4.890   9.224  0.0136 -0.0910  0.0318
 9840W        W 9840   7.716   9.399   9.221 -0.4167  0.3446 -0.0140
 9841W        W 9841   4.132   8.380   2.420  0.0255  0.1906 -0.1905
 9842W        W 9842   7.314   0.374   7.591  0.0561  0.0696  0.0158
 9843W        W 9843   0.069   6.726   7.542 -0.3289 -0.0151  0.1398
 9844W        W 9844   3.035   6.651   9.643 -0.3662 -0.0958 -0.3054
 9845W        W 9845   4.474   7.173   8.748  0.2318 -0.3447  0.1472
 9846W        W 9846   4.999   3.121   2.998  0.1102 -0.1423  0.1353
 9847W        W 9847   7.354   9.386   5.780 -0.1834 -0.2573 -0.0270
 9848W        W 9848   6.016   4.143   9.098  0.1225  0.2338 -0.0758
 9849W        W 9849   8.179   9.043   2.275 -0.0384 -0.1171 -0.0621
 9850W        W 9850   4.465   0.093  10.024 -0.1955  0.0399  0.1677
 9851W        W 9851   3.845   6.682   8.261  0.0835  0.0075 -0.3138
 9852W        W 9852   9.427   4.358   5.634  0.1723  0.0765 -0.0397
 9853W        W 9853   2.215   3.396   3.605 -0.1266  0.0039 -0.1499
 9854W        W 9854   1.658   5.840   9.595 -0.4082 -0.0303 -0.1403
 9855W        W 9855   2.011   5.004   1.420  0.0441  0.1559 -0.1808
 9856W        W 9856   3.784   3.980   1.123 -0.0697 -0.0054  0.1315
 9857W        W 9857   4.995   6.762   6.468 -0.1458 -0.1251 -0.1007
 9858W        W 9858   3.705   1.682   4.501 -0.0366 -0.1220  0.2237
 9859W        W 9859   1.349   0.105   0.719  0.0462  0.0376 -0.1407
 9860W        W 9860   1.796   4.322   4.640  0.1131  0.2832 -0.1511
 9861W        W 9861   7.168   0.727  10.186  0.3114  0.1791 -0.0915
 9862W        W 9862   5.239   7.335   8.306 -0.0109  0.5650  0.0639
 9863W        W 9863   7.149   1.568   3.290 -0.2486  0.1895  0.1128
 9864W        W 9864  10.127   3.816   0.981  0.0155 -0.3650 -0.1485
 9865W        W 9865   0.902   2.920   2.323 -0.1793 -0.4208 -0.0714
 9866W        W 9866   7.808   4.767   0.144 -0.2399  0.2255  0.2221
 9867W        W 9867   5.898   9.763   6.173 -0.0011 -0.3858 -0.1674
 9868W        W 9868   0.523   1.551   2.174  0.0070  0.0247 -0.2622
 9869W        W 9869   0.558   3.173   3.267  0.0705 -0.0647 -0.0599
 9870W        W 9870   8.964   3.174   6.719  0.2005  0.1151 -0.1075
 9871W        W 9871   2.480   3.580   1.689  0.1788  0.2200  0.0766
 9872W        W 9872   7.973   4.908   1.587  0.1344 -0.3690  0.0206
 9873W        W 9873  10.119   6.075   1.934  0.1736 -0.0679 -0.4145
 9874W        W 9874   9.347   2.457   0.027  0.2791 -0.0217  0.0053
 9875W        W 9875  10.117   3.103   5.638  0.0773 -0.0867  0.2076
 9876W        W 9876   8.083   0.298   4.438  0.0724 -0.0108 -0.3791
 9877W        W 9877   9.952   3.759   4.482 -0.1670  0.1831 -0.3589
 9878W        W 9878   1.674  10.265   7.232 -0.0296 -0.2059 -0.2400
 9879W        W 9879   2.957   0.513   7.931 -0.3869 -0.1447 -0.2315
 9880W        W 9880   8.219   6.323   8.815 -0.0094  0.0186 -0.0944
 9881W        W 9881   6.227  10.123   7.409  0.2463  0.1637  0.0830
 9882W        W 9882   2.861   5.722   9.654  0.0093 -0.2567 -0.0312
 9883W        W 9883   6.662   9.008   5.533  0.2329  0.0532  0.4188
 9884W        W 9884   1.745   5.225   8.376 -0.0432 -0.0832  0.0874
 9885W        W 9885   9.158   2.049   6.016 -0.0255 -0.1579  0.0848
 9886W        W 9886   4.601   8.831   9.808  0.1507  0.2167  0.2197
 9887W        W 9887   9.391   3.117   6.995  0.1295 -0.1073 -0.0645
 9888W        W 9888   2.702   3.272   2.091  0.1197 -0.0262  0.1282
 9889W        W 9889   7.978   0.104   6.729  0.1517 -0.1339  0.0511
 9890W        W 9890   4.735   1.325  10.224 -0.0277 -0.0087  0.1790
 9891W        W 9891   3.084   4.079   8.699 -0.1475 -0.0640 -0.1629
 9892W        W 9892   3.565   0.871   0.339  0.3589 -0.0897 -0.2055
 9893W        W 9893   8.851   0.014   8.882 -0.0739  0.1349  0.0470
 9894W        W 9894   0.983   4.559   5.738 -0.1911 -0.2402 -0.0489
 9895W        W 9895  10.292   7.739   1.984 -0.3657 -0.0020  0.0154
 9896W        W 9896   5.401   2.749   1.220  0.0862 -0.1158 -0.0202
 9897W        W 9897   1.792   6.879   0.989 -0.0470  0.0202  0.3580
 9898W        W 9898   2.404   1.501   5.116  0.3642 -0.0879 -0.1084
 9899W        W 9899   2.431   4.491   5.890 -0.1316  0.0149 -0.1077
 9900W        W 9900   3.808   3.076   3.820 -0.2740 -0.0509  0.0301
 9901W        W 9901   3.527   7.441   3.663 -0.0805  0.3241 -0.0325
 9902W        W 9902   1.223   4.462   4.437 -0.0243 -0.2727 -0.5705
 9903W        W 9903   8.247   0.280  10.095  0.2271 -0.2148 -0.1837
 9904W        W 9904   0.435   3.528   7.558  0.1041 -0.1624  0.1767
 9905W        W 9905   2.278   1.481   9.496 -0.1747 -0.0146 -0.0042
 9906W        W 9906   1.283  10.185   3.579 -0.2458  0.1218  0.0395
 9907W        W 9907   0.001   4.831   4.610  0.2282  0.3079 -0.0293
 9908W        W 9908   5.118   5.764   9.922  0.0169 -0.1514 -0.1651
 9909W        W 9909   4.542   0.841   4.117 -0.3285  0.1457 -0.1383
 9910W        W 9910   2.494   4.979   1.693 -0.1087  0.0344 -0.0934
 9911W        W 9911   9.672   7.036   9.315 -0.1349  0.0705 -0.4207
 9912W        W 9912   8.822   9.958   4.272  0.0416 -0.1617  0.1855
 9913W        W 9913   3.029   1.568   3.719  0.0060  0.0728 -0.3349
 9914W        W 9914   7.836   9.433   2.168 -0.0761  0.1773 -0.1639
 9915W        W 9915   5.709   7.516   1.062  0.0743 -0.2446  0.1356
 9916W        W 9916   2.439   9.385   4.528  0.1933  0.1064 -0.2059
 9917W        W 9917   7.668   0.461   8.594  0.5661  0.1297  0.4068
 9918W        W 9918   7.260   8.850   0.273  0.1512 -0.0040  0.0816
 9919W        W 9919   7.739   9.073   8.308  0.4169  0.1015  0.3506
 9920W        W 9920   1.392   1.340   9.829 -0.1891 -0.2233  0.1273
 9921W        W 9921   2.504   2.817   9.930 -0.5904  0.1552  0.0869
 9922W        W 9922   8.399   8.873   1.065 -0.0347  0.1134  0.2928
 9923W        W 9923   2.454   6.077   7.187 -0.2059  0.4728  0.1106
 9924W        W 9924   9.743   8.357   5.891  0.2310 -0.0238 -0.1172
 9925W        W 9925   0.695   0.821   1.337  0.2478  0.0224  0.0593
 9926W        W 9926  10.112   7.653   5.297 -0.0507  0.0315  0.0901
 9927W        W 9927   5.606   6.505   8.622 -0.2171  0.2188  0.0816
 9928W        W 9928   2.394   9.355   3.096 -0.0077  0.0129  0.1431
 9929W        W 9929   3.926   2.817   8.110  0.2051  0.1356 -0.2617
 9930W        W 9930   0.557   8.692   8.645 -0.0394  0.1644 -0.0647
 9931W        W 9931   2.950   0.309   8.641 -0.0140 -0.2471  0.0456
 9932W        W 9932   3.729   4.868   6.410  0.0241 -0.0014  0.2243
 9933W        W 9933   8.097   1.202   7.785  0.1352 -0.2728  0.1555
 9934W        W 9934   6.718   5.006   1.807 -0.1681 -0.2402 -0.4896
 9935W        W 9935   8.399   0.910   7.021 -0.3092  0.1385  0.2336
 9936W        W 9936   7.184   4.596   0.669  0.1895 -0.0620  0.3168
 9937W        W 9937   2.487   3.847   8.528 -0.0734 -0.0276  0.0243
 9938W        W 9938   6.896   8.547   0.207  0.2268 -0.1814  0.1173
 9939W        W 9939   4.329   3.202   7.823 -0.0527 -0.2026 -0.1802
 9940W        W 9940   3.251  10.017   2.234 -0.0171  0.0133 -0.0058
 9941W        W 9941   3.221   3.314   3.761 -0.2187  0.1329  0.1044
 9942W        W 9942   5.894   2.271   5.755  0.4391  0.0880 -0.0432
 9943W        W 9943   9.260   5.799   7.582 -0.2730 -0.0732 -0.1929
 9944W        W 9944   3.408   3.741   3.124 -0.2916 -0.3555  0.1569
 9945W        W 9945   1.977   0.601   6.230  0.0874 -0.1024 -0.0980
 9946W        W 9946   4.151   1.653   0.571 -0.1975 -0.1692  0.0172
 9947W        W 9947   6.585   4.406   5.765  0.2359  0.2351  0.1974
 9948W        W 9948   4.149   1.729   2.377 -0.0776 -0.3134 -0.1389
 9949W        W 9949   5.975   6.318   7.103 -0.0621 -0.1076  0.1487
 9950W        W 9950   3.107   8.738   4.894 -0.1386 -0.2390  0.0146
 9951W        W 9951   9.033   2.589   0.385 -0.1587  0.2272  0.1125
 9952W        W 9952   3.497   3.664   2.638  0.1519  0.1720  0.1262
 9953W        W 9953   1.558   1.422   4.555  0.0031  0.0691  0.2010
 9954W        W 9954   0.522   1.728   9.839  0.0258  0.0413 -0.0431
 9955W        W 9955   4.951   9.910   1.673 -0.1168  0.0563  0.0493
 9956W        W 9956   7.231   8.433   9.330  0.1373  0.0930  0.0971
 9957W        W 9957   1.555   9.318   5.501  0.1197  0.0257  0.2273
 9958W        W 9958   4.964   7.626   8.635 -0.0946 -0.2411 -0.1053
 9959W        W 9959   3.705   4.247   7.434 -0.3323 -0.1498 -0.4370
 9960W        W 9960   9.701   3.050   9.050  0.2164 -0.1814 -0.0278
 9961W        W 9961   7.310   2.119   5.779  0.2051  0.0715  0.1107
 9962W        W 9962   8.556   1.934   0.099 -0.0150  0.1609  0.0151
 9963W        W 9963   0.634   9.965   2.859  0.2330 -0.2594 -0.5165
 9964W        W 9964   0.313   4.182   4.517 -0.0502 -0.0276  0.0311
 9965W        W 9965   4.391   8.193   5.389  0.0243  0.1522  0.1866
 9966W        W 9966   6.483   2.300   4.124  0.0075 -0.0965  0.0928
 9967W        W 9967   9.818   9.314  10.121  0.2887  0.0964 -0.0772
 9968W        W 9968   4.092   9.533   1.384 -0.0925  0.3324  0.0939
 9969W        W 9969   1.074   6.383   8.111 -0.4873  0.1268 -0.0293
 9970W        W 9970   7.622   6.653  10.325 -0.0597  0.0187  0.1655
 9971W        W 9971   3.033   6.910   6.984 -0.0869  0.1050 -0.1899
 9972W        W 9972   0.534   7.350   3.145  0.1453  0.2689 -0.5113
 9973W        W 9973   2.462  10.122   6.215  0.0754 -0.0534  0.0421
 9974W        W 9974   2.665   5.362   7.527 -0.3222  0.1463 -0.2140
 9975W        W 9975   2.187  10.232   7.449 -0.4163  0.0450 -0.3110
 9976W        W 9976   0.242   7.318   4.939 -0.0139 -0.2564 -0.3724
 9977W        W 9977   9.254   2.831   2.078  0.0711 -0.3227  0.0402
 9978W        W 9978   7.524   5.602   4.503  0.0696 -0.0466 -0.0900
 9979W        W 9979   3.993  10.145   9.963  0.2563 -0.0474  0.1206
 9980W        W 9980   6.837   7.598   5.175 -0.1641  0.0470  0.0057
 9981W        W 9981   2.816   1.380   1.520  0.1198  0.1182 -0.4422
 9982W        W 9982   0.972   7.918   7.447 -0.0366 -0.1418  0.0422
 9983W        W 9983   9.538   1.909   6.815 -0.3471 -0.1198 -0.0051
 9984W        W 9984   3.868   2.264  10.090 -0.1494 -0.0985  0.2204
 9985W        W 9985   4.316   9.217   9.913 -0.0029 -0.0080 -0.0063
 9986W        W 9986   9.865   4.882   0.717 -0.3441  0.0929  0.0206
 9987W        W 9987   6.642   8.820   6.542 -0.0602 -0.2467 -0.0420
 9988W        W 9988   7.070   6.203   8.247 -0.3284 -0.0388 -0.0843
 9989W        W 9989   6.514   6.842   6.628  0.3895 -0.1537 -0.0653
 9990W        W 9990   2.355   0.545   5.553 -0.1292 -0.1976 -0.1515
 9991W        W 9991   1.208   5.863   1.269 -0.1097  0.4111  0.2192
 9992W        W 9992   3.798   4.223   9.407  0.1840 -0.1232  0.3021
 9993W        W 9993   6.428   7.642   2.403  0.2171  0.0896  0.1836
 9994W        W 9994   3.074   9.240   4.133  0.0402 -0.2498  0.0698
 9995W        W 9995   1.230   1.471  10.340 -0.1728 -0.2632 -0.1858
 9996W        W 9996   7.472   3.488   1.395  0.0826 -0.2552 -0.4084
 9997W        W 9997   1.453   3.501   5.395 -0.1092 -0.2998 -0.3802
 9998W        W 9998   9.678   1.906   2.536 -0.0447  0.1598 -0.2335
 9999W        W 9999   1.631   0.494   7.830 -0.1722 -0.2499 -0.0182
10000W        W10000   0.664   9.344  10.292 -0.0252  0.3182 -0.0354
10001W        W10001   6.641   5.287   4.682  0.0822 -0.3216  0.3116
10002W        W10002  10.035   0.901   3.693  0.1216 -0.1591 -0.1149
10003W        W10003   2.578   9.687   2.651  0.1111 -0.2199  0.1929
10004W        W10004   4.853   9.964   2.845 -0.0417  0.1369  0.0279
10005W        W10005   6.476   6.082   3.117 -0.0099  0.1182 -0.0160
10006W        W10006   7.456   7.765   3.671  0.5890 -0.2238 -0.0367
10007W        W10007   9.893   4.323   3.006 -0.0211  0.0070 -0.1279
10008W        W10008   9.926   3.989   7.987 -0.0193 -0.1896  0.0692
10009W        W10009   9.622   7.717   2.299  0.2554  0.0530  0.3365
10010W        W10010   9.605   1.732   6.191 -0.1126  0.0582  0.3090
10011W        W10011   6.109   1.563   1.303 -0.0354 -0.2049  0.1206
10012W        W10012   2.801   8.756   7.409 -0.0786 -0.1924 -0.0142
10013W        W10013   4.892  10.149   2.399 -0.2349  0.0786 -0.2673
10014W        W10014   6.216   0.436   3.368 -0.5686 -0.0416  0.1987
10015W        W10015   2.028   0.848   7.971  0.2056  0.0140 -0.2878
10016W        W10016   6.376   3.610   5.935 -0.1398 -0.0598 -0.1370
10017W        W10017   1.151   4.150   2.417 -0.1000 -0.0276 -0.0271
10018W        W10018   4.909   4.631   1.917 -0.0662  0.0137  0.0347
10019W        W10019   3.681  10.258   5.716  0.0947 -0.1373 -0.1447
10020W        W10020   9.265   6.011   0.559  0.2174  0.2937  0.4898
10021W        W10021   6.013   7.070   5.769  0.1096  0.0892 -0.0874
10022W        W10022   7.247   5.457   8.478 -0.1169 -0.3741 -0.1147
10023W        W10023   3.911   6.434   0.539 -0.0597  0.1057 -0.1053
10024W        W10024   9.498   2.564   7.422  0.0312  0.0837  0.1531
10025W        W10025   1.474   3.554   0.703  0.0714  0.2014 -0.2176
10026W        W10026   6.481  10.023   2.176 -0.2465 -0.3576 -0.1554
10027W        W10027   5.876   0.110   4.163 -0.1802 -0.0052  0.0870
10028W        W10028   3.364   0.447   6.636 -0.0938 -0.3969  0.1531
10029W        W10029   8.666   2.035   4.445  0.1988  0.2481  0.1061
10030W        W10030   4.323   4.197   9.693 -0.0801 -0.1639 -0.3128
10031W        W10031   9.060   0.511   7.961 -0.2243 -0.0874  0.0533
10032W        W10032   3.045   3.280   4.391 -0.3746 -0.2815 -0.2382
10033W        W10033   8.607   1.466   0.031  0.1130  0.2166 -0.0147
10034W        W10034   0.431   0.197   0.733  0.1445 -0.1340  0.1362
10035W        W10035   0.453   6.042   3.140 -0.0053  0.2131  0.4465
10036W        W10036   0.028  10.296   0.581  0.1496  0.1042  0.0550
10037W        W10037   1.732   4.105   7.698 -0.3423  0.0356  0.1275
10038W        W10038   9.659   9.148   8.379 -0.2427 -0.0692 -0.0231
10039W        W10039   6.429   9.700   0.245  0.1546  0.1169 -0.0145
10040W        W10040   4.986   5.029   4.688  0.2435  0.1005  0.4660
10041W        W10041   1.270   4.925   5.517  0.0072 -0.0666  0.2005
10042W        W10042   7.274   2.472   8.212 -0.2490  0.1661  0.2855
10043W        W10043   7.569   5.763  10.181  0.3892 -0.3158 -0.0292
10044W        W10044   1.432   6.056   8.377 -0.0533 -0.0072  0.2276
10045W        W10045   5.190   5.366   8.864 -0.1113  0.1348 -0.0560
10046W        W10046   2.506   4.430   9.416 -0.2255 -0.0747 -0.0362
10047W        W10047   2.945   2.690   6.821 -0.0739  0.0936 -0.1363
10048W        W10048   4.878   4.382   5.804  0.0856  0.1500  0.0648
10049W        W10049   5.068   7.456   6.504 -0.2473 -0.2270 -0.1883
10050W        W10050   3.371   2.004   8.508 -0.1068  0.0534 -0.2732
10051W        W10051   7.983   6.082   0.583  0.1064 -0.2092 -0.0537
10052W        W10052   1.416   0.174   0.193 -0.0705  0.0117 -0.1220
10053W        W10053   6.186   6.704   0.910 -0.0680 -0.3074  0.1968
10054W        W10054   2.157   6.883   6.037  0.2916 -0.1970 -0.3097
10055W        W10055   2.684   3.565   3.535 -0.0256 -0.0589  0.3584
10056W        W10056   6.257   7.581   9.927  0.3800 -0.0792  0.0082
10057W        W10057   0.883   1.402   9.920 -0.0096 -0.1692 -0.2299
10058W        W10058   4.435   2.694   7.846  0.1237  0.1921  0.1256
10059W        W10059   1.453   0.645   4.212 -0.3981  0.0214  0.1599
10060W        W10060  10.200   2.400   7.115 -0.0138  0.2829  0.0636
10061W        W10061   4.931   1.021   0.199  0.0349 -0.1797  0.1401
10062W        W10062   5.020  10.313   1.914  0.1576 -0.2826  0.0578
10063W        W10063   9.510   4.021   8.916 -0.2748 -0.0018 -0.0618
10064W        W10064   1.067   4.423   0.365  0.0931 -0.1141 -0.0828
10065W        W10065   6.349   4.295   8.493 -0.0151 -0.0595 -0.2272
10066W        W10066   5.134   6.109  10.249 -0.0676 -0.2460 -0.2937
10067W        W10067   1.816   0.685   2.416 -0.2681 -0.1532  0.3736
10068W        W10068   5.639   5.297   4.966 -0.4070 -0.0631 -0.0077
10069W        W10069   0.785   0.618   8.414  0.0853  0.0013  0.1308
10070W        W10070   6.403   7.398   3.084 -0.0433 -0.2831  0.1068
10071W        W10071   7.197   6.628   7.735  0.1838  0.0616  0.1279
10072W        W10072   2.048   0.094  10.114  0.2929 -0.0131 -0.2781
10073W        W10073   4.313   8.238   8.208 -0.1205  0.1898  0.0365
10074W        W10074   7.736   3.842   2.443  0.2728  0.0788 -0.1498
10075W        W10075   3.891   8.782   6.733  0.1357  0.2992 -0.1472
10076W        W10076   1.004   3.532   6.448  0.0904  0.0996  0.0678
10077W        W10077   9.627   9.328   5.542  0.2627 -0.1723  0.1195
10078W        W10078   1.208   0.251   5.135 -0.0078  0.0374  0.0569
10079W        W10079   5.848   5.744   8.388 -0.0685  0.4448  0.3207
10080W        W10080   5.649   8.645   9.821  0.1568 -0.0508  0.1682
10081W        W10081   1.428   1.381   9.159  0.1438 -0.1165  0.0918
10082W        W10082   1.814   3.914   4.907 -0.0929  0.3734 -0.2166
10083W        W10083   6.477   1.243   1.458  0.0803 -0.0493 -0.0897
10084W        W10084   5.172   6.755   8.152 -0.1462  0.1496  0.0461
10085W        W10085   9.465   4.691   6.026  0.0534  0.2308 -0.2309
10086W        W10086   2.558   6.702   8.830 -0.0445  0.2210  0.0049
10087W        W10087   3.014   6.473   1.536 -0.1402 -0.2232 -0.0377
10088W        W10088   0.538   7.815   2.132 -0.1740  0.1521 -0.0243
10089W        W10089   2.392   8.002   8.257  0.0350 -0.1818 -0.2654
10090W        W10090   7.183   0.981   2.659  0.2255 -0.2001  0.0788
10091W        W10091   8.763   3.814   1.520  0.0810 -0.2438  0.1071
10092W        W10092   2.316   1.665   1.200  0.0202 -0.0953  0.1789
10093W        W10093   7.740   6.518   5.710 -0.0725 -0.1446  0.2208
10094W        W10094   7.991   8.834   1.360  0.2815 -0.2059  0.2126
10095W        W10095   9.061   2.947   4.684  0.0608 -0.2460 -0.0251
10096W        W10096   2.322   2.286   7.193 -0.2411 -0.4085  0.0037
10097W        W10097   9.558   0.077   6.219 -0.1774 -0.2063  0.2756
10098W        W10098   6.486   6.415   6.184 -0.0367  0.1296  0.2261
10099W        W10099   8.084   9.910   9.143 -0.0647 -0.1728 -0.0137
10100W        W10100   7.537   8.133   2.315  0.1998 -0.0599 -0.1516
10101W        W10101   4.735   9.607   3.593  0.0987 -0.3646 -0.3854
10102W        W10102   1.162   5.342  10.064 -0.2490 -0.1369  0.0039
10103W        W10103   0.051   7.973   9.065 -0.2030 -0.2157 -0.0002
10104W        W10104   3.898   2.647   7.234  0.1344  0.0203  0.2207
10105W        W10105   4.219   9.481   3.115  0.1933 -0.0463 -0.4792
10106W        W10106   1.398   3.046   0.694 -0.0654  0.1435  0.1172
10107W        W10107   1.353   8.290   8.454 -0.0921 -0.0974 -0.0683
10108W        W10108   1.321   8.679   0.133 -0.0377  0.0468  0.0664
10109W        W10109   0.787   7.197   5.650 -0.0114  0.0113 -0.0619
10110W        W10110   7.130   3.782   6.907 -0.2822 -0.3755 -0.0003
10111W        W10111   8.690   1.660   4.740 -0.4595 -0.2569 -0.0497
10112W        W10112   5.956   4.439   8.731  0.3178  0.1434  0.0392
10113W        W10113   9.587   1.961   7.640 -0.0372  0.3310  0.1561
10114W        W10114   7.799   2.086   0.868  0.2246 -0.1596 -0.2712
10115W        W10115   1.723   5.738   8.118 -0.3360  0.2739  0.0933
10116W        W10116   7.064   7.876   6.116  0.1118  0.0921  0.1972
10117W        W10117   6.882   7.008   3.431 -0.0854 -0.3307  0.1318
10118W        W10118   0.810   9.981   4.551  0.2337  0.1213 -0.0509
10119W        W10119   7.428   6.909   4.727  0.2682  0.1919 -0.2876
10120W        W10120   6.731   5.841   0.017  0.2164 -0.0685 -0.0053
10121W        W10121   2.339   4.164   1.041  0.2363  0.3010 -0.1513
10122W        W10122  10.020   7.108   4.017 -0.4277 -0.4063 -0.4923
10123W        W10123   3.578   8.986   1.757  0.0295  0.1431 -0.1429
10124W        W10124   9.071   8.324   5.259  0.1672 -0.2458 -0.0827
10125W        W10125   2.799   2.488   2.757 -0.0974 -0.3550  0.4200
10126W        W10126   6.677   4.963   6.527 -0.1613 -0.2272  0.0761
10127W        W10127   1.157   7.172   9.153  0.1485 -0.2034 -0.0711
10128W        W10128   6.450   3.964   4.318 -0.0249 -0.0261 -0.0650
10129W        W10129   6.780   7.832   8.357  0.2302 -0.0133  0.1651
10130W        W10130   3.810   6.063   7.859 -0.3522 -0.3302 -0.3615
10131W        W10131   4.976   5.626   3.058 -0.0862 -0.1363 -0.0603
10132W        W10132   7.475   9.822   6.053 -0.3583 -0.0979 -0.0567
10133W        W10133   8.509   8.877   5.070 -0.1727  0.2454 -0.1958
10134W        W10134   3.633   5.954   3.940  0.1245  0.1525 -0.2182
10135W        W10135   0.384   8.296   2.242  0.0571 -0.2310 -0.0177
10136W        W10136   9.916   9.519   4.170 -0.0977  0.2034  0.0054
10137W        W10137   0.713   3.417   2.273 -0.1347 -0.3354  0.4297
10138W        W10138   8.770   7.049   1.577  0.0724 -0.0784  0.2100
10139W        W10139  10.130   5.246   1.497  0.1365 -0.3993  0.0354
10140W        W10140  10.065   1.543   1.830 -0.1497  0.0600 -0.1493
10141W        W10141   0.441   2.080   7.769 -0.0462 -0.2927  0.0816
10142W        W10142   1.858   7.822   2.665 -0.0650  0.1201  0.0612
10143W        W10143   2.171   9.334   2.631 -0.2096  0.0243  0.1361
10144W        W10144   4.203   6.357   5.120 -0.0790 -0.0590  0.0556
10145W        W10145   6.302   2.014   5.626  0.1472  0.0238 -0.1490
10146W        W10146   4.876   5.445   4.468 -0.2975  0.1940  0.1507
10147W        W10147   5.011   5.196   9.644 -0.0522 -0.0157 -0.0305
10148W        W10148   8.783   6.305   8.563 -0.0181 -0.1131  0.0629
10149W        W10149   3.271   8.440   0.616  0.0859 -0.0916 -0.2082
10150W        W10150   4.323   3.417   6.037 -0.1042  0.0945 -0.2225
10151W        W10151   9.561   0.407   9.321 -0.0776  0.0099  0.2621
10152W        W10152   2.774   5.372   9.210 -0.0801  0.0653 -0.0044
10153W        W10153   5.784   6.122   5.523  0.0606  0.3791  0.5414
10154W        W10154   3.329   0.311   5.441 -0.0883  0.1300 -0.2792
10155W        W10155   7.800   7.040   2.186  0.1633 -0.1780 -0.2338
10156W        W10156   3.292   8.520   5.294  0.1212 -0.1894 -0.3735
10157W        W10157   7.577   1.270   0.518 -0.1679  0.0925  0.1797
10158W        W10158   5.522   7.249   0.045  0.2021 -0.0214 -0.0842
10159W        W10159   9.099   9.745   0.208 -0.0640  0.2226  0.0723
10160W        W10160   8.112   5.880   2.237  0.1326  0.2127  0.1356
10161W        W10161   6.463   6.111   3.964  0.0903  0.1327  0.0594
10162W        W10162   9.129   8.186   9.413 -0.3570  0.3429 -0.0446
10163W        W10163   4.934   2.998   4.454  0.0950 -0.0486 -0.0817
10164W        W10164   6.595   7.863   6.052 -0.0509  0.2651  0.1658
10165W        W10165   1.037   4.297   7.160  0.2584  0.3344  0.1905
10166W        W10166   7.759   5.568   5.662 -0.2929 -0.1416 -0.0077
10167W        W10167   4.575   3.349   1.328 -0.0653  0.2804  0.3319
10168W        W10168   4.107   1.125   6.456  0.1080 -0.3877 -0.1964
10169W        W10169  10.248   0.151   6.898  0.1032  0.0790 -0.2445
10170W        W10170   3.170   4.740   1.406 -0.3808  0.0389 -0.2848
10171W        W10171   7.374   8.477  10.304 -0.1756  0.0624 -0.0897
10172W        W10172   6.418   9.335   6.784  0.0479 -0.0958  0.2305
10173W        W10173  10.190   6.627   6.583  0.0397  0.0906 -0.1446
10174W        W10174   2.946   1.501   0.655  0.3792 -0.0856  0.3506
10175W        W10175   3.418   5.536   0.130  0.0741  0.3758  0.2963
10176W        W10176   8.774   7.806   6.846 -0.1280  0.0452 -0.0729
10177W        W10177   2.338   9.389   0.907 -0.0813 -0.1342 -0.1097
10178W        W10178   4.165   5.037   2.093 -0.3482  0.1719 -0.2649
10179W        W10179   6.999   3.942   1.925 -0.1145 -0.0355  0.1160
10180W        W10180   5.415   7.620   1.435  0.3526  0.4846 -0.0900
10181W        W10181   8.045   5.376   6.708  0.0712 -0.2552  0.1679
10182W        W10182   2.784   6.238   8.717 -0.0150  0.1620  0.2420
10183W        W10183   7.831   4.251   4.383  0.2287  0.0612 -0.0945
10184W        W10184   9.500   9.430   0.198  0.3472  0.3985 -0.1466
10185W        W10185   4.240   8.852   7.573  0.0114  0.1434  0.2033
10186W        W10186   7.729   2.051   7.448  0.0903  0.1283  0.0688
10187W        W10187   5.819   1.036   9.498  0.3642  0.1196  0.0753
10188W        W10188   7.048   4.347   5.756 -0.1171 -0.0407 -0.0160
10189W        W10189   0.994   4.929   6.149 -0.0196  0.1311  0.0025
10190W        W10190   7.268   8.780   3.869  0.2023  0.1041 -0.0921
10191W        W10191   3.304   9.639   1.907  0.1625 -0.3083 -0.0183
10192W        W10192   4.738   3.225   0.050  0.2635 -0.4724  0.2111
10193W        W10193   5.323   3.295   2.438  0.0902 -0.2538  0.1078
10194W        W10194   8.615   8.596   0.133 -0.0747  0.2099 -0.1945
10195W        W10195   9.237   2.277   6.778 -0.0572  0.0354 -0.0862
10196W        W10196   6.905   8.422   3.018 -0.0888  0.1131  0.0604
10197W        W10197   4.610   5.760   5.147  0.0126  0.0857 -0.3303
10198W        W10198   2.038   1.761   2.775 -0.1500  0.2005 -0.2747
10199W        W10199   1.374   1.671   1.473 -0.1711 -0.1589  0.0578
10200W        W10200   8.843   5.415   7.760 -0.1683 -0.0135  0.2179
10201W        W10201   1.321   1.033   7.032  0.2087 -0.2252 -0.0211
10202W        W10202   4.636   2.510   4.184  0.4511  0.0020  0.0304
10203W        W10203   3.277   8.321   6.194  0.1995 -0.2082 -0.1543
10204W        W10204   8.203   0.983   1.678  0.0062  0.0834  0.4454
10205W        W10205   1.350   6.948   2.904 -0.0899 -0.0789  0.0097
10206W        W10206   2.746   1.502   4.141 -0.0412 -0.1695 -0.1447
10207W        W10207   5.291   3.082   6.719  0.0278  0.2256  0.1013
10208W        W10208   7.887   4.350   8.746 -0.2555 -0.0432 -0.0387
10209W        W10209   4.795   6.038   0.261  0.2786 -0.0386  0.1664
10210W        W10210   0.751   5.801   4.123  0.0910 -0.0214 -0.0922
10211W        W10211   0.939   4.451   6.306 -0.1675  0.1181 -0.0564
10212W        W10212   4.654   7.750   4.451  0.4377  0.2268 -0.1985
10213W        W10213   4.722   6.852   5.945 -0.2378  0.0588 -0.1259
10214W        W10214   3.067   1.075   4.081 -0.0025 -0.2030  0.1644
10215W        W10215   9.604   7.822   8.026  0.2543 -0.2815 -0.0787
10216W        W10216   6.653   6.272   4.463  0.1418 -0.1415  0.2716
10217W        W10217   4.854   0.720   8.009  0.2181  0.0096  0.4186
10218W        W10218   5.299   6.501   7.640 -0.0067 -0.2670 -0.0187
10219W        W10219   1.514   5.790   5.205 -0.1496  0.0818 -0.3430
10220W        W10220   9.071   4.013   5.935 -0.1415 -0.0414 -0.2289
10221W        W10221   8.308   7.127   1.287  0.1194 -0.1660  0.0830
10222W        W10222   0.250  10.254   1.053 -0.0214 -0.3378 -0.2413
10223W        W10223   7.558   3.701   7.164  0.1393 -0.0845 -0.0904
10224W        W10224   4.666   1.792   4.805  0.0793  0.0255  0.1322
10225W        W10225   2.806   1.733   1.928 -0.0587  0.1316  0.0844
10226W        W10226   3.130   4.117   6.153  0.2299 -0.1040 -0.0947
10227W        W10227   6.366   3.732   2.821 -0.0166  0.1570  0.2646
10228W        W10228   3.551   4.986   3.572  0.0676  0.1033  0.2252
10229W        W10229   6.185   7.407   4.015 -0.1779 -0.3439 -0.2352
10230W        W10230   8.392   3.363   3.514  0.0354 -0.1643 -0.3234
10231W        W10231   0.904   7.909   3.634  0.2893 -0.0878  0.1572
10232W        W10232   5.053   0.542   0.391  0.2448  0.1207  0.0671
10233W        W10233   8.127   7.289   4.050  0.0272  0.1766  0.0220
10234W        W10234   1.636   4.560   4.167  0.2119 -0.3280 -0.0968
10235W        W10235   0.340   9.428   8.778  0.3022 -0.0514 -0.3249
10236W        W10236   7.734   7.582   3.308 -0.0918 -0.0727 -0.0637
10237W        W10237   7.199   9.205   2.248  0.1754  0.0935  0.2360
10238W        W10238   2.274   5.605  10.159 -0.1191  0.0742 -0.2818
10239W        W10239   4.715   3.898   2.608 -0.1199  0.1137  0.0008
10240W        W10240   9.850   8.281   4.523  0.1982 -0.1975  0.1731
10241W        W10241   1.907   6.596   7.854  0.2355  0.0616 -0.0093
10242W        W10242   4.674   2.868   0.553 -0.3101 -0.0328  0.2075
10243W        W10243   0.709   4.381   2.484  0.0644  0.2190 -0.0300
10244W        W10244   1.969   3.026   2.324  0.0314  0.2706  0.3261
10245W        W10245   4.137   2.346   2.366 -0.0517 -0.0516 -0.2572
10246W        W10246   9.976   9.069   1.800 -0.0434 -0.3563  0.0927
10247W        W10247   1.081   8.113   1.495 -0.0325  0.0043 -0.1495
10248W        W10248   3.302   9.047   2.602 -0.2323 -0.1386  0.1715
10249W        W10249   6.183   5.283   3.433 -0.2736 -0.0204  0.1101
10250W        W10250   4.470   7.648   8.792 -0.0096  0.0388 -0.4669
10251W        W10251   3.397  10.180   6.799 -0.1155  0.2192 -0.0590
10252W        W10252   0.122   0.222   9.266 -0.1397 -0.0502  0.0398
10253W        W10253   1.354   7.646   9.107  0.0643  0.1243 -0.0407
10254W        W10254  10.149   6.683   2.115 -0.1022  0.0037 -0.0773
10255W        W10255   5.598   7.412   2.482  0.1821  0.2656  0.1378
10256W        W10256   5.090   9.052   5.909 -0.2155 -0.0906 -0.1413
10257W        W10257   8.937   7.167   4.527  0.0530  0.0005  0.1638
10258W        W10258   8.024   7.649   4.334  0.2075 -0.0036  0.2574
10259W        W10259   5.812   8.328   5.808 -0.0018 -0.0322  0.6447
10260W        W10260   2.888   0.005   7.969 -0.2875 -0.1869  0.2550
10261W        W10261   3.118   6.392   6.996 -0.0623 -0.2140  0.2756
10262W        W10262   3.683   3.338   5.936  0.3760  0.0545  0.0663
10263W        W10263   3.633   2.144   7.075  0.0991 -0.2980 -0.3568
10264W        W10264   1.295   3.693  10.078 -0.0451  0.0211 -0.0761
10265W        W10265   7.343   7.490   7.104 -0.0314  0.1517 -0.0255
10266W        W10266   1.872   0.683   5.703  0.1699 -0.0370  0.1016
10267W        W10267   4.361   7.921   6.327 -0.1302  0.2622 -0.4503
10268W        W10268   5.529   0.265   7.758  0.1378  0.1648  0.0802
10269W        W10269   1.211   2.640   5.749  0.3382  0.0036 -0.0979
10270W        W10270   3.430   7.903   1.869 -0.0251 -0.0665  0.3751
10271W        W10271   0.732   3.218   7.854 -0.1533 -0.2574 -0.0612
10272W        W10272   9.099   2.366   4.457 -0.2557  0.0081  0.1410
10273W        W10273   4.437   2.668   6.014  0.0460 -0.1894  0.1496
10274W        W10274   3.688   5.613   7.648  0.1644  0.2047  0.1403
10275W        W10275   8.769   5.821   6.203  0.0842  0.0911 -0.0527
10276W        W10276   5.238   7.707   6.961  0.0962  0.0710 -0.0243
10277W        W10277   2.794   4.514   1.706  0.1189  0.0913 -0.1521
10278W        W10278   9.781   6.856   8.374  0.1557  0.3277 -0.0070
10279W        W10279   5.342   0.055   6.565  0.2959 -0.2702 -0.0200
10280W        W10280   0.041   2.121   4.214 -0.2661 -0.2080 -0.0933
10281W        W10281   3.385   4.527   9.482  0.0815  0.2751 -0.1912
10282W        W10282   7.292   4.086   7.887 -0.0876 -0.1183  0.1791
10283W        W10283   6.550   8.799   3.099 -0.0349 -0.2117  0.0164
10284W        W10284   6.688   3.678   9.423  0.0975 -0.0877 -0.0235
10285W        W10285   8.672   2.756   8.694 -0.2043  0.4386 -0.2415
10286W        W10286   2.326   2.895   7.800  0.0310 -0.0675 -0.1344
10287W        W10287   9.487   8.237   5.054  0.0362  0.0661  0.0008
10288W        W10288   3.101   0.039   0.087  0.2095  0.0036  0.2271
10289W        W10289  10.086   8.261   8.684  0.1797  0.0507  0.4215
10290W        W10290   7.843   0.201   4.902  0.0097 -0.1390  0.1045
10291W        W10291   8.202   3.354   5.352  0.0339  0.2191 -0.0648
10292W        W10292   2.794   8.756   6.710  0.3315  0.1462 -0.0895
10293W        W10293   3.562   0.343   0.493 -0.2406  0.1351 -0.2363
10294W        W10294   4.322   2.906   8.380  0.1436 -0.2906 -0.1859
10295W        W10295   1.429   5.562   6.101  0.0589  0.0297 -0.0843
10296W        W10296   3.084   5.683   7.672  0.1395 -0.2564 -0.2638
10297W        W10297   4.550   0.961   6.003  0.0783 -0.4418 -0.0825
10298W        W10298   4.688   3.516   5.507  0.4659 -0.1655 -0.1665
10299W        W10299   2.235   6.253   6.196  0.0105 -0.1153 -0.0313
10300W        W10300   6.480   6.029   9.583  0.0057  0.0546 -0.2176
10301W        W10301   8.277   4.250   9.048 -0.1920  0.0759 -0.1294
10302W        W10302   4.167   5.842   9.957 -0.2319 -0.2173  0.1980
10303W        W10303   9.756   7.082   5.175 -0.1473  0.3061  0.3467
10304W        W10304   6.760   7.094   0.746  0.0112 -0.0907  0.0733
10305W        W10305   4.498   1.374   0.872 -0.1716 -0.0982  0.0373
10306W        W10306   8.170   2.721   2.508  0.0724  0.1715 -0.0072
10307W        W10307   3.298   4.504   5.526  0.1982 -0.3031  0.1795
10308W        W10308   4.972   4.202   1.067 -0.0031 -0.0868  0.0903
10309W        W10309   0.734   9.223   3.110  0.0793  0.1340  0.4308
10310W        W10310   1.190   1.601   2.673  0.2472  0.1244 -0.0023
10311W        W10311   3.931   4.572   2.367  0.1749 -0.0007 -0.1002
10312W        W10312   1.341   7.838   2.968 -0.1491  0.1905  0.0457
10313W        W10313   2.634   5.750   6.749 -0.1230 -0.0899 -0.1388
10314W        W10314   0.946  10.299   7.150 -0.2878  0.2203  0.1461
10315W        W10315   2.504   6.324   0.040 -0.2036 -0.0753 -0.1057
10316W        W10316   5.928   5.592   5.339 -0.1754 -0.0489 -0.1785
10317W        W10317  10.340   7.712   3.444  0.1230 -0.3550 -0.1267
10318W        W10318   9.814   1.393   2.658  0.0628 -0.1248  0.0973
10319W        W10319   6.607   0.010   6.249  0.0245 -0.0966  0.0058
10320W        W10320   4.980   6.078   3.845 -0.0617 -0.0379  0.0817
10321W        W10321   3.318   2.453   6.630  0.0064  0.0769  0.0264
10322W        W10322   4.122   2.879   2.000 -0.4324 -0.0518  0.0868
10323W        W10323   5.750   7.391   6.055 -0.2199  0.1154 -0.2436
10324W        W10324   1.155   4.864   0.633  0.1154  0.3344  0.0820
10325W        W10325   4.327   9.156   5.029  0.2549 -0.0062  0.2546
10326W        W10326   4.578   1.912   6.690  0.1110  0.1363  0.0259
10327W        W10327   8.608  10.284   2.126  0.1519  0.2253 -0.0239
10328W        W10328   6.852   9.782   8.740  0.2333 -0.0388  0.2416
10329W        W10329   1.041   9.169   4.638  0.1688 -0.0689  0.4457
10330W        W10330   8.800   4.606   2.412  0.0608 -0.1952  0.1669
10331W        W10331   9.908   8.404   7.933 -0.1185  0.0482 -0.0084
10332W        W10332   2.418   3.265  10.086  0.2131 -0.1743 -0.0497
10333W        W10333   8.016   5.909   9.060  0.0245  0.2077  0.1104
10334W        W10334   4.390   2.499  10.106  0.0228  0.0239  0.0958
10335W        W10335   5.758   1.138   5.662  0.1370 -0.3545 -0.4903
10336W        W10336   5.130   0.654  10.201 -0.2290 -0.1408  0.1632
10337W        W10337  10.310   6.688   0.204 -0.0942  0.1686 -0.2298
10338W        W10338   8.664   8.717   9.800  0.0142 -0.0310  0.2681
10339W        W10339   0.391   9.444   2.767  0.3070  0.3349  0.0492
10340W        W10340   8.241   9.453  10.004  0.3112 -0.0756 -0.1114
10341W        W10341   1.190   2.399   7.498  0.0176 -0.2784  0.2901
10342W        W10342   7.067   9.785   2.858 -0.0287  0.1463  0.2385
10343W        W10343   3.497   7.074   8.881  0.2227 -0.1625  0.1272
10344W        W10344   8.784   0.798   9.360 -0.0488  0.0229  0.2019
10345W        W10345   9.669   0.241   5.072 -0.1037 -0.3215 -0.0294
10346W        W10346   4.027   1.495   1.938 -0.0735 -0.2463  0.1527
10347W        W10347   8.522   1.210   2.132  0.2128  0.1387  0.1042
10348W        W10348   1.512   7.705   7.267  0.2023 -0.0965 -0.0990
10349W        W10349   1.120   2.145   4.415  0.0278 -0.2568 -0.2579
10350W        W10350   6.757   4.543   7.659  0.0950 -0.0304 -0.0042
10351W        W10351   9.041   1.666   1.751 -0.1248 -0.1162  0.3273
10352W        W10352   6.947   7.712   9.864  0.0777  0.1671 -0.1171
10353W        W10353   3.245   6.393   3.123 -0.1997  0.0517 -0.0253
10354W        W10354   6.046   1.259   1.710  0.1549 -0.2428 -0.3706
10355W        W10355   6.984   6.202   6.217 -0.0189  0.1119 -0.1523
10356W        W10356   0.590   7.482   2.693  0.1602 -0.3867 -0.0446
10357W        W10357   4.284   4.010   0.273  0.1634  0.0063 -0.4365
10358W        W10358   4.660   9.765   6.727  0.0881  0.1721 -0.0368
10359W        W10359   6.241   3.203   2.763 -0.1420  0.1222 -0.0220
10360W        W10360   7.897  10.146   1.331 -0.0142  0.1806 -0.0875
10361W        W10361   6.593   6.324   0.708 -0.4160  0.1352  0.0846
10362W        W10362   2.897   3.007   7.789  0.0058 -0.0976  0.0566
10363W        W10363   4.975   1.992   3.515  0.0737  0.0837 -0.0124
10364W        W10364   6.439   7.866   2.894 -0.0349  0.4414  0.1640
10365W        W10365   3.283   7.459   7.979  0.1328  0.0797  0.0992
10366W        W10366   8.500   5.062   8.943  0.1571 -0.1279 -0.1305
10367W        W10367   5.429   9.538   9.705  0.2289 -0.1341 -0.0379
10368W        W10368   6.901   9.078   6.092  0.0856 -0.3237  0.1066
10369W        W10369   4.978   7.595   7.918  0.0289  0.2607  0.4142
10370W        W10370   9.746   9.802   5.676  0.1714  0.1245 -0.0280
10371W        W10371   9.640   7.986   7.247 -0.0950  0.0255  0.1429
10372W        W10372   2.191  10.000   0.236 -0.1238 -0.3830  0.0551
10373W        W10373   4.942   5.789   4.753  0.1447  0.1870 -0.2261
10374W        W10374   5.505  10.065   7.346  0.2286 -0.1731  0.0935
10375W        W10375   5.163   5.799   4.237 -0.0028  0.2797 -0.0492
10376W        W10376   7.797   8.641   2.105  0.3528 -0.0785  0.0251
10377W        W10377   7.680   8.534   5.046  0.1238 -0.0273 -0.3211
10378W        W10378   9.844   3.305   7.021  0.1908 -0.2586  0.0868
10379W        W10379   4.577   8.527   2.602 -0.3532 -0.0301 -0.0026
10380W        W10380   9.247  10.072   6.622  0.0427 -0.0185  0.0573
10381W        W10381   0.701   0.097   2.971 -0.2064 -0.4284  0.2959
10382W        W10382   7.627   0.489   5.714 -0.0770  0.2254 -0.0901
10383W        W10383   1.927   5.953   9.205  0.0836 -0.4658  0.0996
10384W        W10384   8.909   3.538   0.285 -0.1293  0.1479 -0.0213
10385W        W10385   0.571   9.849   7.895  0.0599 -0.3281  0.0438
10386W        W10386   6.421   0.520   4.718  0.0730 -0.2557 -0.5230
10387W        W10387   5.352   4.448   3.855 -0.0509  0.0220 -0.1186
10388W        W10388   9.428   3.553   9.816 -0.0974  0.0609 -0.1698
10389W        W10389   4.939   6.485   2.555  0.2616 -0.1007 -0.1563
10390W        W10390   1.400   9.169   0.015 -0.1168 -0.3173  0.0117
10391W        W10391   8.666   6.212   1.812  0.0378 -0.0175  0.1033
10392W        W10392   3.354   3.049   0.098  0.1292 -0.0858  0.1075
10393W        W10393   1.365   5.170   8.754 -0.2202 -0.2140 -0.3843
10394W        W10394   5.449   3.080   4.575  0.0935 -0.1127 -0.0634
10395W        W10395   5.934   9.734   0.099  0.4599  0.0734 -0.2502
10396W        W10396   8.926   4.124  10.217  0.1374  0.2258  0.0922
10397W        W10397   1.312  10.225   8.006  0.1753  0.0823 -0.1785
10398W        W10398   9.659   0.822   5.682 -0.4212  0.0232 -0.1726
10399W        W10399   0.571   4.548   8.995 -0.0363 -0.3638  0.1565
10400W        W10400   7.590   9.198   0.339  0.0983  0.0570  0.0866
10401W        W10401   7.103   4.043   3.597  0.3126  0.1037 -0.2297
10402W        W10402   4.068   2.120   2.961 -0.0197 -0.0001 -0.1221
10403W        W10403   7.299   5.152   8.867 -0.2018  0.1559 -0.0244
10404W        W10404   1.799   9.385   2.192 -0.0511  0.2509  0.0838
10405W        W10405   1.207   8.425   6.082  0.2115  0.2543 -0.1043
10406W        W10406   2.814   7.720   0.801  0.1389 -0.0282 -0.2902
10407W        W10407   1.443   8.789   1.656 -0.0812  0.2186  0.3276
10408W        W10408   2.524   9.680   6.002 -0.4653  0.0863  0.0568
10409W        W10409   4.448   0.667   2.206  0.2182 -0.0190  0.0370
10410W        W10410   3.563   3.660   6.783 -0.0457 -0.3652 -0.3590
10411W        W10411   5.067   5.065   6.124 -0.0262 -0.2925  0.2038
10412W        W10412   3.456   3.367   6.419 -0.1186  0.1506  0.0124
10413W        W10413   2.202   6.642   6.917  0.0439 -0.1312  0.2407
10414W        W10414   8.963   0.093   8.178 -0.1492  0.2586  0.0993
10415W        W10415   4.128   7.149   6.361  0.2460 -0.1831 -0.1537
10416W        W10416   0.259   1.673   5.954 -0.2825 -0.1523  0.1617
10417W        W10417   8.421   5.129   1.730 -0.1270 -0.3743  0.1544
10418W        W10418   9.035   6.013   4.395 -0.0633  0.0881 -0.0149
10419W        W10419   0.077   0.442   7.734  0.3612  0.1016 -0.3536
10420W        W10420   7.277   8.229   3.960  0.0295  0.0567  0.1282
10421W        W10421   3.502  10.062   1.495  0.0101 -0.3100  0.0711
10422W        W10422   7.215   1.286   6.349  0.0430  0.0151  0.0307
10423W        W10423   8.198   1.989   8.603 -0.1463 -0.3888  0.3366
10424W        W10424   2.595   9.669   8.670  0.2166  0.0793 -0.1683
10425W        W10425   2.799   5.813   2.170 -0.1307 -0.1107  0.1096
10426W        W10426   4.505   5.086   0.099 -0.0519 -0.0987  0.0133
10427W        W10427   7.503   6.316   8.539 -0.1935  0.3381 -0.1269
10428W        W10428   3.821   0.141   2.232 -0.0889 -0.0042 -0.0726
10429W        W10429   1.904   5.797   0.226  0.2011 -0.2389 -0.1403
10430W        W10430   9.231  10.313   7.798 -0.0514  0.0190  0.1024
10431W        W10431   5.173   8.122  10.168 -0.0548 -0.0935  0.0527
10432W        W10432   4.722   9.441   5.764 -0.0845 -0.0441 -0.2569
10433W        W10433   5.854   0.168   7.290  0.1059 -0.2112 -0.2121
10434W        W10434   1.910   6.730   5.583  0.3150  0.0310  0.4042
10435W        W10435   3.737   8.670   6.016  0.3245 -0.1647  0.0450
10436W        W10436   5.890   8.636   7.720 -0.0666  0.0749  0.0731
10437W        W10437   9.680   2.612   9.363 -0.0465 -0.3812  0.3273
10438W        W10438  10.305   2.808   4.755 -0.0247 -0.2548  0.1413
10439W        W10439   6.288   3.995   8.095  0.0746 -0.2599  0.3896
10440W        W10440   5.587   0.784   2.911 -0.1040  0.1300  0.2309
10441W        W10441   9.884   9.875   6.608  0.0232 -0.0109 -0.1435
10442W        W10442   6.381   0.848   1.772  0.3678 -0.1502 -0.3541
10443W        W10443   2.691   2.376   5.878 -0.2363 -0.0580 -0.0169
10444W        W10444   1.555   9.846   5.610  0.1912 -0.2343 -0.3464
10445W        W10445   8.648   3.766   8.302  0.0406 -0.1916  0.1739
10446W        W10446   4.898   3.861   6.639  0.1547 -0.0579  0.0331
10447W        W10447   5.442   6.435   2.817  0.0637  0.3026 -0.0348
10448W        W10448   9.232   7.439   8.832  0.4367 -0.1870 -0.1501
10449W        W10449   7.910   6.181   7.463  0.1184  0.0167 -0.0037
10450W        W10450   8.548   6.971   8.365 -0.1558 -0.0181  0.2785
10451W        W10451   1.710   5.479  10.170  0.2225  0.4708  0.1501
10452W        W10452  10.213   3.272   0.293 -0.0850 -0.0010 -0.0791
10453W        W10453   7.818   9.620   8.258 -0.0262 -0.0688 -0.1481
10454W        W10454   5.538   3.594   5.000 -0.0935  0.0900 -0.1681
10455W        W10455  10.168   9.719  10.048 -0.4083 -0.1524  0.0060
10456W        W10456   3.917   2.863   2.486  0.1925 -0.3669 -0.1333
10457W        W10457   1.599   0.111   5.508 -0.1491 -0.0901 -0.0500
10458W        W10458   7.889   3.056   3.308  0.0357 -0.4688  0.0745
10459W        W10459   2.808   8.123   3.144  0.1699 -0.2024 -0.0019
10460W        W10460   8.152   9.526   6.655  0.0868  0.0396  0.2546
10461W        W10461   1.292   8.875   9.841  0.2135  0.1018 -0.0643
10462W        W10462   1.021   8.622   8.400  0.1122  0.2213  0.1343
10463W        W10463   6.444   8.758  10.259 -0.1758  0.0174 -0.1204
10464W        W10464  10.096   2.206   2.616  0.1326 -0.0450 -0.2331
10465W        W10465   3.897   6.809   9.116  0.0793 -0.0303  0.0554
10466W        W10466   4.631   9.451   9.164 -0.1956 -0.1302  0.1209
10467W        W10467   9.256   3.157   9.359  0.4150 -0.3924 -0.0368
10468W        W10468   5.593   6.774   4.145 -0.1110  0.0950  0.0143
10469W        W10469   0.452   5.320   7.230  0.0859  0.0314  0.1593
10470W        W10470   7.031   3.045   6.773 -0.3576  0.2655 -0.2034
10471W        W10471   3.162   2.148   1.978  0.0578  0.3908 -0.1533
10472W        W10472   6.529   5.181   2.259 -0.1397  0.0762 -0.2735
10473W        W10473   6.360   0.301   5.177  0.1726  0.1117  0.0008
10474W        W10474   5.909   7.319   6.999  0.0192 -0.1602  0.0545
10475W        W10475   1.802   1.679   8.461  0.2104 -0.0798 -0.1472
10476W        W10476   3.975   5.011   7.125 -0.2457  0.1268  0.1020
10477W        W10477   2.324   8.032   8.771 -0.1484 -0.0196  0.2702
10478W        W10478   4.579   2.363   0.575 -0.4302 -0.0936 -0.4105
10479W        W10479   7.800   7.303   6.200  0.0397  0.0478  0.0742
10480W        W10480   4.831   0.596   9.264  0.0584 -0.1243 -0.2432
10481W        W10481   3.755   4.699   9.095 -0.0021  0.1937  0.0168
10482W        W10482   4.646   9.613   6.233  0.0777 -0.1155 -0.2760
10483W        W10483   7.771   4.432   2.373 -0.2513  0.2483  0.1000
10484W        W10484   8.581   6.167   5.226  0.1089  0.0092 -0.1270
10485W        W10485   0.230   8.667   2.492  0.2117  0.1457  0.0925
10486W        W10486   6.819   3.084   9.968 -0.1686 -0.1437 -0.2890
10487W        W10487   5.615   4.939   5.990  0.0451 -0.1853  0.3249
10488W        W10488   7.706   9.480   4.017 -0.0373 -0.0873  0.3879
10489W        W10489   0.945   4.890   0.134 -0.2253  0.0641 -0.0046
10490W        W10490   1.520   1.121   5.695  0.1224  0.0686  0.1312
10491W        W10491   2.143   4.836   3.170 -0.2457 -0.3166  0.0781
10492W        W10492   4.547   5.121   3.698  0.1656 -0.1257 -0.0281
10493W        W10493   1.965   2.074   1.900 -0.0137  0.2000  0.0578
10494W        W10494   6.219   0.448   8.763 -0.0873 -0.3311  0.0664
10495W        W10495   2.988   1.596   7.920  0.1025  0.0098 -0.2119
10496W        W10496   1.095   1.013   1.043 -0.1004  0.2819  0.0332
10497W        W10497   8.098   9.079   0.330  0.0096  0.1596 -0.1857
10498W        W10498   1.340   9.684   8.553 -0.1784  0.0014  0.2967
10499W        W10499   8.234   3.323   2.971  0.3110 -0.2226  0.1922
10500W        W10500  10.255   4.537   4.167  0.0684  0.0630 -0.0425
10501W        W10501   6.221   7.749   7.263  0.1130 -0.2229 -0.0251
10502W        W10502   7.571   4.956   7.839  0.1761 -0.0791 -0.2631
10503W        W10503   3.045   5.373   8.369  0.3490  0.3290 -0.0670
10504W        W10504   7.940   4.437   2.803 -0.1208  0.1616 -0.0995
10505W        W10505   0.695   8.967   4.297 -0.3124 -0.0672  0.1684
10506W        W10506   0.489  10.184   8.480  0.0354 -0.1790  0.0222
10507W        W10507   6.997   7.255   1.672  0.1108  0.0403  0.1007
10508W        W10508   7.642   5.922   2.199  0.1057  0.0872 -0.4011
10509W        W10509   5.765   7.992   8.985  0.2178  0.0673 -0.2500
10510W        W10510   7.372   7.933   1.306  0.0790 -0.2573  0.1494
10511W        W10511   3.487   1.786   5.461  0.0102 -0.4418  0.1246
10512W        W10512   5.291   2.281   1.296  0.1076 -0.2125 -0.0230
10513W        W10513   1.072   3.165   4.920  0.1786 -0.1496  0.2779
10514W        W10514   6.131   0.507   4.346  0.0667 -0.1993  0.1675
10515W        W10515   6.581   5.159   7.431  0.0134  0.3991 -0.0613
10516W        W10516   6.998   6.267   4.973  0.0095 -0.0124 -0.0544
10517W        W10517   4.276   9.969   5.307 -0.2562 -0.0341  0.0245
10518W        W10518   9.318   4.540   9.721  0.1234  0.3875 -0.0805
10519W        W10519   7.130   6.666   8.314  0.0979 -0.2260 -0.0287
10520W        W10520   5.680   1.722   0.382 -0.0800  0.2061  0.1508
10521W        W10521   0.282   7.853   6.918 -0.1046  0.2850  0.1778
10522W        W10522   5.041   3.778   7.140  0.2539  0.0403 -0.1533
10523W        W10523   3.075   1.440   7.395  0.2562 -0.1669  0.0392
10524W        W10524   8.025   9.928  10.293  0.1273 -0.3427  0.0958
10525W        W10525   3.870  10.089   4.203  0.0126  0.0188  0.2362
10526W        W10526   0.956   3.001   5.492  0.1739 -0.3041  0.1067
10527W        W10527   8.648  10.101   9.616  0.2724 -0.3019 -0.1749
10528W        W10528   9.545   7.984   1.356 -0.1442 -0.2660  0.0126
10529W        W10529   9.741   4.835   5.205 -0.3147 -0.1934 -0.0866
10530W        W10530   6.740   3.647   8.871  0.0458  0.1742 -0.0696
10531W        W10531   9.362   4.217   8.300  0.0540 -0.2456 -0.1259
10532W        W10532   3.554   3.275   5.312  0.0925  0.1953 -0.0616
10533W        W10533   0.580   7.627   7.363 -0.1734 -0.0220 -0.0792
10534W        W10534   6.996   5.850   3.973  0.0389  0.0923 -0.3492
10535W        W10535   9.914   1.599   5.744 -0.4083  0.0995 -0.0857
10536W        W10536   9.462   1.824   4.371  0.1610  0.0030  0.3315
10537W        W10537   3.791   6.488   0.057  0.1951  0.0294  0.0936
10538W        W10538   9.678   0.812   1.751  0.1604  0.0365  0.0481
10539W        W10539   0.880   7.419   3.598 -0.0843  0.1207 -0.0026
10540W        W10540   0.602   2.709   6.131 -0.0726 -0.3261 -0.1474
10541W        W10541  10.007   7.231   1.484 -0.4497  0.3343 -0.3517
10542W        W10542   9.977   5.595   4.218 -0.2723 -0.0400 -0.1439
10543W        W10543   5.580   9.036   7.764  0.1536  0.1756 -0.1115
10544W        W10544   1.985   6.479   9.135  0.0011  0.0162 -0.0894
10545W        W10545   5.183   8.694   6.203 -0.1484 -0.0688  0.1277
10546W        W10546   6.294   0.060   4.530 -0.0470  0.1485 -0.0281
10547W        W10547   5.300   4.132   6.728  0.1517  0.1124 -0.0718
10548W        W10548   5.739   3.486   0.937 -0.0077 -0.4092 -0.1575
10549W        W10549   8.348   1.205   4.024 -0.0582 -0.1293  0.0099
10550W        W10550   1.259   8.591   5.154 -0.3013  0.1284  0.3249
10551W        W10551   3.959   5.722   1.816 -0.0121  0.2618 -0.0987
10552W        W10552  10.052   8.455  10.335 -0.0100 -0.0927 -0.2085
10553W        W10553   9.633   1.513   2.188  0.3560 -0.2567 -0.0828
10554W        W10554   1.096   7.836   2.006  0.0760  0.1698  0.2297
10555W        W10555   9.954   4.180   0.506  0.1480 -0.0347 -0.0182
10556W        W10556   8.954   6.210   7.156 -0.1578 -0.1557 -0.4400
10557W        W10557   0.234   2.579   9.638 -0.1087  0.0409  0.1519
10558W        W10558   0.662   8.366   3.852  0.1749  0.1142 -0.1231
10559W        W10559  10.163   5.912   3.629 -0.0210  0.0312  0.0432
10560W        W10560   9.520   3.253   5.583 -0.3832  0.4519 -0.0792
10561W        W10561   3.598   9.478   6.220 -0.1092 -0.0483 -0.0055
10562W        W10562   8.246  10.268   2.574  0.0852  0.1716 -0.4330
10563W        W10563   2.651   0.426   0.137 -0.3320 -0.1285 -0.2377
10564W        W10564   9.337   5.838   1.064  0.3225  0.1060 -0.0834
10565W        W10565   9.830   5.724   7.603  0.2539  0.3003  0.0395
10566W        W10566   7.774   9.864   5.178  0.1249  0.0197 -0.2922
10567W        W10567   9.090   7.353   3.061  0.0433 -0.0885  0.0844
10568W        W10568   8.784   1.194   0.697 -0.2475  0.1604  0.1057
10569W        W10569   8.635   7.644   5.794 -0.1021 -0.1118 -0.2063
10570W        W10570   3.981   4.630   5.218  0.1223  0.2526  0.0696
10571W        W10571   3.306   0.099   9.329  0.1820  0.1731 -0.0803
10572W        W10572   8.953   5.340   4.252 -0.0419  0.0621  0.2549
10573W        W10573   7.424   3.238   0.312  0.1182 -0.1126  0.2581
10574W        W10574   4.352   7.658   0.641 -0.0987  0.0688  0.0307
10575W        W10575   4.853   2.464   1.416 -0.1761 -0.0053  0.1168
10576W        W10576   8.409   0.411   2.671 -0.1033 -0.0263  0.0357
10577W        W10577   5.114   8.677   9.868 -0.1471  0.0795 -0.3402
10578W        W10578   3.989   9.873   2.834 -0.3003  0.0256  0.1033
10579W        W10579   5.428   8.483   4.653 -0.1128 -0.0320  0.1659
10580W        W10580   0.831   2.990   1.390 -0.0517  0.0750  0.2278
10581W        W10581   9.477   4.266   1.921 -0.0621 -0.2675  0.1086
10582W        W10582   4.963   7.557   4.043 -0.1581  0.1462 -0.0034
10583W        W10583   2.991   3.697   4.634 -0.0442 -0.2025  0.0459
10584W        W10584   4.053   2.571   1.270 -0.2646  0.1931 -0.1715
10585W        W10585   8.534   7.105   4.776 -0.2705  0.0751  0.3513
10586W        W10586   5.277   2.283   6.444  0.2759  0.2923  0.1864
10587W        W10587   4.759   2.650   2.807  0.0623  0.0439 -0.1565
10588W        W10588   5.038   3.265   9.191  0.1558  0.0589 -0.2870
10589W        W10589   4.653   5.428   9.112 -0.0829 -0.2700 -0.2261
10590W        W10590   0.530   9.290   3.571  0.2068  0.2876  0.1440
10591W        W10591   8.600   6.833   9.906 -0.1089  0.1803  0.3266
10592W        W10592   1.160   6.556   9.698  0.0256  0.0543 -0.2161
10593W        W10593   0.756  10.151   5.712 -0.0803  0.0913 -0.1413
10594W        W10594   2.538   7.790   2.744  0.0789  0.1610 -0.4897
10595W        W10595   6.012   8.931   9.824 -0.2958  0.2405 -0.1390
10596W        W10596   1.505   3.459   9.366  0.1111  0.0278  0.1675
10597W        W10597   9.810   3.350   7.991  0.2114  0.0236  0.0355
10598W        W10598   0.020   8.616   1.369 -0.0964 -0.1439  0.1230
10599W        W10599   3.338   7.439   4.834  0.4802 -0.3360 -0.1957
10600W        W10600   8.860   5.199   6.862  0.4025  0.2297 -0.2331
10601W        W10601   1.392  10.232   9.500 -0.0318  0.1617 -0.1971
10602W        W10602   2.804   0.288   2.404  0.0651 -0.0907 -0.2922
10603W        W10603   8.446   8.698   2.766  0.3334 -0.2610 -0.0799
10604W        W10604   8.135   1.619   9.025 -0.1198 -0.0436  0.0938
10605W        W10605   3.692   0.477   0.044 -0.1350 -0.3048 -0.1319
10606W        W10606   5.643   9.111  10.089 -0.3258 -0.1085  0.1237
10607W        W10607   8.111   1.128   6.196 -0.0238  0.4565  0.2716
10608W        W10608   9.549   0.671   1.203 -0.1059 -0.0215  0.0982
10609W        W10609   6.021   5.505   9.145 -0.1608 -0.2320  0.2909
10610W        W10610   3.298   7.449   2.079  0.2964  0.2193 -0.0060
10611W        W10611   1.554   2.191   8.291  0.0312  0.0658  0.0716
10612W        W10612   8.818   3.145   7.185  0.2602  0.0182  0.1397
10613W        W10613   5.550   8.394   0.508 -0.1219  0.1548  0.1628
10614W        W10614   9.142   6.947   1.902 -0.0454  0.3832  0.4362
10615W        W10615  10.041   7.863   9.610 -0.1171 -0.2529 -0.0849
10616W        W10616   7.646   5.706   0.360 -0.0212  0.3301 -0.0396
10617W        W10617   3.840   9.068   7.357 -0.0147  0.3785  0.2164
10618W        W10618   5.236   5.156   3.237  0.0611 -0.4415  0.0334
10619W        W10619   0.676   3.835   4.635 -0.0919  0.0425  0.1930
10620W        W10620   1.171   4.138   7.765 -0.2530  0.2926 -0.1655
10621W        W10621   1.347   7.368   3.207 -0.1342  0.3072 -0.1946
10622W        W10622   7.660   0.200   7.940  0.2859  0.2988 -0.1167
10623W        W10623   4.336   0.154   6.546 -0.0666  0.1574  0.2102
10624W        W10624   3.833   6.778   0.972 -0.3006  0.0995  0.1800
10625W        W10625   3.433  10.200   5.067  0.3803 -0.0948  0.1702
10626W        W10626   2.562   3.559   0.238 -0.1653 -0.3034 -0.0262
10627W        W10627   1.566   7.519   0.469 -0.0694  0.1966  0.0584
10628W        W10628   8.038   6.463   3.062  0.0494 -0.4747  0.1922
10629W        W10629   6.481   1.807   3.940 -0.3411 -0.3226  0.1898
10630W        W10630   7.204   0.198   1.414 -0.1356  0.0925 -0.0826
10631W        W10631   6.324   5.328   4.312  0.1316  0.1564  0.0399
10632W        W10632   6.693   1.947   9.388 -0.2221 -0.0776  0.4822
10633W        W10633   0.834   9.443   1.053 -0.0029 -0.0204 -0.1001
10634W        W10634   3.674   3.293   2.331  0.1500  0.4015 -0.0581
10635W        W10635   2.308   7.042   2.246 -0.0359 -0.0740  0.0591
10636W        W10636   8.852   5.123   9.838 -0.1973 -0.0978 -0.1219
10637W        W10637   6.136   3.983   6.879  0.0641  0.0124 -0.0458
10638W        W10638   2.132   5.407   9.267  0.0193  0.0252 -0.0792
10639W        W10639   0.364   9.337   4.022 -0.1330 -0.1098 -0.0591
10640W        W10640   7.266   4.591   7.568 -0.2000  0.1093  0.0579
10641W        W10641   2.115   5.212   7.439 -0.1978  0.1147  0.3447
10642W        W10642   7.722   5.327   1.440  0.0341 -0.0769 -0.2452
10643W        W10643   6.875   5.134   8.480  0.0387  0.3429  0.0106
10644W        W10644   8.636   7.919   8.426 -0.0834  0.0143 -0.0658
10645W        W10645  10.202   3.823   3.843 -0.1122  0.1092 -0.1507
10646W        W10646   6.423   2.863   2.348 -0.2189 -0.2191  0.4075
10647W        W10647   6.313   4.734   7.580 -0.3422  0.1725  0.2069
10648W        W10648   4.483   6.117   0.636 -0.1800  0.4093  0.0248
10649W        W10649   3.559   2.235   6.287 -0.0277 -0.0193 -0.2231
10650W        W10650   1.135   6.256   0.101  0.2850  0.0191 -0.0365
10651W        W10651   6.329   1.020   0.520  0.2414 -0.1444 -0.1203
10652W        W10652  10.145   1.935   7.035  0.2111  0.3891 -0.0310
10653W        W10653   7.330   8.261   9.810  0.0727  0.4030  0.3875
10654W        W10654  10.159   7.852   4.690 -0.0851 -0.2204  0.0430
10655W        W10655   7.921   6.026   8.472 -0.2400 -0.0174 -0.4884
10656W        W10656   4.897   8.951   0.507  0.0759 -0.0623 -0.1453
10657W        W10657   6.209   1.981   4.783 -0.0430 -0.1589 -0.3427
10658W        W10658   3.326   2.916   4.624 -0.1531  0.0505  0.0489
10659W        W10659   3.913   9.790   9.651  0.2215 -0.2770  0.3716
10660W        W10660   1.188   5.802   5.583 -0.2149  0.2679  0.1515
10661W        W10661   3.083   3.957   9.853  0.0473 -0.1236  0.2242
10662W        W10662   1.646   6.476   4.050 -0.0712  0.2702 -0.1251
10663W        W10663   9.549   4.051   1.489 -0.3660 -0.2319  0.2663
10664W        W10664   5.281   7.783   9.123 -0.1085 -0.0545  0.0874
10665W        W10665   7.374   7.343   9.734 -0.0090  0.0055  0.0835
10666W        W10666   9.834   3.314   8.612 -0.2442 -0.0137  0.0155
10667W        W10667   5.437   4.632   6.769  0.0313 -0.1110 -0.0100
10668W        W10668   6.616  10.116   4.997  0.2287 -0.0855  0.0277
10669W        W10669   9.412   9.561   6.627  0.4613 -0.0616 -0.0888
10670W        W10670   6.519   6.956   7.981  0.1414 -0.2449 -0.0456
10671W        W10671   7.659   2.851   0.086 -0.3983 -0.0510 -0.1649
10672W        W10672   8.525   9.946   1.791 -0.2423  0.1939  0.1151
10673W        W10673   9.028   5.170   4.741  0.0609 -0.0806 -0.4518
10674W        W10674   0.387   8.736   7.128 -0.1520  0.1048 -0.2453
10675W        W10675   9.628   2.072   8.142  0.2539 -0.1324  0.0371
10676W        W10676   7.662   0.329   7.059  0.1155  0.3385 -0.2018
10677W        W10677  10.011  10.114   8.223  0.2710 -0.2227 -0.0751
10678W        W10678   8.872   3.553   8.704 -0.1966 -0.1158 -0.0046
10679W        W10679   8.945   5.896   8.886  0.0073  0.2137 -0.1776
10680W        W10680   6.027   3.730  10.104  0.0608  0.2868  0.1516
10681W        W10681   6.124   4.474   7.183 -0.0398  0.0595  0.0907
10682W        W10682  10.081   4.365   9.852 -0.3459 -0.2687 -0.1584
10683W        W10683   8.845   1.920   5.164 -0.2062 -0.3008 -0.1152
10684W        W10684   9.527   6.022   4.199 -0.3791  0.1368 -0.0904
10685W        W10685   2.437   3.424   3.138 -0.0622  0.0961  0.2199
10686W        W10686   8.127   0.910   9.819  0.3614 -0.0665 -0.0352
10687W        W10687   8.303   1.326   0.432  0.1142 -0.1241  0.2208
10688W        W10688   0.650   7.918   0.298 -0.0907  0.0011  0.3331
10689W        W10689   6.081   7.985  10.193 -0.1871  0.3303 -0.0990
10690W        W10690   3.480   5.539   8.412  0.4012  0.0024 -0.1620
10691W        W10691   6.217   5.449   2.583 -0.1673  0.4578 -0.2580
10692W        W10692   8.858   2.945   9.171 -0.4695  0.2759 -0.0665
10693W        W10693   0.246   6.769   5.099 -0.0190  0.3995  0.4158
10694W        W10694   7.435   5.977   3.646  0.0283 -0.2913  0.0924
10695W        W10695   6.905   1.758   6.381 -0.2109  0.4053  0.1356
10696W        W10696   0.721   2.429   8.989 -0.3045 -0.1559 -0.1372
10697W        W10697   3.580   2.410   8.654  0.1806 -0.0098 -0.0928
10698W        W10698   4.517   3.840   5.123  0.0545  0.2094  0.5860
10699W        W10699   5.550   1.329   4.813 -0.0116 -0.1199 -0.0531
10700W        W10700   5.206   6.655   5.999 -0.3927 -0.2268  0.3354
10701W        W10701   7.439   4.026   0.259  0.2429 -0.3031  0.0911
10702W        W10702   3.583   7.506   8.650  0.2908  0.0158 -0.1854
10703W        W10703   7.430   5.717   1.620 -0.2262 -0.1460 -0.0064
10704W        W10704   9.925   4.811   6.206  0.1374 -0.3887 -0.0714
10705W        W10705   0.512   0.377   1.268 -0.1255  0.3665 -0.1803
10706W        W10706   6.836   2.764   4.951 -0.2098 -0.0826  0.1477
10707W        W10707   3.128   4.125   1.722  0.1026  0.3746 -0.1362
10708W        W10708  10.239   9.203   9.850  0.1645 -0.0429 -0.2717
10709W        W10709   8.804   3.934   9.261  0.0355 -0.1669  0.1394
10710W        W10710   5.305   1.497   6.854 -0.0648 -0.1169  0.3225
10711W        W10711  10.259   2.077  10.185 -0.2449  0.1581  0.0199
10712W        W10712   6.464   6.536   6.993  0.1913  0.0146 -0.3876
10713W        W10713   2.781   8.272   6.441  0.2108 -0.0732  0.0207
10714W        W10714   3.781   6.555   1.437 -0.0780 -0.0705  0.1209
10715W        W10715   0.426   9.580   7.447 -0.0450  0.0987  0.1244
10716W        W10716   0.117   7.384   3.801  0.3865 -0.2055 -0.2775
10717W        W10717   6.236   1.558  10.111 -0.1961 -0.3628  0.1933
10718W        W10718   3.616   5.623   5.070  0.1648  0.1995 -0.1518
10719W        W10719   5.669   6.481   5.214  0.0707 -0.1293  0.1644
10720W        W10720   6.470   2.730   7.153 -0.0254 -0.1919 -0.1392
10721W        W10721   0.996   1.129   7.741  0.0398  0.1384 -0.3116
10722W        W10722  10.311   9.354   0.052  0.0837 -0.0976  0.2413
10723W        W10723   9.591   7.348   3.093  0.2346 -0.0731  0.1425
10724W        W10724   3.709   1.230   9.595 -0.0624 -0.0591  0.0224
10725W        W10725   5.138   9.412   4.452  0.1680 -0.3694 -0.2445
10726W        W10726   2.878   4.598   6.355 -0.0873  0.0328  0.2318
10727W        W10727   7.070   6.359   7.264 -0.0382 -0.1357 -0.1645
10728W        W10728   7.129   4.169   6.597 -0.0861  0.1665 -0.0102
10729W        W10729   2.912   9.286   7.354  0.2715  0.4167 -0.3216
10730W        W10730   2.181   8.939   5.345  0.0509  0.1683  0.2703
10731W        W10731   7.496   8.795   4.615  0.2592  0.0240 -0.2316
10732W        W10732   4.565   3.017   6.365  0.0892  0.0484  0.0691
10733W        W10733   4.218   6.098   0.050 -0.1135  0.0849 -0.2347
10734W        W10734   3.939   3.772   5.891  0.0078  0.2327 -0.0160
10735W        W10735   9.515   0.623   6.173  0.0011 -0.0802 -0.1203
10736W        W10736   9.872   6.037   4.937 -0.0739  0.0308  0.1353
10737W        W10737   0.842   0.067   0.987 -0.2929  0.4528 -0.1110
10738W        W10738   9.726   6.533   6.546 -0.1293 -0.1800  0.1590
10739W        W10739   2.752   4.477   5.427  0.1322  0.0653 -0.1207
10740W        W10740   7.464   6.860   3.576  0.0157 -0.0967  0.0661
10741W        W10741   5.649   6.242   1.748  0.3849  0.1270  0.0517
10742W        W10742   0.403   5.434   0.918  0.2225 -0.0714 -0.2106
10743W        W10743   3.151   2.292  10.244 -0.1262  0.1247 -0.0189
10744W        W10744   2.916   5.903   3.199  0.1954 -0.0529 -0.0495
10745W        W10745   8.326   5.713   5.290  0.1266 -0.2189 -0.2389
10746W        W10746   6.274   2.958   1.819  0.1076  0.1528 -0.0605
10747W        W10747   5.306   0.810   7.809 -0.1539 -0.0981 -0.0318
10748W        W10748   4.978   5.857   5.976  0.3279 -0.2214  0.3167
10749W        W10749   7.058   4.361   9.897  0.0670 -0.1096  0.0310
10750W        W10750   2.982   7.684   5.113  0.1548  0.1871 -0.1112
10751W        W10751   4.293   8.576   5.721  0.4195  0.2538  0.0899
10752W        W10752   7.009   5.379   3.726  0.1893 -0.1874 -0.0602
10753W        W10753   8.352   3.209   7.909  0.0423  0.1620 -0.2436
10754W        W10754   4.310   7.573   9.888  0.2195  0.0307 -0.2521
10755W        W10755   1.545   0.309   5.995 -0.1871 -0.2289 -0.0808
10756W        W10756   2.384   9.433   1.408 -0.2319 -0.0863 -0.0109
10757W        W10757   8.674   9.268   1.317 -0.1681 -0.3281  0.0086
10758W        W10758   1.800  10.210   5.958  0.3904 -0.1760 -0.1539
10759W        W10759   6.734   1.663   1.514 -0.0082  0.2625 -0.2669
10760W        W10760   3.078   2.710   0.318  0.0715 -0.0250 -0.0702
10761W        W10761   2.152   9.356   4.144  0.0052  0.0412 -0.1614
10762W        W10762  10.116   0.712   3.005 -0.0830 -0.3371 -0.2369
10763W        W10763   1.959   7.381   0.854 -0.0180 -0.1576 -0.0246
10764W        W10764   3.109   6.809   3.420  0.2175 -0.1209  0.2010
10765W        W10765   3.757   8.112   4.275 -0.2658  0.0355 -0.2424
10766W        W10766   1.298   4.961   5.036  0.0149 -0.1961  0.0304
10767W        W10767   6.974   3.594   9.898 -0.0711 -0.0756 -0.1603
10768W        W10768   5.188   8.203   8.803 -0.0870  0.4749  0.0717
10769W        W10769   7.113   7.071   7.922  0.2780 -0.0043 -0.1411
10770W        W10770   7.985   9.615   6.167  0.2156 -0.4987 -0.3555
10771W        W10771   4.939   4.329   2.865  0.0249 -0.2433 -0.0511
10772W        W10772   1.121   2.449   2.249 -0.2423 -0.1775 -0.0040
10773W        W10773   5.446   0.843   4.955 -0.3059  0.0605 -0.1244
10774W        W10774   0.168   0.443   6.119  0.0591 -0.1513 -0.2046
10775W        W10775   2.049   6.163   3.855 -0.1200  0.0386 -0.0506
10776W        W10776   0.005   9.770   7.779 -0.0979  0.2039 -0.0202
10777W        W10777   9.803   0.654   4.729  0.1458 -0.0322  0.1699
10778W        W10778   0.277   5.023   5.318 -0.0407 -0.1176  0.1128
10779W        W10779   2.531   8.675   0.817  0.1156  0.1595  0.1254
10780W        W10780   2.206   5.511   8.232  0.1707  0.1302  0.1639
10781W        W10781   0.602   3.838   3.334 -0.1302 -0.2875 -0.1199
10782W        W10782   3.437   2.825   8.965 -0.0384  0.0331 -0.1432
10783W        W10783   4.044   6.169   6.409  0.2479 -0.2299  0.3496
10784W        W10784   5.454   7.250   7.194  0.0301  0.0844  0.3536
10785W        W10785  10.064   0.453   6.447 -0.1570 -0.0311  0.1173
10786W        W10786   1.036   1.931   5.247  0.2268 -0.0909  0.0866
10787W        W10787   9.087   4.749   1.891  0.2788  0.3509 -0.0018
10788W        W10788   9.081   6.478   8.954 -0.1030  0.0728 -0.2293
10789W        W10789   3.836   4.180   7.977  0.0502  0.0710 -0.0080
10790W        W10790  10.224   4.642   0.487  0.0212  0.0490 -0.2179
10791W        W10791   3.433   0.145   6.198 -0.0808 -0.1187 -0.1641
10792W        W10792   3.234   3.166   2.116  0.0750  0.1125  0.3140
10793W        W10793   2.296   7.944   6.399  0.5131  0.3595  0.0651
10794W        W10794   1.624   7.395   1.802  0.0268 -0.1777 -0.0718
10795W        W10795   0.437   0.993   2.802  0.2953 -0.3781 -0.0272
10796W        W10796   8.021   5.507   0.604 -0.0972 -0.0097  0.3685
10797W        W10797   8.859   1.114   3.119 -0.0601 -0.1911  0.0547
10798W        W10798   6.892   4.457   3.420  0.0708 -0.1091  0.0032
10799W        W10799   7.111   4.714   1.207 -0.3647  0.0502 -0.1548
10800W        W10800   6.159   1.440   3.986  0.0358 -0.2993  0.0875
10801W        W10801   9.050   4.279   1.501  0.1254 -0.5502  0.0708
10802W        W10802   2.530   8.269   0.163  0.0474  0.1196 -0.0056
10803W        W10803   4.216   6.410   9.345 -0.2298 -0.1753 -0.1483
10804W        W10804   1.787   9.032   4.373  0.4443  0.0116  0.1117
10805W        W10805   4.449   1.239   2.389  0.0321  0.4098  0.1616
10806W        W10806   6.791   9.562   9.927  0.1213 -0.0318  0.0248
10807W        W10807   8.157   9.653   3.706 -0.0177 -0.2229  0.0337
10808W        W10808   8.677   9.614   0.528 -0.0423 -0.0587  0.0484
10809W        W10809   1.032   9.179   5.585  0.0699  0.2088 -0.1012
10810W        W10810   8.874   3.458   9.253 -0.0649 -0.1296 -0.1845
10811W        W10811   3.371   6.921   9.386  0.3285  0.0024  0.0852
10812W        W10812   0.725   0.309   7.477 -0.0064 -0.1417 -0.1736
10813W        W10813   7.472   8.992   7.212  0.0007  0.2163 -0.0872
10814W        W10814   6.286   2.288   6.076  0.2764  0.0182  0.0360
10815W        W10815   6.530   6.847   5.195  0.2980 -0.2693  0.0377
10816W        W10816   2.553   3.256   4.624 -0.2261  0.1678 -0.0285
10817W        W10817   4.254   8.772   6.249 -0.0995  0.0595  0.3819
10818W        W10818   8.309   7.459   6.173  0.0991 -0.2227 -0.1326
10819W        W10819   2.366   9.732   7.699  0.1869 -0.1204  0.1585
10820W        W10820   4.989   0.364   6.997  0.2301 -0.2012  0.2630
10821W        W10821   8.402   0.254   3.830  0.1280 -0.0768 -0.2041
10822W        W10822   9.017   0.503   1.159 -0.0150 -0.2413  0.1519
10823W        W10823   7.595   0.192   4.433 -0.0215  0.2765 -0.1541
10824W        W10824   5.058   2.488   1.889  0.0425  0.2660  0.3004
10825W        W10825   7.889   3.644   3.258  0.0075 -0.1179 -0.0347
10826W        W10826   9.586   8.281   3.436  0.0730 -0.0953  0.3214
10827W        W10827   5.178   6.453   1.545 -0.1325 -0.0336  0.3046
10828W        W10828   0.811   2.519   1.769 -0.0595 -0.0051  0.1920
10829W        W10829   3.581   3.338   3.417  0.2150  0.1887  0.0110
10830W        W10830   8.436   5.053   8.430  0.3101  0.2809 -0.0766
10831W        W10831   1.074   1.077   9.397  0.0886 -0.1802 -0.0752
10832W        W10832  10.328   9.043   6.923  0.0015  0.1488  0.0239
10833W        W10833   6.974   9.000   1.795 -0.0752  0.2552  0.1980
10834W        W10834   1.239   2.654   1.409  0.1787 -0.1140 -0.0735
10835W        W10835   0.381  10.274   3.807 -0.2077  0.2872 -0.1111
10836W        W10836   5.337   8.109   9.686 -0.1125 -0.1263  0.3436
10837W        W10837   4.794   8.614   5.634 -0.2608  0.0879 -0.1360
10838W        W10838   8.312   3.784   1.322 -0.0739 -0.0843  0.0312
10839W        W10839   8.270   6.031   3.173  0.0486 -0.1724  0.0100
10840W        W10840   4.360   9.163   4.486  0.1504  0.1965 -0.0639
10841W        W10841   5.613   9.763   5.730 -0.0408  0.1260 -0.3334
10842W        W10842   5.610   7.851   1.916 -0.1626 -0.1734  0.3724
10843W        W10843   1.578   8.230   1.571  0.3253  0.3461  0.1512
10844W        W10844   5.485   8.003   2.389  0.0945 -0.0051  0.1766
10845W        W10845   1.068   4.718   1.675  0.2053 -0.0622 -0.2357
10846W        W10846   2.912   5.329   4.820  0.0958  0.0046 -0.1595
10847W        W10847   5.597   9.530   0.874  0.2779  0.2194 -0.0866
10848W        W10848   2.548   1.945   9.496  0.1777 -0.0486  0.2152
10849W        W10849   7.044   9.360   0.349  0.0538  0.0457 -0.0138
10850W        W10850   3.344   0.636   8.519  0.1066 -0.2843  0.0702
10851W        W10851   8.227   9.725   8.020  0.0671  0.2275 -0.1484
10852W        W10852   4.160   2.240   3.442  0.2615  0.0831 -0.0742
10853W        W10853   7.300   0.251   8.870  0.0095  0.0170 -0.0653
10854W        W10854   8.761   7.560   4.786 -0.0052  0.1582  0.0463
10855W        W10855   9.601   8.935   3.399  0.1854  0.0744  0.0344
10856W        W10856   1.031   7.032   7.395  0.1369 -0.0886 -0.1042
10857W        W10857   6.133   3.076   7.400  0.0110 -0.0954  0.0136
10858W        W10858   7.817   0.453   2.095 -0.0114 -0.1430  0.2993
10859W        W10859   0.235   7.395   2.282  0.1672  0.2825  0.0004
10860W        W10860   8.294   8.260   8.300  0.2508 -0.0157  0.1511
10861W        W10861   5.603   8.728   6.542  0.1744  0.0530  0.1578
10862W        W10862   7.789   4.710   3.230 -0.0051  0.0555 -0.0001
10863W        W10863   8.833   0.452   2.490 -0.4858  0.0424 -0.0996
10864W        W10864   7.726   3.902   3.650  0.2311  0.2670 -0.0361
10865W        W10865   2.907  10.046   5.125  0.4237 -0.0545 -0.0440
10866W        W10866   1.815   7.790   6.569 -0.1180  0.1381 -0.1911
10867W        W10867   3.044   9.910   9.506 -0.0540 -0.1684 -0.1142
10868W        W10868   5.443   8.879   8.196  0.1120  0.3458 -0.0283
10869W        W10869   0.254   9.353   2.040 -0.2129  0.1681  0.1301
10870W        W10870   2.844  10.073   2.450 -0.1696 -0.1688 -0.2288
10871W        W10871   1.817   4.792   8.723 -0.0675 -0.2999  0.0110
10872W        W10872   7.003   3.217   3.956 -0.0162 -0.2532  0.0443
10873W        W10873   6.901   0.813   8.213  0.4853  0.1365  0.1748
10874W        W10874   7.799   4.929   3.692  0.3103 -0.2520 -0.1095
10875W        W10875   6.971   0.615   3.032  0.3175  0.1096 -0.1198
10876W        W10876   4.724   6.146   1.866  0.1378  0.0308 -0.3162
10877W        W10877   0.038  10.277   1.719  0.0826  0.0985  0.1358
10878W        W10878   1.874   9.097   1.713 -0.1229  0.0587 -0.0631
10879W        W10879   7.888   9.764   7.645  0.0166 -0.1004 -0.3406
10880W        W10880   6.245   2.634   3.798  0.0602  0.1488  0.2282
10881W        W10881   5.371   2.881   8.669  0.0876 -0.2143  0.1429
10882W        W10882   6.494   9.051   1.841  0.0941  0.1606 -0.0101
10883W        W10883   6.886   7.597   5.702 -0.1761  0.0242 -0.3471
10884W        W10884   7.883   6.217   6.776  0.0648  0.2405  0.1454
10885W        W10885   0.631   6.549   2.645  0.2065 -0.1559 -0.3304
10886W        W10886   6.230   0.388   1.488  0.0164  0.0969  0.0086
10887W        W10887   8.981   4.595   0.724  0.0205 -0.0145  0.1519
10888W        W10888   1.182   7.871   8.265 -0.3665  0.2049  0.2732
10889W        W10889   8.558   6.821   5.209  0.0592  0.2812 -0.0955
10890W        W10890   3.279   3.806   2.156  0.0793  0.0065 -0.0306
10891W        W10891   9.282   3.838   3.662  0.0996 -0.0894 -0.1552
10892W        W10892   6.792   1.194   0.602  0.0411  0.2080  0.1206
10893W        W10893   3.654   2.545   9.729  0.3190  0.0931 -0.1899
10894W        W10894   0.662   1.273   5.803  0.1498 -0.1333 -0.1343
10895W        W10895   2.006   4.168   4.140  0.0163 -0.2013  0.2772
10896W        W10896   9.864   4.905   9.730 -0.1258  0.0073 -0.1636
10897W        W10897   3.461   1.705   9.588  0.2147  0.1354 -0.1010
10898W        W10898   0.869   5.262   9.581 -0.1856 -0.0929  0.0265
10899W        W10899   2.172   4.266   8.080 -0.0019 -0.0239  0.0613
10900W        W10900   5.237   8.887   2.008 -0.1154 -0.0047  0.1324
10901W        W10901   4.904   7.168   4.596  0.2530 -0.2805  0.1385
10902W        W10902  10.101   7.156   7.447 -0.0075 -0.1340 -0.0487
10903W        W10903   8.737   8.604   5.657 -0.3562 -0.2078  0.1943
10904W        W10904   5.156   6.264   2.107 -0.2798 -0.1028  0.1562
10905W        W10905   1.332   1.370   8.635 -0.0486  0.4771  0.3639
10906W        W10906   4.529   0.459   1.780 -0.1664  0.1894  0.0767
10907W        W10907   5.626   5.798   0.802 -0.0628 -0.2784 -0.0104
10908W        W10908   5.399   4.270   0.635  0.0595  0.0991  0.0021
10909W        W10909   3.663   3.137   0.496 -0.1553  0.2988  0.0273
10910W        W10910   2.754   9.227   8.263 -0.0737  0.0114 -0.2788
10911W        W10911   5.583   1.662   5.192  0.3482 -0.1272  0.0039
10912W        W10912   5.389   6.800   9.011  0.2370  0.0672  0.1228
10913W        W10913   9.984   2.058   2.149  0.1750 -0.1316 -0.2832
10914W        W10914  10.138   6.780   7.945 -0.2790 -0.3074  0.3439
10915W        W10915   7.671   8.453   1.633  0.0426 -0.0373 -0.0884
10916W        W10916   3.214   6.835   5.516  0.2454 -0.2052  0.0449
10917W        W10917   5.864   6.776   1.602 -0.0455  0.2565 -0.1383
10918W        W10918   4.408   9.606   4.904  0.0524 -0.2656  0.2512
10919W        W10919   4.158   0.677   7.195  0.0473  0.0472 -0.0861
10920W        W10920   8.961   3.199   9.749  0.1363 -0.3646 -0.2283
10921W        W10921   0.330   9.772   3.687 -0.1319 -0.1571 -0.5532
10922W        W10922   5.149   0.026   4.736  0.0504 -0.3876 -0.0429
10923W        W10923   6.170   9.050   8.431 -0.2670  0.1269  0.0938
10924W        W10924   1.610   4.141   5.955 -0.3772 -0.0471 -0.0806
10925W        W10925   7.595   0.692   3.603  0.3051  0.1338  0.2799
10926W        W10926   1.056   2.679   2.755 -0.1150  0.1745 -0.0160
10927W        W10927   2.183   4.209   7.582 -0.1081 -0.0865  0.2447
10928W        W10928   1.471   8.478   2.920  0.2550 -0.1923 -0.2630
10929W        W10929   9.948   1.606   4.191 -0.2008 -0.1029 -0.1228
10930W        W10930   8.356   0.926   0.812  0.0654 -0.2146 -0.1107
10931W        W10931   5.749   9.318   9.156 -0.0526  0.0095  0.1006
10932W        W10932   3.178   6.542   0.015 -0.2337 -0.2382  0.1994
10933W        W10933   3.397   6.337   5.655 -0.0699  0.1569  0.0730
10934W        W10934   1.761   0.344   0.564  0.2571 -0.0000 -0.0417
10935W        W10935   6.113   5.095   9.482  0.1487 -0.2531  0.2517
10936W        W10936   3.080   7.184   2.498  0.1055 -0.1589  0.1301
10937W        W10937   6.575   7.018   9.335  0.1595 -0.0101  0.3716
10938W        W10938   0.469   6.706   0.699  0.2563 -0.1750 -0.0283
10939W        W10939   8.603   3.744   2.066  0.3959  0.1233 -0.1526
10940W        W10940   3.531   5.959   8.671  0.5406 -0.0917  0.0131
10941W        W10941   1.180   0.748   5.811 -0.3158 -0.1023  0.1109
10942W        W10942   1.718   1.563   5.800 -0.1459  0.1324 -0.1501
10943W        W10943   8.976   4.262   2.040  0.0492 -0.1779 -0.1196
10944W        W10944   1.524   9.045   0.485 -0.4459  0.2942  0.1741
10945W        W10945   1.369   9.200   4.146  0.0563 -0.0491  0.1831
10946W        W10946   8.335   1.263   6.625  0.1998  0.0780  0.2386
10947W        W10947   4.442   7.890   1.124  0.0677  0.3208 -0.2047
10948W        W10948   3.105   9.480   2.372 -0.0006  0.1868 -0.1317
10949W        W10949   6.185   4.237   2.720  0.1999 -0.2370 -0.1103
10950W        W10950   5.267   1.580   6.354 -0.1487 -0.2705  0.2347
10951W        W10951   4.361   6.523   6.154  0.1623 -0.0304 -0.1818
10952W        W10952   7.370   1.039   6.870 -0.1553  0.4196 -0.0211
10953W        W10953   3.928   5.399   1.380  0.0205 -0.0559 -0.0535
10954W        W10954   9.587   1.520   1.730 -0.0587 -0.0462 -0.2728
10955W        W10955   9.818   7.584   7.046  0.1831 -0.0331  0.0413
10956W        W10956   9.973   5.354   9.881  0.0715 -0.0039  0.2216
10957W        W10957   2.492   1.721   0.658  0.0863 -0.1280  0.0266
10958W        W10958   7.691   7.926  10.341 -0.3066  0.2686 -0.1403
10959W        W10959  10.275   2.859   1.153 -0.0937 -0.2946 -0.2380
10960W        W10960   6.522   9.876   3.209  0.3158 -0.0718 -0.0373
10961W        W10961   3.216   3.001   0.807  0.0955  0.0738  0.0589
10962W        W10962   9.850   9.838   2.504  0.0977  0.0619  0.1557
10963W        W10963   5.609   0.719   5.916  0.0779  0.0471  0.1011
10964W        W10964   5.896   8.665   3.894 -0.0315  0.3082  0.0768
10965W        W10965   3.980   6.377   2.584 -0.0909 -0.1285 -0.3677
10966W        W10966   3.676   1.584   8.602 -0.0782 -0.1997 -0.2525
10967W        W10967   2.896   1.636   5.299 -0.0542  0.4717 -0.0312
10968W        W10968   1.058   5.287   5.807 -0.3204 -0.0206 -0.2708
10969W        W10969   1.367   4.949   3.815  0.0328  0.1769 -0.1313
10970W        W10970   7.232   8.182   1.766 -0.0375 -0.2071  0.1532
10971W        W10971   6.083   5.982   1.855 -0.0750 -0.1465 -0.1364
10972W        W10972   2.054   8.680   6.329 -0.1323 -0.2508  0.1783
10973W        W10973   1.078   4.380   3.839  0.1307 -0.1022  0.1800
10974W        W10974   6.425   8.411   2.019  0.3685 -0.3475  0.1434
10975W        W10975   8.780   2.773   2.357 -0.0751  0.2875 -0.3241
10976W        W10976   7.964   5.675   7.512 -0.0108 -0.2127  0.0898
10977W        W10977   5.052   4.570   4.796 -0.3553 -0.0931  0.2479
10978W        W10978   1.699   7.533   9.786  0.0423 -0.2199  0.0696
10979W        W10979   3.277   5.506   8.862  0.0017  0.0715  0.1533
10980W        W10980   8.999   8.050   1.159 -0.2828 -0.2003  0.2464
10981W        W10981   2.365   7.468   5.271  0.0615  0.0972  0.1884
10982W        W10982   1.567   0.050  10.005 -0.2292  0.1196  0.0436
10983W        W10983   7.808   8.156   6.820 -0.1413 -0.0565  0.1318
10984W        W10984   3.751  10.291   9.097  0.0235  0.0255 -0.0291
10985W        W10985   4.593   5.805  10.169 -0.0314 -0.1569 -0.1288
10986W        W10986   3.906   7.507  10.324 -0.0448 -0.1227  0.0314
10987W        W10987   0.897   8.897  10.268  0.0573  0.2483  0.3473
10988W        W10988   2.690   4.316   7.746  0.2742  0.0678  0.0640
10989W        W10989   7.348   8.346   2.703 -0.1441 -0.0751 -0.1326
10990W        W10990   7.140   5.047   2.941  0.4838 -0.2919  0.0927
10991W        W10991   2.920   4.289   8.221 -0.1328  0.1223 -0.0166
10992W        W10992   6.978   6.051   1.110  0.1717 -0.0945  0.0261
10993W        W10993   3.743   9.400   8.553 -0.0228  0.0291 -0.1158
10994W        W10994  10.122   3.917   4.992  0.1956 -0.2128 -0.3973
10995W        W10995   0.829   3.341   7.349  0.0456 -0.0997 -0.2227
10996W        W10996   8.510   5.091   2.675  0.0938  0.2050 -0.1319
10997W        W10997   9.349   7.961   8.953  0.0765 -0.1280  0.1257
10998W        W10998   7.694   5.342   6.109  0.2524  0.2547 -0.0847
10999W        W10999   7.568   1.539   8.290  0.1784  0.1030 -0.1638
11000W        W11000   9.151   2.208   0.953 -0.3029  0.0497 -0.2215
11001W        W11001   7.465   8.141   4.565 -0.0432 -0.0768 -0.1491
11002W        W11002   3.990   8.315   4.862  0.1050  0.2183 -0.1969
11003W        W11003   3.099   2.041   6.826  0.1012 -0.0276  0.0141
11004W        W11004   6.170   2.016   6.529  0.0101 -0.0229  0.0763
11005W        W11005   0.663   9.475   9.734 -0.1431  0.0986 -0.4430
11006W        W11006   7.727   7.972   9.636 -0.2703  0.4353 -0.0991
11007W        W11007   9.413   5.051   5.636  0.1350 -0.0982  0.1645
11008W        W11008   0.962   7.878   8.734  0.0160 -0.4175 -0.1311
11009W        W11009  10.076   4.587   9.374 -0.0156 -0.0531 -0.4337
11010W        W11010   6.564   7.376   7.352 -0.0700 -0.1687 -0.1522
11011W        W11011   9.197   6.676   3.707  0.1073  0.2081  0.1075
11012W        W11012   1.278   9.346   6.790 -0.0070 -0.0262 -0.3567
11013W        W11013   0.294   3.321   1.070  0.2161 -0.2358 -0.0049
11014W        W11014   4.173   3.540   1.702 -0.0914  0.1051 -0.1863
11015W        W11015   5.424   8.212   3.307 -0.0602  0.1555  0.0294
11016W        W11016   4.952   4.947   9.249  0.2505 -0.0670 -0.1463
11017W        W11017   7.893  10.129   6.349  0.0608 -0.0182 -0.0656
11018W        W11018   0.813   2.619   8.364  0.1359  0.1024 -0.0150
11019W        W11019   5.119   2.410   5.278  0.3344  0.1083 -0.0969
11020W        W11020   1.759   5.306   1.796  0.0606  0.0105 -0.0695
11021W        W11021   8.860   1.404   8.474  0.0888 -0.0236  0.3601
11022W        W11022   5.540   0.167   3.167  0.0077 -0.1781  0.2830
11023W        W11023   7.650   9.717   6.543 -0.1326 -0.0862 -0.2501
11024W        W11024   0.943   1.597   1.837 -0.3227 -0.0331  0.0279
11025W        W11025   9.761   6.841   2.419 -0.2526  0.0446  0.3373
11026W        W11026   9.939   7.967   7.679 -0.0942  0.1863 -0.0974
11027W        W11027   2.158   1.267   2.594  0.0619  0.3389 -0.1471
11028W        W11028   6.864   4.267   8.752 -0.2624 -0.0975  0.0220
11029W        W11029   8.414   0.121   4.740  0.1409  0.2731  0.2709
11030W        W11030   2.804   3.765   2.025  0.0274  0.1041 -0.0263
11031W        W11031   0.517  10.136   0.357  0.2906  0.0843  0.0180
11032W        W11032   8.170   3.450   0.857 -0.0984  0.1035 -0.0277
11033W        W11033   1.985   2.129   8.666 -0.1425  0.1360  0.1676
11034W        W11034   0.482   0.446   4.453  0.1586  0.1035 -0.1396
11035W        W11035   3.186   2.717   5.724 -0.1460 -0.0936  0.3784
11036W        W11036   1.928   9.932   1.543 -0.4389  0.0708  0.1470
11037W        W11037   8.512   4.662   3.010  0.1609 -0.0625 -0.1848
11038W        W11038   5.963   4.626   8.267  0.1905 -0.1577  0.2835
11039W        W11039   4.871   2.020   1.208  0.1167  0.1090 -0.1956
11040W        W11040   8.525   7.338   7.263  0.0263  0.0802 -0.0065
11041W        W11041   0.497   4.852   6.009  0.5754 -0.0485 -0.0101
11042W        W11042   3.348  10.195   7.892 -0.4823 -0.0187  0.0650
11043W        W11043   4.524   3.416   4.452  0.2630 -0.1043 -0.0643
11044W        W11044   8.769   7.564   3.746 -0.1174  0.1424  0.0950
11045W        W11045   1.831   1.660   1.251  0.0888 -0.0448  0.1163
11046W        W11046   5.671   5.473   8.777 -0.1644  0.1907  0.2503
11047W        W11047   1.487   7.088   8.434 -0.3855  0.0694  0.4870
11048W        W11048   7.887   7.626   3.855  0.0202  0.0101 -0.0230
11049W        W11049   9.493   6.889   3.279  0.0751 -0.4005 -0.1751
11050W        W11050   6.973   3.329   9.153  0.3868 -0.1071 -0.4406
11051W        W11051   1.452   6.718   7.432  0.1320  0.0372 -0.0561
11052W        W11052   8.382   7.859   3.984  0.0336 -0.1220  0.1630
11053W        W11053   0.403   4.514   5.420 -0.1349 -0.2266  0.0755
11054W        W11054   4.968   7.007   9.892 -0.2914  0.0356 -0.2110
11055W        W11055   3.391   6.222   6.405 -0.0127 -0.1852  0.1550
11056W        W11056   8.730   1.075   4.367 -0.0503 -0.1798 -0.0390
11057W        W11057   8.349   1.150   9.175  0.1077  0.2057 -0.0478
11058W        W11058   8.740   0.598   2.976 -0.0561 -0.2702 -0.0603
11059W        W11059   5.783   6.608   3.124 -0.3393  0.1422  0.2145
11060W        W11060   3.286   5.810   1.048 -0.0624  0.0905  0.1549
11061W        W11061   4.785   5.352  10.049 -0.0476  0.1153  0.0660
11062W        W11062   5.304   1.593   5.641 -0.0614  0.1527  0.0942
11063W        W11063   1.803  10.007   9.723 -0.0682  0.1278  0.1941
11064W        W11064   3.383   5.118   4.801  0.1761  0.0795  0.1333
11065W        W11065   1.479  10.307   9.013 -0.1986  0.3455 -0.0637
11066W        W11066   8.359   9.263   0.716  0.3626  0.3864 -0.2302
11067W        W11067   0.792   4.089   2.895 -0.0598  0.1271  0.1424
11068W        W11068   9.813   2.257   3.573  0.2447  0.0021  0.1695
11069W        W11069   5.396   5.993   4.663 -0.0185  0.0411  0.0919
11070W        W11070   9.885   1.232   8.059 -0.1681 -0.0070 -0.2638
11071W        W11071   7.200   1.428   9.240  0.0739  0.0391  0.3162
11072W        W11072   2.022   8.911   2.400  0.2458 -0.2452 -0.0424
11073W        W11073   3.534  10.087   9.671  0.1839  0.0876 -0.0285
11074W        W11074   8.581   2.513   9.159 -0.1917 -0.4107  0.1802
11075W        W11075   2.737   5.107   4.411  0.0282  0.0095 -0.0996
11076W        W11076   4.557   3.755   7.807 -0.0699 -0.1559 -0.0430
11077W        W11077   6.675   7.536   0.478  0.1163  0.0011 -0.4435
11078W        W11078   5.083   5.952   5.196 -0.0396  0.0303 -0.3900
11079W        W11079   3.186   3.313   2.543  0.3253 -0.0830  0.1044
11080W        W11080   0.509   1.995   4.248  0.2321  0.3172 -0.0041
11081W        W11081   8.142   6.309   1.892 -0.0869 -0.0129 -0.2355
11082W        W11082   1.565   3.065   8.682 -0.0518 -0.1799 -0.0626
11083W        W11083   7.538   8.780   1.085 -0.0367  0.0802 -0.2062
11084W        W11084   3.363   8.117   4.899  0.2486 -0.1332  0.0047
11085W        W11085   4.557   0.126   2.898  0.1973  0.1122 -0.0959
11086W        W11086   7.598   7.780   6.632  0.0749  0.0944 -0.0615
11087W        W11087   6.194   1.467   5.897 -0.1150 -0.2579 -0.0608
11088W        W11088   7.201   8.947   8.291 -0.2999 -0.0161 -0.1359
11089W        W11089   5.499   7.473   5.454  0.3138 -0.2052  0.0545
11090W        W11090   0.690   3.260   8.959 -0.1701  0.0122  0.0927
11091W        W11091   6.715   5.034   6.011  0.1377  0.2326  0.2482
11092W        W11092   8.381   5.020   7.923 -0.2809 -0.0013 -0.0402
11093W        W11093   5.978   5.425   2.149 -0.0647  0.0845 -0.0344
11094W        W11094   7.329   2.955   5.080 -0.2201  0.0663 -0.0884
11095W        W11095   9.913   0.327   3.215  0.1600 -0.0438  0.1111
11096W        W11096   8.526   3.115   9.517  0.1473 -0.0492  0.1270
11097W        W11097   9.640   1.669   9.340  0.1652 -0.1917 -0.3414
11098W        W11098   4.628   9.613   7.622 -0.1500 -0.2742  0.0054
11099W        W11099   1.071   4.826   3.086  0.1669  0.0520 -0.0301
11100W        W11100   7.014   4.269   7.130  0.0088 -0.0249  0.1562
11101W        W11101   2.243   2.884   3.538 -0.1279 -0.0674  0.0415
11102W        W11102   1.648   7.018   2.110  0.2882 -0.1992 -0.1449
11103W        W11103   6.357   5.222   1.421  0.0352  0.0189  0.2236
11104W        W11104  10.154   2.719   2.555  0.0817  0.0662  0.1096
11105W        W11105   9.639   0.623   8.854 -0.2906  0.2288  0.1733
11106W        W11106   0.981   8.203   2.779  0.2393  0.2366  0.1572
11107W        W11107   8.253   6.664   7.933  0.0627  0.1301  0.0123
11108W        W11108   1.431   0.939   4.602 -0.0685 -0.2072  0.3204
11109W        W11109   3.120   9.818   9.996 -0.3755  0.1562  0.0001
11110W        W11110   3.379   9.614   5.809 -0.0208 -0.1946  0.0665
11111W        W11111   6.144   2.104   3.775 -0.0339 -0.2021 -0.1606
11112W        W11112   3.712   5.818   6.536  0.1154  0.1943 -0.1807
11113W        W11113   4.607   1.620   0.315 -0.0614 -0.2385  0.0897
11114W        W11114   3.765   0.123   8.280  0.0991 -0.4322  0.1349
11115W        W11115   9.226   4.720   5.331  0.2858 -0.1280 -0.1233
11116W        W11116   7.122  10.132   6.074  0.0673 -0.1187  0.3536
11117W        W11117   8.748   9.002   8.046  0.3478  0.3907 -0.4800
11118W        W11118   5.115   4.529   3.324 -0.1327  0.0473  0.0268
11119W        W11119   0.429   4.594   2.120 -0.1498 -0.1912 -0.0534
11120W        W11120   4.548   0.612   8.866  0.0442  0.0802  0.1158
11121W        W11121   8.490   6.219   6.822  0.0570 -0.0821 -0.0758
11122W        W11122   1.985   8.074   5.211  0.2198 -0.0962 -0.0413
11123W        W11123   8.723   5.870   3.051  0.0018 -0.2265  0.1496
11124W        W11124   2.229   3.490   8.268  0.1476 -0.0479 -0.0865
11125W        W11125   3.175   3.426   9.311 -0.0894  0.1195 -0.0071
11126W        W11126   2.522   1.596   2.676 -0.2340 -0.2109 -0.0437
11127W        W11127   3.220   9.842   0.667  0.2054  0.0773 -0.1794
11128W        W11128   0.301   6.401   5.945  0.1594 -0.1697  0.2446
11129W        W11129   9.111   8.580   4.196  0.3389  0.2812  0.2308
11130W        W11130   8.570   3.102   0.873 -0.0030  0.1159 -0.2187
11131W        W11131   2.136   5.823   5.900 -0.2065 -0.1200 -0.1646
11132W        W11132   0.524   6.534   3.202 -0.3955  0.2308 -0.0177
11133W        W11133   0.354   9.014   9.940  0.0006 -0.0316  0.3179
11134W        W11134   1.498   3.375   6.750  0.0392 -0.1876 -0.2073
11135W        W11135   0.240   1.351   5.331 -0.5082  0.2121  0.2748
11136W        W11136   9.167   4.966   2.358  0.0699  0.2371 -0.2526
11137W        W11137   8.390   8.015   1.671 -0.1324 -0.2283 -0.1488
11138W        W11138   6.856   9.227   0.838 -0.0317 -0.0386 -0.0354
11139W        W11139   3.432   4.184   3.898  0.4631 -0.1102 -0.1055
11140W        W11140   8.859   7.131   8.945 -0.2313  0.0654  0.1806
11141W        W11141   2.177   9.554   1.865  0.1859  0.2705 -0.1854
11142W        W11142   8.320  10.307   0.166  0.1955  0.1635 -0.3127
11143W        W11143   5.562   8.444   8.031  0.0245 -0.2861 -0.0397
11144W        W11144   7.132   9.866   7.029  0.2710 -0.0219 -0.3065
11145W        W11145   5.388   0.180   4.348  0.2153 -0.4656  0.1912
11146W        W11146   0.930   9.652   3.176 -0.1885  0.1315 -0.4044
11147W        W11147  10.045   0.211   5.448  0.1866 -0.1520  0.1182
11148W        W11148  10.164   1.237   3.090  0.1467  0.1452 -0.3341
10.3454 10.3454 10.3454 0.0000 0.0000 0.0000 0.0000 0.0000 0.0000
