t=10000.0 ps
11148
    1COH    COH    1   0.268   0.271   6.740  0.4846 -0.3338  0.0906
    2COC    COC    2   0.157   0.516   6.808 -0.0784  0.0685 -0.0816
    3COC    COC    3   0.020   0.522   6.556  0.1266 -0.0831  0.2441
    4COC    COC    4   0.052   0.763   6.353  0.1046 -0.0335 -0.2439
    5COC    COC    5   0.306   0.892   6.231  0.0412 -0.0835  0.3315
    6COC    COC    6   0.363   1.120   6.033  0.0140 -0.3125  0.2128
    7COC    COC    7   0.237   1.186   5.764 -0.2390 -0.0928 -0.1996
    8COC    COC    8   0.498   1.156   5.585  0.1762  0.4272  0.2476
    9COC    COC    9   0.661   1.326   5.379  0.1701 -0.2487  0.1856
   10COC    COC   10   0.555   1.402   5.085 -0.1756  0.1094 -0.0208
   11COC    COC   11   0.305   1.232   4.983  0.2551 -0.0802 -0.0009
   12COC    COC   12   0.424   0.959   5.002 -0.1309  0.3060 -0.4478
   13COC    COC   13   0.747   0.919   4.943  0.0709  0.2723  0.1000
   14COC    COC   14   0.876   0.872   4.653 -0.2934 -0.0163  0.1919
   15COC    COC   15   0.774   0.569   4.653  0.1882 -0.0973  0.1555
   16COC    COC   16   0.650   0.444   4.872  0.0571  0.2708  0.1926
   17COC    COC   17   0.394   0.334   5.002 -0.0041 -0.2983 -0.3516
   18COC    COC   18   0.210   0.551   5.006  0.2787  0.0901  0.0819
   19COC    COC   19   0.008   0.443   4.804  0.3528  0.2762 -0.2037
   20COC    COC   20  10.262   0.596   4.579 -0.2165  0.2449 -0.2861
   21COC    COC   21  10.113   0.810   4.410  0.4842 -0.1344  0.1078
   22COC    COC   22  10.121   1.098   4.478  0.6044  0.0754 -0.0793
   23COC    COC   23  10.261   1.349   4.523  0.2978  0.1364 -0.1861
   24COC    COC   24   0.274   1.412   4.466  0.1302 -0.1447 -0.2175
   25COC    COC   25   0.520   1.339   4.579  0.1276  0.1221  0.1923
   26COC    COC   26   0.810   1.305   4.470 -0.2351  0.0077 -0.1625
   27COC    COC   27   1.111   1.363   4.433 -0.1763  0.2282 -0.1844
   28COC    COC   28   1.341   1.354   4.605 -0.1624  0.3107 -0.1956
   29COC    COC   29   1.361   1.095   4.813  0.0506 -0.1098  0.2120
   30COC    COC   30   1.361   0.822   4.684  0.9863  0.2172 -0.0246
   31COC    COC   31   1.216   0.544   4.722 -0.2113  0.1134  0.0241
   32COC    COC   32   1.053   0.463   4.985 -0.0665  0.1611  0.3191
   33COC    COC   33   1.162   0.646   5.214  0.5812 -0.0582  0.2140
   34COC    COC   34   1.438   0.808   5.251 -0.2260 -0.0415 -0.1335
   35COC    COC   35   1.619   0.807   5.071 -0.1340  0.0861 -0.0858
   36COC    COC   36   1.753   1.044   4.934  0.3472  0.2729  0.2350
   37COC    COC   37   1.839   1.309   4.917  0.0966 -0.2726  0.4129
   38COC    COC   38   2.114   1.371   4.811 -0.0887  0.0970 -0.0735
   39COC    COC   39   2.161   1.655   4.704 -0.2332  0.0655 -0.3351
   40COC    COC   40   2.396   1.692   4.930  0.1098 -0.1317  0.2051
   41COC    COC   41   2.710   1.792   4.942  0.2347 -0.1905  0.2131
   42COC    COC   42   2.694   2.096   4.992  0.1360  0.0553 -0.0474
   43COC    COC   43   2.392   2.121   4.893 -0.0743 -0.5094 -0.2182
   44COC    COC   44   2.200   2.390   4.841 -0.0868  0.3279  0.3157
   45COC    COC   45   1.971   2.605   4.817 -0.1457 -0.0065  0.1014
   46COH    COH   46   1.854   2.582   5.024 -0.1425 -0.0893 -0.0273
   47COH    COH   47   1.396   9.021   2.722  0.1969 -0.0632  0.2754
   48COC    COC   48   1.437   9.213   2.537  0.3982  0.1395  0.4264
   49COC    COC   49   1.465   9.143   2.259  0.0191 -0.2656  0.1358
   50COC    COC   50   1.675   8.940   2.187  0.8756  0.3232  0.3829
   51COC    COC   51   1.788   8.866   1.927 -0.1029  0.1113  0.2248
   52COC    COC   52   1.664   8.584   1.861 -0.0513 -0.3497  0.0510
   53COC    COC   53   1.485   8.475   2.102  0.1555 -0.0084  0.1009
   54COC    COC   54   1.202   8.522   1.983  0.0380 -0.0707  0.1730
   55COC    COC   55   0.912   8.442   1.887 -0.1988 -0.3974  0.2665
   56COC    COC   56   0.737   8.267   2.068 -0.1850  0.2566 -0.1429
   57COC    COC   57   0.938   8.043   2.093 -0.2676  0.0291  0.0436
   58COC    COC   58   0.864   7.767   2.025 -0.5013  0.4726  0.1865
   59COC    COC   59   0.827   7.648   2.297  0.1662 -0.2230  0.4914
   60COC    COC   60   0.929   7.416   2.201  0.0192 -0.0778  0.2991
   61COC    COC   61   1.248   7.378   2.122 -0.4130  0.1576 -0.2688
   62COC    COC   62   1.387   7.208   2.344  0.0681  0.1646  0.0029
   63COC    COC   63   1.420   7.303   2.635  0.1593 -0.3597 -0.2046
   64COC    COC   64   1.388   7.201   2.933  0.0645 -0.3023 -0.2963
   65COC    COC   65   1.195   6.964   2.839  0.0549  0.3684 -0.1496
   66COC    COC   66   0.964   7.032   2.586 -0.3286  0.1351 -0.4335
   67COC    COC   67   0.943   6.891   2.321 -0.1742  0.1880 -0.0181
   68COC    COC   68   1.010   6.596   2.242 -0.1155  0.4833 -0.1520
   69COC    COC   69   0.795   6.382   2.211 -0.3634  0.2302  0.3809
   70COC    COC   70   0.734   6.453   1.920  0.0156  0.0714  0.2984
   71COC    COC   71   0.669   6.241   1.736  0.1815  0.3900  0.0290
   72COC    COC   72   0.892   6.190   1.557  0.2899 -0.1581  0.0198
   73COC    COC   73   0.948   6.248   1.265  0.2182 -0.0629  0.2519
   74COC    COC   74   0.965   6.076   1.004 -0.1427  0.0751  0.3085
   75COC    COC   75   0.837   5.872   0.829  0.1223 -0.3569  0.2065
   76COC    COC   76   0.948   5.611   0.831 -0.0278 -0.0405 -0.1005
   77COC    COC   77   1.004   5.508   1.109  0.2125 -0.4077 -0.0583
   78COC    COC   78   0.846   5.299   1.198  0.0444  0.2823  0.0392
   79COC    COC   79   0.832   5.170   0.939 -0.2283 -0.1615 -0.3511
   80COC    COC   80   1.144   5.203   0.852 -0.1082 -0.0368  0.3740
   81COC    COC   81   1.208   5.320   0.575 -0.2030  0.0153  0.0691
   82COC    COC   82   1.017   5.358   0.321 -0.2002 -0.1113 -0.2690
   83COC    COC   83   0.764   5.351   0.338  0.2920  0.1032  0.0258
   84COC    COC   84   0.605   5.403   0.640  0.0272 -0.4103  0.2017
   85COC    COC   85   0.286   5.546   0.672 -0.2718  0.0393 -0.2321
   86COC    COC   86   0.201   5.752   0.452 -0.4266  0.0209 -0.4576
   87COC    COC   87   0.053   5.984   0.505 -0.3068 -0.3041 -0.1663
   88COC    COC   88   0.152   6.274   0.566  0.1189  0.0622 -0.2825
   89COC    COC   89   0.348   6.499   0.572 -0.2692 -0.3401  0.0036
   90COC    COC   90   0.320   6.688   0.360  0.0930  0.1440 -0.1051
   91COC    COC   91   0.408   6.942   0.231  0.1242  0.0531 -0.1037
   92COH    COH   92   0.264   7.142   0.201  0.2944  0.1407  0.0916
   93COH    COH   93   2.964   9.145   1.104 -0.3030 -0.3491 -0.6131
   94COC    COC   94   2.926   9.154   0.838 -0.1995 -0.0264 -0.3607
   95COC    COC   95   2.975   9.394   0.703  0.2536  0.2958 -0.0007
   96COC    COC   96   3.019   9.540   0.415  0.1663  0.3078  0.0601
   97COC    COC   97   3.309   9.398   0.451 -0.3529 -0.2041  0.0540
   98COC    COC   98   3.468   9.570   0.250  0.0545 -0.3949  0.0989
   99COC    COC   99   3.348   9.700   0.065 -0.3105 -0.4032  0.2296
  100COC    COC  100   3.195   9.916   0.184 -0.3428  0.1233 -0.0894
  101COC    COC  101   2.918   9.903   0.141 -0.0392 -0.0459 -0.0917
  102COC    COC  102   2.662  10.017   0.290 -0.1571  0.0871  0.4024
  103COC    COC  103   2.633  10.305   0.268 -0.1103 -0.0943 -0.0444
  104COC    COC  104   2.924   0.089   0.316  0.3268  0.1615  0.0602
  105COC    COC  105   2.943   0.317   0.517  0.2885  0.2466 -0.3103
  106COC    COC  106   3.245   0.418   0.475 -0.0713  0.1080 -0.0205
  107COC    COC  107   3.377   0.699   0.469  0.3544  0.1584 -0.2923
  108COC    COC  108   3.316   0.948   0.569 -0.2599  0.1306 -0.2308
  109COC    COC  109   3.240   1.084   0.824  0.0260  0.2704 -0.0026
  110COC    COC  110   3.471   0.956   1.050 -0.0512  0.2900  0.0517
  111COC    COC  111   3.376   0.932   1.336 -0.3822  0.0980  0.0696
  112COC    COC  112   3.585   0.993   1.569 -0.1962 -0.5274 -0.3884
  113COC    COC  113   3.409   0.951   1.822 -0.1056  0.2548  0.1447
  114COC    COC  114   3.378   0.785   2.104 -0.2967 -0.2851  0.0052
  115COC    COC  115   3.612   0.791   2.279 -0.1236 -0.2594 -0.3337
  116COC    COC  116   3.863   0.643   2.336 -0.1272 -0.1055 -0.0297
  117COC    COC  117   4.031   0.449   2.468  0.2015 -0.0061  0.3612
  118COC    COC  118   4.317   0.520   2.511 -0.3339  0.5594 -0.3211
  119COC    COC  119   4.382   0.709   2.751  0.0569 -0.3861 -0.3513
  120COC    COC  120   4.173   0.966   2.736 -0.2268  0.2321 -0.0659
  121COC    COC  121   4.197   1.175   2.943  0.2492 -0.3083 -0.0378
  122COC    COC  122   4.230   1.462   2.927 -0.0337 -0.0881 -0.1653
  123COC    COC  123   3.969   1.587   3.038  0.0035  0.0620  0.1236
  124COC    COC  124   3.826   1.353   3.181 -0.2013  0.1302  0.1539
  125COC    COC  125   3.716   1.166   2.985  0.0748  0.1522  0.0099
  126COC    COC  126   3.661   0.899   3.125  0.0352 -0.0293 -0.1663
  127COC    COC  127   3.362   0.850   3.018 -0.0164  0.3825  0.2231
  128COC    COC  128   3.201   0.959   2.794 -0.0192 -0.2380  0.6038
  129COC    COC  129   3.437   1.140   2.690  0.1933  0.5782  0.0826
  130COC    COC  130   3.494   1.409   2.579  0.5848  0.1226  0.0150
  131COC    COC  131   3.533   1.594   2.783 -0.0765  0.0575 -0.0659
  132COC    COC  132   3.621   1.892   2.702 -0.4881  0.2516 -0.1065
  133COC    COC  133   3.692   1.976   3.032 -0.2293 -0.0874  0.1939
  134COC    COC  134   3.714   2.013   3.323 -0.1667  0.3233  0.1964
  135COC    COC  135   3.929   1.918   3.515 -0.0038 -0.2431 -0.3583
  136COC    COC  136   4.109   1.678   3.466 -0.1141 -0.0069 -0.4274
  137COC    COC  137   4.300   1.765   3.240  0.2004 -0.3250  0.0391
  138COH    COH  138   4.231   2.004   3.200  0.1288 -0.0475 -0.7640
  139COH    COH  139   7.965   2.227   9.497  0.2681  0.3050  0.3935
  140COC    COC  140   7.945   2.232   9.773 -0.1057  0.1161  0.6173
  141COC    COC  141   8.184   2.115   9.922 -0.2252  0.0715  0.0969
  142COC    COC  142   8.148   2.163  10.215 -0.1778 -0.0637 -0.0124
  143COC    COC  143   8.239   2.397   0.026 -0.1994  0.2081  0.4568
  144COC    COC  144   8.231   2.731  10.308 -0.2091  0.0222 -0.0208
  145COC    COC  145   8.511   2.870   0.038  0.1755  0.0146  0.0217
  146COC    COC  146   8.681   3.149  10.259  0.0314  0.0646 -0.0015
  147COC    COC  147   8.573   3.336  10.061  0.2553  0.2899 -0.0007
  148COC    COC  148   8.730   3.411   9.817 -0.3517  0.0703 -0.0776
  149COC    COC  149   8.508   3.521   9.619  0.1647 -0.2819  0.0649
  150COC    COC  150   8.380   3.803   9.729  0.2272 -0.1757  0.2231
  151COC    COC  151   8.491   3.946   9.478  0.1741  0.2422  0.1206
  152COC    COC  152   8.344   4.010   9.191  0.0009  0.4631  0.0419
  153COC    COC  153   8.544   3.902   8.990  0.1250  0.0246 -0.2635
  154COC    COC  154   8.766   3.946   8.740  0.2451 -0.0663 -0.1482
  155COC    COC  155   9.065   3.880   8.711 -0.3113  0.2996  0.4339
  156COC    COC  156   9.298   3.943   8.537  0.1430 -0.3013  0.1586
  157COC    COC  157   9.290   4.198   8.345 -0.0082 -0.0582 -0.0755
  158COC    COC  158   9.216   4.068   8.078  0.5561  0.1045 -0.1000
  159COC    COC  159   9.420   3.922   7.902  0.1548  0.2768  0.7442
  160COC    COC  160   9.365   3.745   7.621 -0.3589  0.1247  0.1911
  161COC    COC  161   9.139   3.559   7.795 -0.4484  0.0755  0.3227
  162COC    COC  162   8.915   3.732   7.872 -0.5023 -0.1067 -0.2673
  163COC    COC  163   8.836   3.907   7.666  0.2223 -0.1147 -0.3119
  164COC    COC  164   8.877   3.891   7.328 -0.2081  0.0232 -0.0076
  165COC    COC  165   8.626   3.784   7.199 -0.2002  0.0547  0.1715
  166COC    COC  166   8.556   3.770   6.904 -0.3705 -0.0244 -0.3493
  167COC    COC  167   8.283   3.654   6.863 -0.1169  0.2032 -0.3202
  168COC    COC  168   8.047   3.523   7.030 -0.1523  0.0430  0.2775
  169COC    COC  169   7.913   3.292   6.857 -0.2616  0.1319 -0.0426
  170COC    COC  170   7.882   3.078   7.102 -0.1852  0.1006  0.0677
  171COC    COC  171   7.955   2.809   7.168 -0.0619 -0.1084 -0.2024
  172COC    COC  172   7.903   2.862   7.493 -0.1008  0.3319 -0.1497
  173COC    COC  173   8.002   2.685   7.716 -0.2238 -0.1785 -0.1616
  174COC    COC  174   7.744   2.512   7.839 -0.2449 -0.3323  0.0691
  175COC    COC  175   7.460   2.645   7.781  0.3693 -0.0743  0.1991
  176COC    COC  176   7.236   2.860   7.690 -0.0820 -0.3648  0.2017
  177COC    COC  177   7.071   2.946   7.433 -0.0216  0.0306 -0.2676
  178COC    COC  178   6.895   3.213   7.532 -0.0204 -0.2378  0.0918
  179COC    COC  179   6.619   3.349   7.362  0.5471  0.2409 -0.0733
  180COC    COC  180   6.627   3.647   7.328  0.0669  0.0409 -0.1845
  181COC    COC  181   6.925   3.662   7.224  0.0861  0.2821  0.0116
  182COC    COC  182   7.058   3.406   7.093 -0.1517 -0.1669  0.0085
  183COC    COC  183   6.917   3.340   6.835  0.0066 -0.2228  0.0342
  184COH    COH  184   6.963   3.554   6.661  0.3023 -0.4469  0.1219
  185COH    COH  185   4.147   5.366   2.112  0.0950  0.4017 -0.3346
  186COC    COC  186   3.961   5.436   2.228 -0.3257 -0.0949 -0.0019
  187COC    COC  187   3.699   5.610   2.100 -0.4018  0.0696  0.0476
  188COC    COC  188   3.431   5.534   2.174 -0.0787 -0.2085 -0.2484
  189COC    COC  189   3.155   5.474   2.148  0.1179 -0.5652 -0.0330
  190COC    COC  190   3.026   5.578   1.865  0.0304 -0.4426 -0.3283
  191COC    COC  191   2.829   5.318   1.847 -0.0849  0.1728  0.1170
  192COC    COC  192   2.565   5.304   1.771  0.2880  0.4698 -0.3831
  193COC    COC  193   2.324   5.191   1.951 -0.3324 -0.2116  0.1685
  194COC    COC  194   2.166   4.931   1.883 -0.0168 -0.1440 -0.1201
  195COC    COC  195   1.878   4.808   1.886  0.1542 -0.1560  0.0175
  196COC    COC  196   1.635   4.829   2.020  0.4764 -0.3627 -0.0234
  197COC    COC  197   1.336   4.958   1.939  0.3365 -0.0502  0.2920
  198COC    COC  198   1.334   5.270   1.903  0.0326 -0.1126  0.1783
  199COC    COC  199   1.310   5.414   1.623 -0.0211 -0.0161 -0.2026
  200COC    COC  200   1.560   5.523   1.477  0.0545  0.1688  0.0719
  201COC    COC  201   1.553   5.669   1.204 -0.1711  0.4016 -0.1677
  202COC    COC  202   1.428   5.519   0.983  0.0634  0.0578 -0.2316
  203COC    COC  203   1.631   5.569   0.762 -0.1534 -0.0228  0.2303
  204COC    COC  204   1.911   5.449   0.817 -0.1077  0.0785 -0.0415
  205COC    COC  205   2.156   5.422   0.651 -0.1675  0.0148  0.1176
  206COC    COC  206   2.329   5.420   0.435 -0.2240  0.1052  0.1701
  207COC    COC  207   2.422   5.123   0.473 -0.0984  0.3290  0.0092
  208COC    COC  208   2.404   5.095   0.784 -0.0643  0.0445  0.3935
  209COC    COC  209   2.232   5.109   1.028  0.2550 -0.0142  0.4317
  210COC    COC  210   2.355   5.303   1.241  0.1773 -0.0087  0.0594
  211COC    COC  211   2.549   5.077   1.427 -0.0952 -0.0277  0.1193
  212COC    COC  212   2.563   4.796   1.382 -0.1223  0.0204  0.1122
  213COC    COC  213   2.773   4.581   1.369 -0.2945 -0.3571  0.2884
  214COC    COC  214   2.657   4.464   1.085 -0.2447 -0.0101 -0.2582
  215COC    COC  215   2.787   4.271   0.869  0.0416  0.1480  0.0780
  216COC    COC  216   3.052   4.276   0.687  0.3721 -0.2684 -0.0573
  217COC    COC  217   3.332   4.341   0.658  0.0875  0.3759 -0.1557
  218COC    COC  218   3.521   4.522   0.767  0.1060 -0.3401 -0.3197
  219COC    COC  219   3.621   4.615   1.064 -0.1883  0.1285 -0.1815
  220COC    COC  220   3.829   4.415   1.080  0.0390  0.1442 -0.2836
  221COC    COC  221   4.050   4.382   0.852 -0.0749 -0.1120 -0.1247
  222COC    COC  222   4.172   4.106   0.824  0.6190 -0.2048  0.3750
  223COC    COC  223   4.429   4.071   0.970  0.2991 -0.0185 -0.2638
  224COC    COC  224   4.506   3.966   1.232  0.1947  0.3337  0.1720
  225COC    COC  225   4.452   3.725   1.407 -0.2373  0.3000 -0.2154
  226COC    COC  226   4.738   3.635   1.366 -0.0505 -0.1290 -0.0688
  227COC    COC  227   4.984   3.619   1.164 -0.1886  0.0876  0.2460
  228COC    COC  228   5.170   3.413   1.102 -0.2978  0.3228  0.0624
  229COC    COC  229   5.421   3.278   1.034  0.0644 -0.1806  0.0451
  230COH    COH  230   5.563   3.490   0.982 -0.0941 -0.1046 -0.1523
  231COH    COH  231   9.765   9.155   5.530 -0.0642 -0.3662 -0.0441
  232COC    COC  232   9.567   9.194   5.337 -0.1831  0.1268  0.2757
  233COC    COC  233   9.505   9.492   5.258 -0.4007  0.0482  0.2417
  234COC    COC  234   9.189   9.629   5.233 -0.1572 -0.4741  0.1053
  235COC    COC  235   9.010   9.746   5.449 -0.1604 -0.1363  0.2058
  236COC    COC  236   9.096  10.037   5.450  0.0670 -0.2077  0.0406
  237COC    COC  237   9.303  10.106   5.660  0.2635  0.3176  0.0231
  238COC    COC  238   9.606   9.955   5.714  0.2274 -0.0603 -0.0642
  239COC    COC  239   9.768  10.141   5.574  0.2783  0.0289  0.1693
  240COC    COC  240  10.008  10.039   5.411  0.2263 -0.2425 -0.3665
  241COC    COC  241  10.046  10.182   5.112 -0.0974  0.3557  0.4490
  242COC    COC  242   9.843  10.158   4.897  0.3845 -0.1693 -0.2667
  243COC    COC  243   9.731   9.862   4.865  0.2321  0.2517 -0.0734
  244COC    COC  244   9.489   9.714   4.848  0.1727 -0.0347 -0.2006
  245COC    COC  245   9.273   9.742   4.624 -0.2657 -0.3875  0.4624
  246COC    COC  246   9.413   9.553   4.447 -0.1402 -0.0362 -0.4677
  247COC    COC  247   9.294   9.390   4.268 -0.4328 -0.0202 -0.3222
  248COC    COC  248   9.473   9.230   4.011  0.0125 -0.0145 -0.3908
  249COC    COC  249   9.760   9.257   3.897  0.3348  0.0094 -0.3108
  250COC    COC  250  10.035   9.382   4.016 -0.4124 -0.1397 -0.5358
  251COC    COC  251  10.215   9.143   3.966  0.0857 -0.5604  0.2011
  252COC    COC  252   0.027   9.086   3.694 -0.0445  0.0571  0.0039
  253COC    COC  253   0.013   9.097   3.408 -0.4187 -0.5558  0.0094
  254COC    COC  254  10.308   9.162   3.110 -0.2179 -0.2972  0.0625
  255COC    COC  255  10.008   9.065   3.030 -0.2448 -0.0594 -0.4055
  256COC    COC  256   9.892   9.000   3.302  0.2686 -0.5074 -0.3398
  257COC    COC  257   9.586   8.998   3.209  0.5505 -0.0883 -0.2330
  258COC    COC  258   9.607   8.685   3.231  0.5129  0.4751  0.0371
  259COC    COC  259   9.754   8.582   2.988 -0.0107  0.1394 -0.1047
  260COC    COC  260   9.760   8.720   2.724  0.0793 -0.1283  0.2110
  261COC    COC  261   9.699   9.015   2.698 -0.0237 -0.0723 -0.0566
  262COC    COC  262   9.849   9.239   2.632 -0.1324 -0.0300 -0.0248
  263COC    COC  263   9.955   9.264   2.322  0.1045 -0.0863 -0.1292
  264COC    COC  264  10.236   9.164   2.391 -0.0097 -0.0421  0.2563
  265COC    COC  265   0.018   8.953   2.599 -0.0453 -0.4320  0.2567
  266COC    COC  266   0.075   8.708   2.443 -0.3501 -0.0972 -0.1147
  267COC    COC  267  10.193   8.501   2.377  0.1778  0.2745  0.0521
  268COC    COC  268  10.232   8.227   2.361 -0.0772  0.1976  0.1002
  269COC    COC  269  10.322   8.012   2.609  0.3775  0.1280 -0.3309
  270COC    COC  270   0.263   7.901   2.620  0.0983 -0.3085 -0.2512
  271COC    COC  271   0.354   7.734   2.413 -0.1183 -0.0724  0.1284
  272COC    COC  272   0.203   7.487   2.382  0.3096 -0.1997  0.0403
  273COC    COC  273   0.113   7.353   2.634  0.1780 -0.1190  0.5074
  274COC    COC  274  10.184   7.173   2.550  0.0634 -0.3177  0.1881
  275COC    COC  275  10.033   7.242   2.272  0.0122  0.3171  0.2937
  276COH    COH  276  10.152   7.407   2.086 -0.1050 -0.1219 -0.1601
  277COH    COH  277   3.609   1.064   9.139 -0.5335  0.0193  0.3189
  278COC    COC  278   3.546   0.810   9.068  0.2426 -0.1852  0.1400
  279COC    COC  279   3.333   0.639   9.173  0.0515  0.2396  0.2359
  280COC    COC  280   3.211   0.642   9.454  0.0773 -0.5528  0.2458
  281COC    COC  281   3.326   0.891   9.631 -0.1919 -0.2460 -0.3682
  282COC    COC  282   3.541   1.088   9.528 -0.1594  0.1299 -0.2477
  283COC    COC  283   3.598   1.380   9.421 -0.4100  0.2832 -0.2159
  284COC    COC  284   3.460   1.636   9.325  0.2568 -0.5695 -0.3075
  285COC    COC  285   3.147   1.615   9.276  0.0863 -0.0931 -0.2890
  286COC    COC  286   3.020   1.831   9.132  0.0251 -0.0184  0.6062
  287COC    COC  287   3.054   1.764   8.839  0.1239  0.1475  0.0642
  288COC    COC  288   3.013   1.457   8.777  0.1497  0.3209  0.2738
  289COC    COC  289   3.146   1.413   8.527  0.1783  0.1917  0.0582
  290COC    COC  290   3.396   1.304   8.468 -0.0586  0.0293 -0.1076
  291COC    COC  291   3.485   1.059   8.592  0.3381  0.0140 -0.5903
  292COC    COC  292   3.244   0.899   8.692 -0.2054  0.5235 -0.0461
  293COC    COC  293   3.296   0.599   8.730  0.0218 -0.1617 -0.1850
  294COC    COC  294   3.568   0.546   8.719  0.1641  0.1028  0.3117
  295COC    COC  295   3.612   0.542   8.404  0.0412  0.0721 -0.1895
  296COC    COC  296   3.774   0.826   8.351 -0.2140  0.0341 -0.0795
  297COC    COC  297   3.859   1.150   8.294  0.1556  0.2808 -0.1679
  298COC    COC  298   3.775   1.404   8.488  0.1574  0.1364  0.0176
  299COC    COC  299   3.783   1.692   8.566  0.0211 -0.3857  0.3967
  300COC    COC  300   4.015   1.666   8.740  0.2440  0.3779  0.2875
  301COC    COC  301   4.021   1.408   8.899  0.0252 -0.3007  0.2172
  302COC    COC  302   4.208   1.371   9.150  0.3246 -0.1470 -0.1339
  303COC    COC  303   4.289   1.638   9.268  0.2342 -0.1225  0.1408
  304COC    COC  304   4.539   1.801   9.358 -0.0449  0.0280  0.0006
  305COC    COC  305   4.401   2.053   9.483  0.1666  0.0226  0.0465
  306COC    COC  306   4.241   2.208   9.696 -0.1286 -0.4036  0.2712
  307COC    COC  307   4.294   2.511   9.747  0.0331 -0.3470  0.0011
  308COC    COC  308   4.219   2.782   9.627 -0.1848 -0.1882  0.1423
  309COC    COC  309   4.046   2.765   9.385  0.0285  0.2092 -0.4117
  310COC    COC  310   3.815   2.708   9.572  0.0716  0.1977  0.1133
  311COC    COC  311   3.858   2.699   9.854 -0.2930 -0.1317 -0.0682
  312COC    COC  312   4.045   2.874  10.016 -0.2278  0.0972 -0.1711
  313COC    COC  313   4.038   3.121   9.882 -0.3164 -0.0501 -0.2575
  314COC    COC  314   3.949   3.156   9.586  0.1323 -0.2218  0.1164
  315COC    COC  315   3.705   3.372   9.603 -0.1266 -0.4543 -0.1085
  316COC    COC  316   3.714   3.690   9.574 -0.0364 -0.0400 -0.2105
  317COC    COC  317   4.022   3.783   9.578 -0.1705  0.1182  0.4336
  318COC    COC  318   4.273   3.657   9.686  0.1289 -0.8023  0.0107
  319COC    COC  319   4.315   3.446   9.902 -0.4171  0.1817 -0.2181
  320COC    COC  320   4.486   3.175   9.877 -0.1785  0.1637 -0.1488
  321COC    COC  321   4.800   3.212   9.964  0.0489  0.3059  0.2200
  322COH    COH  322   4.827   3.245  10.237 -0.1385 -0.1972 -0.0367
  323COH    COH  323   9.387   6.029   0.114  0.5022  0.0077  0.0712
  324COC    COC  324   9.337   6.238   0.219  0.0867 -0.0026  0.1869
  325COC    COC  325   9.054   6.382   0.152  0.0420  0.5386 -0.0050
  326COC    COC  326   8.914   6.532  10.260 -0.0652 -0.1922 -0.1067
  327COC    COC  327   8.647   6.499  10.121  0.2630 -0.0073  0.2912
  328COC    COC  328   8.384   6.395  10.203  0.1706 -0.3519  0.0094
  329COC    COC  329   8.198   6.563  10.296  0.1026 -0.1744  0.2545
  330COC    COC  330   8.056   6.763   0.159  0.1593  0.1404 -0.1546
  331COC    COC  331   7.794   6.922   0.124 -0.1564  0.0578 -0.3959
  332COC    COC  332   7.620   6.763  10.251  0.1123 -0.1931 -0.1381
  333COC    COC  333   7.497   6.861   9.963 -0.0078 -0.0673 -0.3151
  334COC    COC  334   7.765   6.879   9.818  0.1233  0.0427  0.1450
  335COC    COC  335   7.896   7.146   9.890  0.1901  0.2095  0.3637
  336COC    COC  336   7.862   7.340  10.083 -0.0690  0.2757 -0.0094
  337COC    COC  337   8.000   7.378   0.014  0.4821  0.2414 -0.2871
  338COC    COC  338   8.304   7.283   0.016  0.4841 -0.1232  0.3238
  339COC    COC  339   8.592   7.405   0.002 -0.2938  0.0658  0.0307
  340COC    COC  340   8.610   7.705  10.299  0.3958 -0.0071 -0.2268
  341COC    COC  341   8.637   7.943  10.107  0.1177 -0.0235  0.2454
  342COC    COC  342   8.815   8.208  10.058  0.0599  0.1956 -0.3353
  343COC    COC  343   8.937   8.224   9.779 -0.2821  0.0502  0.3815
  344COC    COC  344   9.060   7.989   9.588  0.2252 -0.3554 -0.5712
  345COC    COC  345   9.344   7.941   9.461  0.0908 -0.1379  0.4878
  346COC    COC  346   9.621   8.025   9.471 -0.2224 -0.1452 -0.0668
  347COC    COC  347   9.612   8.346   9.371  0.0589  0.6883  0.2204
  348COC    COC  348   9.448   8.310   9.115 -0.2192 -0.2466  0.3226
  349COC    COC  349   9.227   8.091   9.067 -0.2400  0.2159  0.8220
  350COC    COC  350   9.076   7.889   8.851 -0.1599  0.3862  0.1060
  351COC    COC  351   8.946   8.016   8.620 -0.5039  0.1193 -0.0683
  352COC    COC  352   8.844   7.789   8.402 -0.0611  0.0323 -0.0933
  353COC    COC  353   8.697   7.861   8.125  0.2844 -0.2869  0.0939
  354COC    COC  354   8.666   8.156   7.972  0.1962 -0.0157 -0.1846
  355COC    COC  355   8.511   8.388   8.060  0.0202 -0.1982 -0.1175
  356COC    COC  356   8.317   8.569   7.865  0.0706  0.3593 -0.0506
  357COC    COC  357   8.368   8.673   7.569 -0.1112 -0.3951 -0.0734
  358COC    COC  358   8.675   8.649   7.473  0.0161  0.1995  0.2133
  359COC    COC  359   8.774   8.437   7.301  0.0432 -0.5195 -0.5028
  360COC    COC  360   8.930   8.231   7.444  0.1243  0.2019 -0.0043
  361COC    COC  361   9.235   8.273   7.410 -0.0497  0.0810  0.1823
  362COC    COC  362   9.460   8.194   7.565  0.2966  0.1469 -0.0812
  363COC    COC  363   9.610   8.457   7.563  0.1465 -0.0707 -0.0851
  364COC    COC  364   9.455   8.657   7.700 -0.0591  0.1349  0.3373
  365COC    COC  365   9.426   8.715   7.970 -0.0109  0.0162 -0.1339
  366COC    COC  366   9.430   8.973   8.102 -0.3631  0.1655 -0.0018
  367COC    COC  367   9.515   9.282   8.117 -0.0464  0.0845  0.2546
  368COH    COH  368   9.432   9.411   7.895  0.0659 -0.1014  0.1415
  369COH    COH  369   1.718   0.796   5.932 -0.0692  0.1061  0.2127
  370COC    COC  370   1.856   0.571   5.983 -0.3008  0.0001 -0.2046
  371COC    COC  371   1.722   0.413   6.193 -0.2332  0.1293 -0.1872
  372COC    COC  372   1.931   0.452   6.423 -0.2973 -0.2293 -0.1671
  373COC    COC  373   2.086   0.611   6.675  0.5373  0.1525  0.2624
  374COC    COC  374   2.077   0.546   6.997 -0.0264  0.2537  0.2326
  375COC    COC  375   1.880   0.684   7.146  0.0534  0.2026  0.2223
  376COC    COC  376   1.717   0.991   7.104  0.1387  0.1838  0.1546
  377COC    COC  377   1.835   1.255   7.093 -0.1635  0.1647 -0.0370
  378COC    COC  378   2.132   1.278   7.158 -0.0194  0.0157  0.2596
  379COC    COC  379   2.165   0.989   7.177 -0.0718 -0.4986  0.1508
  380COC    COC  380   2.019   0.917   7.449  0.0119  0.6242  0.2953
  381COC    COC  381   1.939   0.648   7.602 -0.1702  0.1603 -0.2732
  382COC    COC  382   2.185   0.512   7.735 -0.2643 -0.0223 -0.1116
  383COC    COC  383   2.449   0.617   7.773 -0.1803 -0.2363 -0.4449
  384COC    COC  384   2.756   0.548   7.744 -0.1659  0.4939 -0.4061
  385COC    COC  385   2.765   0.462   7.412  0.3387 -0.4311 -0.1558
  386COC    COC  386   2.782   0.557   7.081  0.0967 -0.2782 -0.0374
  387COC    COC  387   2.928   0.424   6.871 -0.2550  0.2088 -0.1662
  388COC    COC  388   3.040   0.519   6.603  0.2425 -0.2606  0.0094
  389COC    COC  389   3.234   0.378   6.383  0.1230  0.0424 -0.2136
  390COC    COC  390   3.077   0.205   6.182 -0.0761  0.1234  0.5147
  391COC    COC  391   3.160  10.240   6.274 -0.0352 -0.0100 -0.0780
  392COC    COC  392   2.977  10.118   6.518 -0.1071  0.2752  0.1025
  393COC    COC  393   2.847   9.827   6.535  0.0670  0.0325 -0.3534
  394COC    COC  394   3.017   9.622   6.617 -0.1881  0.2005 -0.1364
  395COC    COC  395   3.010   9.639   6.930  0.1187 -0.0816 -0.2318
  396COC    COC  396   2.867   9.403   7.101 -0.0607  0.1319  0.0003
  397COC    COC  397   2.910   9.210   7.314 -0.1384  0.0176 -0.0374
  398COC    COC  398   3.027   9.439   7.502 -0.0510 -0.2149 -0.0628
  399COC    COC  399   3.308   9.386   7.572  0.1335 -0.2489  0.3558
  400COC    COC  400   3.400   9.587   7.714  0.0532  0.2794 -0.0231
  401COC    COC  401   3.376   9.893   7.762 -0.1422 -0.4357  0.0110
  402COC    COC  402   3.182  10.027   7.991  0.2186  0.0434 -0.1676
  403COC    COC  403   3.216  10.148   8.259  0.2657 -0.1229 -0.0094
  404COC    COC  404   3.357   0.101   8.317 -0.3303 -0.0900  0.2474
  405COC    COC  405   3.564   0.148   8.533  0.0497 -0.4686  0.3660
  406COC    COC  406   3.619  10.183   8.621  0.0986  0.1252 -0.0189
  407COC    COC  407   3.371  10.044   8.727  0.2626  0.0674  0.4483
  408COC    COC  408   3.203   9.833   8.593  0.2314  0.0441  0.1782
  409COC    COC  409   3.194   9.589   8.785  0.1351 -0.0360 -0.4449
  410COC    COC  410   3.148   9.386   8.538  0.1036 -0.2070  0.2234
  411COC    COC  411   3.380   9.272   8.370  0.0113  0.2046 -0.0452
  412COC    COC  412   3.492   9.085   8.561 -0.0737 -0.5127  0.5139
  413COC    COC  413   3.520   9.211   8.841 -0.6251  0.1780 -0.2006
  414COH    COH  414   3.239   9.249   8.873 -0.2552 -0.0051 -0.1481
  415COH    COH  415   9.891   5.055   6.934  0.0900 -0.6466  0.0257
  416COC    COC  416  10.124   5.083   7.106 -0.1914  0.0471 -0.2827
  417COC    COC  417  10.324   5.256   7.270 -0.2136  0.0253 -0.1508
  418COC    COC  418   0.222   5.140   7.418 -0.0559  0.0976  0.1415
  419COC    COC  419   0.325   5.082   7.717  0.2052 -0.0793 -0.2113
  420COC    COC  420   0.113   5.059   7.936  0.0630  0.0737  0.2682
  421COC    COC  421  10.148   5.075   7.783  0.1954  0.4669 -0.0195
  422COC    COC  422  10.008   4.877   7.525 -0.1665 -0.2298  0.0840
  423COC    COC  423   9.877   4.611   7.583 -0.2599  0.2425 -0.1990
  424COC    COC  424   9.590   4.539   7.482  0.0965  0.1229  0.2732
  425COC    COC  425   9.358   4.745   7.587 -0.1956  0.0451 -0.2048
  426COC    COC  426   9.379   4.965   7.755 -0.2105 -0.2308 -0.1654
  427COC    COC  427   9.367   4.917   8.061  0.3827  0.1860  0.2192
  428COC    COC  428   9.459   5.203   8.165  0.0318  0.2521  0.0243
  429COC    COC  429   9.310   5.352   7.936  0.0690 -0.0578 -0.3758
  430COC    COC  430   9.062   5.288   7.787  0.1970 -0.3332  0.0940
  431COC    COC  431   9.122   5.192   7.528  0.1739  0.2577 -0.3255
  432COC    COC  432   9.345   5.327   7.442  0.0191 -0.1885 -0.3935
  433COC    COC  433   9.399   5.347   7.134  0.1883  0.0360 -0.3868
  434COC    COC  434   9.212   5.372   6.922 -0.3475  0.2377 -0.0404
  435COC    COC  435   9.168   5.144   6.740 -0.0141  0.0372  0.0827
  436COC    COC  436   9.211   4.880   6.690 -0.1838 -0.3766  0.0822
  437COC    COC  437   9.531   4.871   6.796 -0.0230 -0.1149 -0.4048
  438COC    COC  438   9.749   4.664   6.863 -0.0525 -0.0796 -0.0284
  439COC    COC  439   9.837   4.607   7.139  0.1610  0.0828 -0.0018
  440COC    COC  440   9.827   4.313   7.162 -0.2402 -0.0242  0.3091
  441COC    COC  441  10.098   4.204   7.097  0.4460  0.3500  0.1393
  442COC    COC  442  10.203   3.944   7.028 -0.0756 -0.1628  0.1228
  443COC    COC  443  10.256   3.805   7.347  0.0183  0.1041 -0.2180
  444COC    COC  444   0.177   3.799   7.511  0.2506  0.0701  0.1305
  445COC    COC  445   0.165   3.738   7.812 -0.1446 -0.0501  0.0021
  446COC    COC  446   0.342   3.501   7.986 -0.6126 -0.2769 -0.0186
  447COC    COC  447   0.534   3.576   8.218  0.1060  0.3974  0.1242
  448COC    COC  448   0.528   3.797   8.421  0.2441  0.4540  0.4572
  449COC    COC  449   0.323   3.682   8.609  0.2182  0.3392 -0.0592
  450COC    COC  450   0.173   3.443   8.480  0.0476  0.0391 -0.1887
  451COC    COC  451   0.248   3.230   8.309 -0.2032  0.5667 -0.2024
  452COC    COC  452   0.366   3.010   8.489 -0.1209 -0.0103  0.1492
  453COC    COC  453   0.671   3.026   8.533 -0.0433 -0.5833 -0.2684
  454COC    COC  454   0.780   3.325   8.582 -0.0939 -0.2923  0.1826
  455COC    COC  455   0.856   3.479   8.815  0.1034  0.1346 -0.0690
  456COC    COC  456   0.783   3.474   9.128  0.0413 -0.2045 -0.3231
  457COC    COC  457   1.039   3.427   9.239 -0.0179  0.0372 -0.5402
  458COC    COC  458   1.026   3.303   9.496 -0.0940 -0.4104  0.1464
  459COC    COC  459   0.998   3.007   9.428  0.0646  0.3131 -0.2958
  460COH    COH  460   1.243   3.010   9.375  0.2628  0.0326  0.5721
  461COH    COH  461   3.872   2.988   4.080  0.4049  0.0477  0.2434
  462COC    COC  462   3.809   3.213   3.917  0.1677  0.1630 -0.2165
  463COC    COC  463   3.542   3.127   3.841  0.1364  0.2009 -0.2701
  464COC    COC  464   3.233   3.073   3.892  0.2393  0.4454  0.0525
  465COC    COC  465   3.099   3.368   3.960  0.1613  0.0744  0.2337
  466COC    COC  466   3.030   3.587   3.843 -0.0913 -0.2425 -0.0579
  467COC    COC  467   3.040   3.862   3.939  0.3094 -0.4097  0.2279
  468COC    COC  468   2.981   3.862   4.204  0.0957  0.4967 -0.1193
  469COC    COC  469   3.115   3.730   4.416 -0.2059  0.1556  0.2935
  470COC    COC  470   3.234   3.938   4.632  0.3698 -0.0942  0.1587
  471COC    COC  471   3.515   3.848   4.646  0.3864 -0.0017 -0.0592
  472COC    COC  472   3.686   4.008   4.887 -0.0794 -0.3162 -0.3342
  473COC    COC  473   3.933   3.980   5.078  0.0333 -0.0107 -0.1203
  474COC    COC  474   3.985   3.791   5.296 -0.2014 -0.1461  0.0107
  475COC    COC  475   3.953   3.777   5.596  0.3470  0.0730  0.2323
  476COC    COC  476   3.955   4.015   5.787 -0.0142  0.4129  0.1651
  477COC    COC  477   4.005   3.860   6.037 -0.3301 -0.2251  0.6763
  478COC    COC  478   4.254   3.655   5.904  0.1720 -0.0524 -0.1414
  479COC    COC  479   4.535   3.549   5.916 -0.0959 -0.0146 -0.1277
  480COC    COC  480   4.692   3.482   5.664  0.0919 -0.1852  0.0800
  481COC    COC  481   4.906   3.276   5.663  0.3236 -0.0620 -0.0341
  482COC    COC  482   5.086   3.242   5.411 -0.0177 -0.1431  0.1591
  483COC    COC  483   5.225   3.014   5.256  0.0175 -0.1366 -0.1114
  484COC    COC  484   5.359   2.970   4.988 -0.1176  0.2056 -0.0689
  485COC    COC  485   5.249   2.968   4.708 -0.2486  0.1685  0.3290
  486COC    COC  486   4.972   3.039   4.804 -0.2059  0.1771 -0.1598
  487COC    COC  487   4.815   2.803   4.668 -0.0219  0.0875  0.0164
  488COC    COC  488   4.985   2.573   4.566  0.3590  0.2793  0.2413
  489COC    COC  489   5.046   2.478   4.290 -0.0184 -0.2332  0.0084
  490COC    COC  490   5.145   2.550   4.021 -0.3446  0.1555  0.2798
  491COC    COC  491   5.442   2.556   4.018  0.0950 -0.0909  0.0110
  492COC    COC  492   5.597   2.814   3.900 -0.0938  0.5041 -0.0997
  493COC    COC  493   5.689   3.099   3.923  0.0009 -0.4236 -0.1044
  494COC    COC  494   6.005   3.064   3.919  0.0014  0.7305  0.1511
  495COC    COC  495   6.223   3.254   3.927 -0.3791 -0.1862 -0.3960
  496COC    COC  496   6.328   3.364   3.670  0.0412  0.2590 -0.1511
  497COC    COC  497   6.159   3.430   3.416 -0.1711  0.0521  0.3896
  498COC    COC  498   6.176   3.714   3.300 -0.1777  0.0454 -0.2632
  499COC    COC  499   6.265   3.852   3.544  0.2211 -0.1423 -0.0544
  500COC    COC  500   6.469   4.063   3.637 -0.1231 -0.4256 -0.2908
  501COC    COC  501   6.414   4.340   3.790  0.0687 -0.0435  0.0700
  502COC    COC  502   6.127   4.275   3.893  0.1273  0.1683 -0.2701
  503COC    COC  503   5.963   4.251   3.655 -0.0850  0.1151  0.3153
  504COC    COC  504   5.893   4.461   3.455  0.1193 -0.5354 -0.3844
  505COC    COC  505   6.106   4.615   3.349  0.2995 -0.0767 -0.5412
  506COH    COH  506   6.273   4.590   3.582  0.2946 -0.4528  0.4391
  507COH    COH  507   6.492   8.003   9.193 -0.4963 -0.5036  0.4019
  508COC    COC  508   6.551   8.240   9.051  0.2819 -0.3113  0.3208
  509COC    COC  509   6.330   8.289   8.813 -0.2412 -0.0092 -0.4683
  510COC    COC  510   6.172   8.147   8.583 -0.1512 -0.1930  0.3296
  511COC    COC  511   6.328   7.914   8.384  0.0049  0.1919  0.0879
  512COC    COC  512   6.210   7.907   8.120 -0.0880  0.3224 -0.4671
  513COC    COC  513   6.015   7.772   7.970  0.0889  0.1010  0.1181
  514COC    COC  514   6.064   7.615   7.745 -0.0743 -0.1522  0.2544
  515COC    COC  515   6.041   7.292   7.792 -0.1104 -0.0294 -0.0040
  516COC    COC  516   6.188   7.199   8.051 -0.1628  0.2952 -0.2134
  517COC    COC  517   6.076   6.943   8.133 -0.4637  0.3930 -0.0352
  518COC    COC  518   5.924   6.763   7.885 -0.1215 -0.3027  0.0406
  519COC    COC  519   5.609   6.819   7.816 -0.0203  0.1758  0.2320
  520COC    COC  520   5.475   7.032   7.682 -0.0422  0.1832 -0.2993
  521COC    COC  521   5.397   7.302   7.824 -0.0710 -0.0411  0.1914
  522COC    COC  522   5.555   7.533   7.833  0.7134 -0.4150  0.3365
  523COC    COC  523   5.614   7.738   7.664  0.0134 -0.0695  0.1879
  524COC    COC  524   5.501   7.891   7.430  0.3676 -0.2579 -0.0589
  525COC    COC  525   5.612   8.160   7.289  0.1094  0.2461 -0.2708
  526COC    COC  526   5.768   8.196   7.027 -0.2737  0.3165 -0.2045
  527COC    COC  527   5.696   8.434   6.856  0.1276  0.1400 -0.1224
  528COC    COC  528   5.802   8.684   6.667 -0.0888  0.0840  0.2460
  529COC    COC  529   6.090   8.795   6.618  0.1240  0.2149  0.1386
  530COC    COC  530   6.164   9.007   6.820 -0.0130 -0.3456 -0.0467
  531COC    COC  531   6.007   9.270   6.775  0.0392  0.4001  0.1932
  532COC    COC  532   5.926   9.461   6.543 -0.2337 -0.1457 -0.0865
  533COC    COC  533   5.847   9.655   6.356  0.2173  0.1328  0.4096
  534COC    COC  534   5.697   9.823   6.153 -0.0406  0.4399 -0.1761
  535COC    COC  535   5.566   9.773   5.904  0.0534  0.0633  0.2522
  536COC    COC  536   5.620   9.652   5.662 -0.0905 -0.2696  0.3624
  537COC    COC  537   5.543   9.402   5.687 -0.0212  0.1603 -0.2982
  538COC    COC  538   5.748   9.206   5.597 -0.4334  0.3272  0.1731
  539COC    COC  539   5.798   9.211   5.266  0.0203 -0.2107 -0.1901
  540COC    COC  540   6.055   9.270   5.173 -0.1427  0.0045  0.3104
  541COC    COC  541   6.030   9.443   4.939 -0.0515  0.3072 -0.2711
  542COC    COC  542   5.799   9.535   4.782  0.1412  0.2456 -0.0418
  543COC    COC  543   5.782   9.740   4.531  0.2486  0.1173  0.2237
  544COC    COC  544   5.611   9.848   4.301  0.4458 -0.1309 -0.3261
  545COC    COC  545   5.304   9.761   4.300  0.0833 -0.3457  0.0759
  546COC    COC  546   5.243   9.767   4.020 -0.0156  0.3196  0.0037
  547COC    COC  547   4.947   9.763   3.950 -0.1167 -0.2275  0.0331
  548COC    COC  548   4.695   9.889   3.942  0.1207 -0.2333 -0.0459
  549COC    COC  549   4.746  10.137   3.759 -0.0518 -0.0363 -0.0092
  550COC    COC  550   4.592  10.306   3.593  0.3750 -0.1163  0.3762
  551COC    COC  551   4.470   0.208   3.754 -0.1228 -0.2933  0.0908
  552COH    COH  552   4.460   0.436   3.602 -0.4588  0.2654 -0.2990
  553COH    COH  553   5.745   0.330   1.994  0.0408 -0.4096  0.2262
  554COC    COC  554   5.725   0.307   1.722  0.1926  0.0803 -0.0626
  555COC    COC  555   5.512   0.063   1.680  0.1672 -0.1673 -0.1918
  556COC    COC  556   5.304   0.069   1.894 -0.1370  0.1183 -0.3387
  557COC    COC  557   5.165  10.164   1.840  0.1605  0.7399  0.2569
  558COC    COC  558   4.856  10.099   1.875  0.4815  0.3195 -0.1527
  559COC    COC  559   4.729  10.270   1.680  0.0320 -0.0913 -0.1406
  560COC    COC  560   4.972  10.288   1.474  0.2215 -0.1936 -0.1558
  561COC    COC  561   5.225  10.162   1.429 -0.3053  0.0136 -0.1328
  562COC    COC  562   5.135   9.931   1.326 -0.1108  0.0673 -0.1894
  563COC    COC  563   5.351   9.879   1.104 -0.1099 -0.2431  0.0142
  564COC    COC  564   5.461   9.575   1.104  0.1121 -0.2481  0.0760
  565COC    COC  565   5.399   9.348   0.958  0.0676  0.3777 -0.5263
  566COC    COC  566   5.175   9.187   1.046  0.2294 -0.1070  0.1597
  567COC    COC  567   5.093   9.311   1.268 -0.2679  0.2073 -0.3570
  568COC    COC  568   5.229   9.501   1.474 -0.3537  0.0187  0.5037
  569COC    COC  569   5.506   9.464   1.600 -0.2868  0.3797 -0.2027
  570COC    COC  570   5.738   9.463   1.751 -0.0438  0.0360  0.3849
  571COC    COC  571   6.013   9.347   1.736  0.0412  0.2929 -0.0628
  572COC    COC  572   6.190   9.194   1.553  0.2297 -0.2924  0.0999
  573COC    COC  573   6.432   9.286   1.374 -0.3541  0.0308  0.0848
  574COC    COC  574   6.690   9.092   1.297 -0.3688 -0.2163  0.2006
  575COC    COC  575   6.591   8.896   1.082 -0.1077 -0.0558 -0.0358
  576COC    COC  576   6.480   8.692   0.917 -0.2438 -0.0345 -0.1720
  577COC    COC  577   6.415   8.454   1.117 -0.1241 -0.1015  0.5156
  578COC    COC  578   6.423   8.214   0.943  0.3055  0.0471 -0.1970
  579COC    COC  579   6.278   8.007   1.020 -0.1584 -0.0856 -0.0796
  580COC    COC  580   6.332   7.708   0.986  0.1195 -0.1206 -0.0805
  581COC    COC  581   6.396   7.684   0.668  0.1658  0.2551  0.4298
  582COC    COC  582   6.624   7.552   0.518 -0.4380  0.1471 -0.6267
  583COC    COC  583   6.852   7.364   0.655 -0.0738 -0.3783  0.2764
  584COC    COC  584   6.806   7.058   0.556 -0.2245  0.0108  0.1077
  585COC    COC  585   7.055   7.050   0.363 -0.5369 -0.1741 -0.0856
  586COC    COC  586   7.067   7.271   0.151 -0.2434 -0.0227 -0.1343
  587COC    COC  587   7.072   7.381  10.174  0.0906 -0.4256  0.4194
  588COC    COC  588   6.841   7.274  10.061  0.0122  0.1797 -0.1850
  589COC    COC  589   6.832   7.178   9.754 -0.0762 -0.1013 -0.4959
  590COC    COC  590   6.820   7.391   9.593 -0.4262 -0.4080  0.1727
  591COC    COC  591   6.997   7.581   9.729  0.0848  0.3519 -0.1603
  592COC    COC  592   6.837   7.664   9.975  0.1366 -0.3613  0.0094
  593COC    COC  593   6.793   7.950   9.941 -0.1397  0.2844 -0.1338
  594COC    COC  594   6.506   8.016   9.963  0.3544  0.2441  0.1289
  595COC    COC  595   6.229   8.161   9.947  0.1890  0.2636 -0.0905
  596COC    COC  596   6.129   8.416   9.912  0.1032  0.3908 -0.2667
  597COC    COC  597   5.844   8.413  10.007  0.0946  0.1374 -0.0762
  598COH    COH  598   5.770   8.642   9.907 -0.0745  0.0558  0.0077
  599COH    COH  599   0.363   8.222   5.209 -0.0905 -0.0116 -0.4698
  600COC    COC  600   0.377   8.481   5.196 -0.5352  0.1466  0.0556
  601COC    COC  601   0.212   8.689   5.056 -0.2079  0.1556  0.2763
  602COC    COC  602  10.196   8.721   5.103  0.2000 -0.1221  0.0685
  603COC    COC  603  10.125   8.687   5.415  0.1729 -0.3157  0.1714
  604COC    COC  604   9.860   8.733   5.583  0.2108 -0.0309 -0.2615
  605COC    COC  605   9.715   8.617   5.835 -0.1682  0.1082 -0.2579
  606COC    COC  606   9.553   8.756   6.025  0.4620  0.3112 -0.2358
  607COC    COC  607   9.589   8.857   6.326  0.1014 -0.3580  0.1230
  608COC    COC  608   9.838   9.067   6.370  0.0984  0.0998  0.0782
  609COC    COC  609  10.070   9.148   6.264 -0.2230  0.3935 -0.1776
  610COC    COC  610  10.316   8.987   6.238  0.0562 -0.0157  0.4008
  611COC    COC  611   0.159   8.967   5.992  0.1118  0.0530 -0.1716
  612COC    COC  612   0.250   8.721   5.875 -0.4072 -0.1100 -0.0392
  613COC    COC  613   0.501   8.577   5.780  0.1320  0.1189 -0.1238
  614COC    COC  614   0.744   8.478   5.941 -0.1759  0.0412  0.4871
  615COC    COC  615   0.747   8.306   6.169  0.1782  0.1091 -0.3609
  616COC    COC  616   0.711   7.983   6.158  0.1070  0.0784  0.1542
  617COC    COC  617   0.409   7.951   6.220 -0.2192 -0.3719  0.1387
  618COC    COC  618   0.430   7.868   6.505  0.0206 -0.0590  0.3654
  619COC    COC  619   0.489   7.982   6.752  0.2823  0.2673  0.0610
  620COC    COC  620   0.711   8.200   6.825 -0.6079 -0.0081 -0.1584
  621COC    COC  621   0.960   8.247   6.622  0.1590 -0.0981 -0.2195
  622COC    COC  622   0.967   8.519   6.549  0.2323  0.1990 -0.0348
  623COC    COC  623   0.758   8.714   6.601  0.1080 -0.1070 -0.2392
  624COC    COC  624   0.645   8.974   6.525  0.3598  0.1705 -0.0696
  625COC    COC  625   0.342   8.969   6.452 -0.1442 -0.2126 -0.1960
  626COC    COC  626   0.304   9.264   6.475  0.2368  0.2388 -0.0092
  627COC    COC  627   0.083   9.463   6.405  0.2628  0.2438 -0.2630
  628COC    COC  628   0.089   9.731   6.576  0.0385  0.3766  0.1910
  629COC    COC  629   0.005   9.632   6.826  0.3939  0.2673 -0.1278
  630COC    COC  630   0.208   9.449   6.893 -0.2290 -0.0482  0.0230
  631COC    COC  631   0.460   9.247   6.893 -0.8080  0.2856 -0.2163
  632COC    COC  632   0.341   8.991   6.959 -0.0518  0.2900 -0.3590
  633COC    COC  633   0.115   9.098   7.144 -0.0486  0.0213 -0.2666
  634COC    COC  634  10.271   8.853   7.126  0.0656 -0.1360 -0.1729
  635COC    COC  635  10.298   8.640   6.939  0.3792  0.2248  0.3532
  636COC    COC  636  10.247   8.625   6.636  0.5147  0.0603  0.5166
  637COC    COC  637  10.043   8.378   6.737 -0.1096  0.1030  0.2821
  638COC    COC  638   9.746   8.313   6.715  0.2514 -0.0162 -0.0929
  639COC    COC  639   9.672   8.109   6.894  0.0203  0.2851 -0.5102
  640COC    COC  640   9.721   8.205   7.176  0.3468  0.1519 -0.0646
  641COC    COC  641   9.917   8.429   7.141 -0.0035 -0.2031 -0.0717
  642COC    COC  642  10.050   8.570   7.363 -0.1102  0.0032 -0.1073
  643COC    COC  643   9.921   8.814   7.470  0.0069 -0.1719 -0.0478
  644COH    COH  644   9.789   8.959   7.252  0.1588  0.0600  0.0342
  645COH    COH  645   9.954   8.128   1.361  0.6541 -0.0744  0.1192
  646COC    COC  646   9.784   8.319   1.389 -0.2618  0.2285  0.1005
  647COC    COC  647   9.610   8.371   1.134  0.0391  0.0765  0.1235
  648COC    COC  648   9.340   8.462   1.059  0.2220  0.2689  0.3517
  649COC    COC  649   9.279   8.755   1.027 -0.1772 -0.1374 -0.1387
  650COC    COC  650   9.381   8.973   0.822 -0.2084  0.1097  0.1562
  651COC    COC  651   9.351   9.004   0.535  0.0070  0.2395  0.3190
  652COC    COC  652   9.472   8.822   0.372 -0.1295 -0.1026 -0.0115
  653COC    COC  653   9.287   8.652   0.276 -0.1293  0.2279 -0.1333
  654COC    COC  654   9.025   8.718   0.370 -0.1034 -0.1918  0.0503
  655COC    COC  655   8.965   8.810   0.656  0.2039 -0.1391 -0.4859
  656COC    COC  656   8.861   9.111   0.565 -0.0264 -0.1334 -0.1622
  657COC    COC  657   8.752   9.409   0.657 -0.1846  0.0697 -0.1623
  658COC    COC  658   8.648   9.428   0.898  0.2217 -0.2025 -0.0082
  659COC    COC  659   8.810   9.688   0.984 -0.0524  0.0813  0.0390
  660COC    COC  660   9.116   9.765   0.980 -0.2553 -0.0937 -0.1008
  661COC    COC  661   9.148   9.676   0.689 -0.1141 -0.1470 -0.1073
  662COC    COC  662   9.196   9.380   0.594  0.1138  0.6621 -0.1167
  663COC    COC  663   9.224   9.366   0.277  0.1160 -0.5107  0.1278
  664COC    COC  664   9.177   9.132   0.080 -0.4358 -0.0631  0.0086
  665COC    COC  665   8.927   8.948   0.024  0.1042 -0.2432 -0.1001
  666COC    COC  666   8.697   8.904  10.115 -0.2355 -0.2856  0.3080
  667COC    COC  667   8.786   9.113   9.906 -0.0773  0.0132 -0.4072
  668COC    COC  668   9.057   9.212   9.942  0.0614 -0.2852  0.1681
  669COC    COC  669   9.345   9.050   9.935 -0.0884 -0.4264  0.3855
  670COC    COC  670   9.446   8.912  10.228 -0.4962 -0.0171  0.2685
  671COC    COC  671   9.496   8.624  10.193 -0.5390 -0.3747 -0.1591
  672COC    COC  672   9.471   8.330  10.275 -0.3588  0.2997 -0.0373
  673COC    COC  673   9.243   8.215   0.137 -0.4610  0.0263 -0.0725
  674COC    COC  674   9.043   8.055   0.361  0.0269 -0.2999  0.0018
  675COC    COC  675   8.983   7.869   0.134 -0.4440  0.2436  0.1597
  676COC    COC  676   9.021   7.577   0.113  0.1336 -0.0317  0.0001
  677COC    COC  677   9.066   7.393  10.193 -0.0232 -0.0424 -0.3264
  678COC    COC  678   9.327   7.288  10.120  0.0676  0.2441 -0.1960
  679COC    COC  679   9.468   7.068   9.951  0.1533  0.0120  0.0276
  680COC    COC  680   9.432   6.783   9.864 -0.1904  0.0976  0.2294
  681COC    COC  681   9.144   6.635   9.829  0.0438 -0.0872  0.2184
  682COC    COC  682   8.868   6.776   9.822 -0.0413  0.1397 -0.0010
  683COC    COC  683   8.822   6.857   9.551  0.3851 -0.4700 -0.0357
  684COC    COC  684   8.552   6.923   9.475  0.0820  0.2435  0.3154
  685COC    COC  685   8.303   7.123   9.541  0.0837 -0.1319  0.3351
  686COC    COC  686   8.065   6.941   9.495  0.0694  0.2076  0.0645
  687COC    COC  687   8.144   6.663   9.520 -0.2678 -0.2780 -0.1726
  688COC    COC  688   8.322   6.549   9.264  0.0472 -0.1024  0.0985
  689COC    COC  689   8.634   6.589   9.203 -0.0403 -0.2008 -0.2480
  690COH    COH  690   8.736   6.331   9.204  0.0509  0.5793  0.2032
  691COH    COH  691   6.150   0.535  10.265 -0.0521 -0.1632  0.1869
  692COC    COC  692   6.259   0.305  10.210 -0.1364  0.1279  0.0107
  693COC    COC  693   6.075   0.107   0.041 -0.0957  0.0888  0.3584
  694COC    COC  694   6.237  10.192   0.108 -0.1151  0.2172 -0.0451
  695COC    COC  695   6.264  10.031  10.187  0.2787 -0.1468  0.1117
  696COC    COC  696   6.161  10.000   9.897 -0.3097  0.2810  0.1907
  697COC    COC  697   6.267   9.810   9.673 -0.2437  0.0403 -0.0467
  698COC    COC  698   6.206   9.525   9.795  0.4531  0.0066 -0.1171
  699COC    COC  699   5.935   9.389   9.692 -0.0066 -0.1105  0.1705
  700COC    COC  700   6.051   9.317   9.396  0.0002  0.0720 -0.0127
  701COC    COC  701   6.150   9.012   9.360 -0.1558 -0.0630 -0.0703
  702COC    COC  702   5.995   8.902   9.108 -0.1626 -0.3190 -0.0029
  703COC    COC  703   6.022   8.622   9.029  0.6941 -0.0138 -0.5069
  704COC    COC  704   5.749   8.532   9.144  0.0492  0.1500 -0.1932
  705COC    COC  705   5.563   8.708   9.224 -0.2948  0.1065 -0.1012
  706COC    COC  706   5.431   8.815   8.961 -0.3220  0.0610  0.1891
  707COC    COC  707   5.618   8.921   8.712  0.2101 -0.0769  0.1814
  708COC    COC  708   5.921   9.008   8.714 -0.2601 -0.2706  0.3263
  709COC    COC  709   5.962   8.914   8.446  0.1820 -0.3569  0.0101
  710COC    COC  710   5.952   9.112   8.196  0.2852 -0.1882 -0.0060
  711COC    COC  711   6.039   9.011   7.940 -0.1596  0.0120  0.0842
  712COC    COC  712   5.987   8.711   7.887 -0.2391  0.0897  0.4930
  713COC    COC  713   5.718   8.652   7.761  0.1902  0.2211  0.0831
  714COC    COC  714   5.519   8.810   7.576  0.1853  0.0189 -0.2560
  715COC    COC  715   5.469   8.999   7.318 -0.0814  0.1478  0.1746
  716COC    COC  716   5.432   9.303   7.301  0.0074  0.1485 -0.4798
  717COC    COC  717   5.143   9.362   7.403 -0.1608 -0.1377  0.1252
  718COC    COC  718   4.922   9.143   7.384  0.1128  0.1366 -0.1310
  719COC    COC  719   4.692   9.145   7.220 -0.2357  0.3073  0.3534
  720COC    COC  720   4.502   9.359   7.161  0.1770 -0.1917 -0.2078
  721COC    COC  721   4.599   9.616   7.314 -0.0459 -0.1712 -0.3707
  722COC    COC  722   4.867   9.689   7.412  0.1374  0.0626  0.1306
  723COC    COC  723   4.888  10.002   7.468 -0.3395  0.2962  0.0264
  724COC    COC  724   5.010  10.055   7.729 -0.5687 -0.1083  0.1121
  725COC    COC  725   4.981   9.956   8.026 -0.2024 -0.4622 -0.1463
  726COC    COC  726   4.827   9.687   8.040  0.2031 -0.4341 -0.3075
  727COC    COC  727   4.561   9.832   8.157 -0.2391  0.3336  0.1104
  728COC    COC  728   4.416  10.112   8.206 -0.1650  0.1096  0.1677
  729COC    COC  729   4.140  10.243   8.155  0.2223  0.1874  0.0650
  730COC    COC  730   3.888  10.221   8.317  0.1875 -0.1224  0.0060
  731COC    COC  731   3.624  10.132   8.082 -0.0632 -0.1670 -0.2478
  732COC    COC  732   3.758  10.161   7.793 -0.4281 -0.3205  0.0958
  733COC    COC  733   4.003   9.972   7.861  0.1175  0.1467  0.0663
  734COC    COC  734   3.941   9.826   8.161 -0.1556 -0.0563  0.0436
  735COC    COC  735   4.111   9.752   8.386 -0.0895  0.0717  0.3353
  736COH    COH  736   4.272   9.824   8.563  0.4735 -0.2896  0.2676
  737COH    COH  737   9.315   5.520   6.539  0.0243 -0.2717 -0.4441
  738COC    COC  738   9.388   5.776   6.469  0.1375  0.0489 -0.6159
  739COC    COC  739   9.667   5.716   6.396 -0.0700  0.1441 -0.0602
  740COC    COC  740   9.705   5.723   6.098  0.0218 -0.2095  0.0795
  741COC    COC  741   9.968   5.832   6.058  0.0398 -0.0282 -0.1339
  742COC    COC  742  10.033   5.967   6.309 -0.2769 -0.0554 -0.3873
  743COC    COC  743   9.831   6.148   6.428  0.3182 -0.2901  0.0718
  744COC    COC  744   9.636   6.271   6.219  0.1919  0.1279  0.1746
  745COC    COC  745   9.458   6.100   6.056 -0.2589 -0.0143  0.1195
  746COC    COC  746   9.287   6.257   5.889  0.2188 -0.0256  0.0271
  747COC    COC  747   9.405   6.399   5.677 -0.1819 -0.0090 -0.3096
  748COC    COC  748   9.405   6.289   5.431 -0.1090  0.1199  0.0351
  749COC    COC  749   9.199   6.199   5.249 -0.1274 -0.1140 -0.0571
  750COC    COC  750   9.251   5.916   5.184  0.1335  0.0767  0.3290
  751COC    COC  751   9.561   5.886   5.138 -0.1417  0.2512 -0.0383
  752COC    COC  752   9.734   5.761   5.356  0.1058  0.3470 -0.2398
  753COC    COC  753   9.969   5.582   5.271  0.0813  0.3962  0.0122
  754COC    COC  754  10.078   5.291   5.407  0.1729 -0.0738  0.1831
  755COC    COC  755   9.851   5.099   5.537  0.0275  0.4169  0.0421
  756COC    COC  756   9.562   5.129   5.405  0.0224 -0.2932 -0.2521
  757COC    COC  757   9.552   5.404   5.252 -0.2054  0.1315 -0.1098
  758COC    COC  758   9.281   5.517   5.272  0.1783  0.0692 -0.3116
  759COC    COC  759   9.085   5.292   5.262  0.1808 -0.1785  0.1060
  760COC    COC  760   9.114   5.018   5.356 -0.3859 -0.0807  0.0603
  761COC    COC  761   9.052   4.753   5.404 -0.5115  0.1540 -0.0406
  762COC    COC  762   8.849   4.533   5.368 -0.0316  0.1787  0.2552
  763COC    COC  763   8.622   4.400   5.501  0.4676  0.1378 -0.4449
  764COC    COC  764   8.544   4.139   5.307  0.0264 -0.2745 -0.2131
  765COC    COC  765   8.467   3.873   5.293 -0.0512  0.0617 -0.0121
  766COC    COC  766   8.198   3.851   5.497 -0.1817  0.2627 -0.0849
  767COC    COC  767   7.871   3.886   5.539 -0.1986  0.0595 -0.1505
  768COC    COC  768   7.835   4.026   5.755 -0.0161  0.0049 -0.1028
  769COC    COC  769   7.840   4.272   5.907  0.0009 -0.0049  0.0442
  770COC    COC  770   7.752   4.228   6.184  0.5688  0.4762 -0.3681
  771COC    COC  771   7.757   4.036   6.452 -0.0440  0.0639  0.0524
  772COC    COC  772   8.056   3.923   6.513 -0.0132 -0.0794  0.3951
  773COC    COC  773   8.217   4.051   6.711  0.1878 -0.1686 -0.0603
  774COC    COC  774   8.227   4.046   7.015 -0.0383  0.3191  0.0430
  775COC    COC  775   8.041   4.146   7.225  0.1761  0.0367  0.0590
  776COC    COC  776   7.960   4.426   7.311 -0.1453  0.4576 -0.1512
  777COC    COC  777   7.907   4.646   7.131  0.5200 -0.1439  0.0860
  778COC    COC  778   7.689   4.748   6.942  0.2292 -0.0650 -0.2388
  779COC    COC  779   7.542   4.962   6.815 -0.2557  0.0109 -0.1385
  780COC    COC  780   7.549   5.070   6.547 -0.1958 -0.1314 -0.3628
  781COC    COC  781   7.830   5.053   6.473 -0.1227 -0.3537 -0.2430
  782COH    COH  782   7.924   4.908   6.685  0.0515 -0.6326 -0.1870
  783COH    COH  783   2.863   7.447   8.020  0.2993 -0.1201 -0.2093
  784COC    COC  784   2.922   7.408   8.264 -0.1156  0.4521 -0.0084
  785COC    COC  785   3.219   7.409   8.400  0.3925  0.3923  0.2397
  786COC    COC  786   3.345   7.281   8.143 -0.0327 -0.2399 -0.0595
  787COC    COC  787   3.545   7.042   8.206  0.1498 -0.3092 -0.1191
  788COC    COC  788   3.719   7.070   8.454  0.3606  0.4730  0.0761
  789COC    COC  789   3.746   6.956   8.775  0.0120 -0.1043 -0.2031
  790COC    COC  790   3.865   7.158   8.942  0.1921 -0.2583 -0.3235
  791COC    COC  791   3.720   7.384   9.118 -0.2400  0.1564  0.0181
  792COC    COC  792   3.825   7.672   9.137  0.0115  0.1406 -0.1796
  793COC    COC  793   3.834   7.807   9.421 -0.1776  0.3038  0.0255
  794COC    COC  794   4.145   7.802   9.490  0.2296  0.0572 -0.1108
  795COC    COC  795   4.330   7.921   9.708  0.4804 -0.3377 -0.0673
  796COC    COC  796   4.445   8.162   9.567  0.0135 -0.0170  0.2878
  797COC    COC  797   4.719   8.245   9.709  0.4232  0.0987  0.2114
  798COC    COC  798   4.708   7.963   9.877 -0.1677 -0.2992  0.0913
  799COC    COC  799   4.660   7.682   9.968 -0.0391  0.2889 -0.3966
  800COC    COC  800   4.727   7.594  10.256 -0.0564 -0.2637 -0.1989
  801COC    COC  801   4.518   7.407   0.050 -0.0521 -0.2220 -0.2013
  802COC    COC  802   4.592   7.424   0.381 -0.0942  0.1468  0.1967
  803COC    COC  803   4.891   7.332   0.449  0.3285  0.2463 -0.2143
  804COC    COC  804   5.066   7.071   0.423 -0.4556  0.2602 -0.1447
  805COC    COC  805   5.025   6.878   0.620 -0.2449  0.0162  0.2678
  806COC    COC  806   4.870   6.640   0.597 -0.0489 -0.6584  0.2184
  807COC    COC  807   4.614   6.578   0.647  0.2456 -0.2849  0.0395
  808COC    COC  808   4.452   6.292   0.706 -0.4299 -0.1208  0.0446
  809COC    COC  809   4.195   6.270   0.528  0.2435 -0.0076 -0.3091
  810COC    COC  810   4.105   6.272   0.230  0.1631  0.2320 -0.1088
  811COC    COC  811   3.868   6.097   0.130 -0.0815 -0.1001  0.1632
  812COC    COC  812   3.680   6.252  10.294  0.1617  0.3290  0.0316
  813COC    COC  813   3.408   6.211  10.137  0.0996 -0.2196 -0.6959
  814COC    COC  814   3.175   6.041  10.185  0.2757  0.3986 -0.4078
  815COC    COC  815   2.862   5.965  10.168  0.1091 -0.0341  0.2279
  816COC    COC  816   2.687   6.202  10.169 -0.0840  0.0347  0.1405
  817COC    COC  817   2.841   6.471  10.183  0.4747  0.2796 -0.2374
  818COC    COC  818   2.821   6.737  10.120  0.1650  0.3878 -0.0721
  819COC    COC  819   2.576   6.886  10.248 -0.1639  0.1842 -0.3376
  820COC    COC  820   2.577   7.165  10.272  0.0779  0.2874 -0.0592
  821COC    COC  821   2.458   7.399  10.067 -0.7188 -0.0883  0.0414
  822COC    COC  822   2.721   7.425   9.910 -0.2711  0.2779  0.0271
  823COC    COC  823   2.850   7.546  10.164  0.0845  0.0808 -0.1216
  824COC    COC  824   2.929   7.819  10.199 -0.0772  0.0233 -0.0959
  825COC    COC  825   3.030   8.063  10.031  0.0699  0.1455 -0.4775
  826COC    COC  826   2.878   8.299   9.898  0.1030 -0.3407  0.1366
  827COC    COC  827   3.113   8.503   9.848  0.0772 -0.1425  0.0246
  828COH    COH  828   3.035   8.782   9.885 -0.1291  0.1620  0.0126
  829COH    COH  829   8.457   0.187   2.292  0.1270 -0.4268 -0.1774
  830COC    COC  830   8.547   0.270   2.526  0.1592  0.3619 -0.1980
  831COC    COC  831   8.756   0.100   2.674  0.1919  0.6196 -0.0102
  832COC    COC  832   8.577  10.208   2.790 -0.0004  0.0954 -0.0070
  833COC    COC  833   8.268  10.279   2.844  0.3051  0.5176  0.1984
  834COC    COC  834   8.113   0.093   2.659 -0.1367 -0.2477  0.2848
  835COC    COC  835   8.094   0.031   2.335  0.2774 -0.1530  0.2168
  836COC    COC  836   8.037  10.081   2.211 -0.0941 -0.1102 -0.2455
  837COC    COC  837   7.852   9.839   2.150 -0.2384  0.0554  0.2037
  838COC    COC  838   7.728   9.768   1.850  0.2037  0.2461  0.0296
  839COC    COC  839   7.448   9.846   1.825 -0.2560  0.2430  0.3966
  840COC    COC  840   7.188   9.719   1.839 -0.0581 -0.1120  0.2540
  841COC    COC  841   6.990   9.533   1.968  0.0658 -0.4197 -0.3364
  842COC    COC  842   7.014   9.319   2.134 -0.1534  0.0478 -0.0344
  843COC    COC  843   6.981   9.034   2.041  0.2235  0.2864 -0.3874
  844COC    COC  844   7.163   8.833   2.076  0.1218 -0.6924 -0.3721
  845COC    COC  845   7.332   8.699   1.862 -0.4016  0.0046 -0.3024
  846COC    COC  846   7.595   8.853   1.772 -0.0554  0.0881  0.1485
  847COC    COC  847   7.796   8.746   1.560  0.2755 -0.0912  0.0589
  848COC    COC  848   8.074   8.591   1.621  0.0401 -0.0271  0.3503
  849COC    COC  849   8.169   8.729   1.881 -0.1837  0.0347 -0.1056
  850COC    COC  850   7.970   8.941   1.996  0.2373 -0.1589  0.1652
  851COC    COC  851   7.713   8.821   2.154  0.2688 -0.2385 -0.2399
  852COC    COC  852   7.549   9.043   2.299  0.0766  0.1863 -0.3653
  853COC    COC  853   7.426   9.220   2.077  0.1642  0.0160 -0.1922
  854COC    COC  854   7.474   9.510   2.105  0.2935 -0.5345  0.0100
  855COC    COC  855   7.292   9.710   2.245  0.1485 -0.0251 -0.2035
  856COC    COC  856   7.416   9.980   2.306  0.1211 -0.3910 -0.0444
  857COC    COC  857   7.687  10.065   2.490 -0.0843  0.0954 -0.0481
  858COC    COC  858   7.596   0.024   2.584  0.0893 -0.2566 -0.1147
  859COC    COC  859   7.592   0.306   2.496  0.4281 -0.1401  0.0441
  860COC    COC  860   7.858   0.417   2.643  0.4130 -0.3484  0.4049
  861COC    COC  861   7.919   0.607   2.849  0.6600 -0.1010  0.0648
  862COC    COC  862   7.713   0.661   3.083 -0.1866 -0.3728  0.2465
  863COC    COC  863   7.634   0.906   2.930 -0.2765 -0.1941  0.4951
  864COC    COC  864   7.545   1.180   2.776 -0.0951  0.2625 -0.5023
  865COC    COC  865   7.262   1.141   2.617  0.5617  0.1084  0.2495
  866COC    COC  866   7.049   1.382   2.635 -0.0147 -0.1874  0.1061
  867COC    COC  867   7.000   1.642   2.512  0.5972 -0.1980 -0.2748
  868COC    COC  868   6.968   1.946   2.538 -0.1608  0.2065 -0.1230
  869COC    COC  869   6.963   2.174   2.768 -0.0717  0.1029  0.1143
  870COC    COC  870   7.233   2.303   2.856 -0.0617 -0.1355  0.1763
  871COC    COC  871   7.507   2.274   2.981 -0.2011  0.0156 -0.2567
  872COC    COC  872   7.739   2.082   2.793  0.2234 -0.0048 -0.0222
  873COC    COC  873   7.984   1.978   2.963  0.1086  0.2008 -0.0516
  874COH    COH  874   8.168   2.174   3.091  0.2038  0.4792  0.2853
  875COH    COH  875   1.799   3.474   4.259 -0.3113  0.3119  0.1775
  876COC    COC  876   2.006   3.431   4.050 -0.3288  0.2361 -0.1498
  877COC    COC  877   1.999   3.471   3.793  0.2418 -0.1095 -0.1527
  878COC    COC  878   1.769   3.365   3.612 -0.1976  0.0061 -0.1114
  879COC    COC  879   1.542   3.418   3.358 -0.1444 -0.1336  0.4436
  880COC    COC  880   1.499   3.659   3.140 -0.2266  0.2954 -0.4882
  881COC    COC  881   1.357   3.861   3.273  0.0881  0.3758  0.4860
  882COC    COC  882   1.348   3.904   3.570 -0.1512 -0.7371  0.2090
  883COC    COC  883   1.188   4.090   3.786  0.3523  0.0897  0.3312
  884COC    COC  884   1.213   4.361   3.930  0.1221 -0.1072 -0.1848
  885COC    COC  885   1.082   4.583   3.814 -0.0877 -0.4702  0.0016
  886COC    COC  886   1.124   4.797   3.992  0.1838 -0.3992 -0.0081
  887COC    COC  887   1.018   5.088   3.980 -0.1634 -0.2747  0.1498
  888COC    COC  888   1.175   5.358   4.096 -0.0152  0.1842 -0.0714
  889COC    COC  889   1.019   5.632   4.257  0.1328 -0.1124 -0.1597
  890COC    COC  890   0.893   5.832   4.083 -0.1910 -0.2743  0.0234
  891COC    COC  891   0.918   6.110   4.019 -0.3635 -0.4417  0.2703
  892COC    COC  892   0.811   6.262   3.747  0.0266  0.1680  0.2942
  893COC    COC  893   0.818   6.048   3.524  0.1696 -0.0818  0.5120
  894COC    COC  894   0.638   5.816   3.403 -0.2751  0.2693 -0.0419
  895COC    COC  895   0.355   5.743   3.394 -0.0036 -0.0416  0.0497
  896COC    COC  896   0.241   5.516   3.607 -0.0849 -0.4513  0.2989
  897COC    COC  897   0.487   5.400   3.676  0.0264 -0.1397  0.0718
  898COC    COC  898   0.713   5.400   3.443  0.1429 -0.1328  0.0928
  899COC    COC  899   0.950   5.253   3.542  0.4165  0.2826 -0.0070
  900COC    COC  900   1.131   5.065   3.369 -0.3615  0.4126 -0.3361
  901COC    COC  901   1.145   4.791   3.212 -0.1416  0.0340  0.8849
  902COC    COC  902   1.026   4.708   2.928  0.1671 -0.0658 -0.2262
  903COC    COC  903   1.137   4.669   2.620 -0.2751 -0.2897 -0.3237
  904COC    COC  904   1.353   4.515   2.545  0.2476  0.1502 -0.0622
  905COC    COC  905   1.300   4.312   2.369 -0.4171 -0.4965  0.2484
  906COC    COC  906   1.447   4.058   2.451 -0.2814 -0.0641  0.1128
  907COC    COC  907   1.573   4.196   2.675 -0.3858 -0.3028 -0.4245
  908COC    COC  908   1.373   4.266   2.879 -0.3275 -0.2278 -0.4060
  909COC    COC  909   1.555   4.221   3.125  0.1044 -0.0893 -0.3307
  910COC    COC  910   1.749   4.449   3.219  0.2869  0.1033 -0.1763
  911COC    COC  911   2.013   4.307   3.360  0.0420 -0.1655  0.1598
  912COC    COC  912   2.109   4.253   3.621 -0.1875 -0.1062 -0.2857
  913COC    COC  913   2.212   3.959   3.618 -0.3054  0.0695  0.1438
  914COC    COC  914   2.344   3.747   3.386  0.2768 -0.2281  0.0571
  915COC    COC  915   2.237   3.431   3.398  0.1320 -0.2637 -0.2673
  916COC    COC  916   2.257   3.205   3.630 -0.0783  0.1993  0.0638
  917COC    COC  917   2.208   2.917   3.715 -0.2953 -0.2894  0.3057
  918COC    COC  918   2.474   2.811   3.772 -0.0917  0.0894  0.2603
  919COC    COC  919   2.562   2.499   3.732  0.0198 -0.3974  0.3185
  920COH    COH  920   2.772   2.328   3.749 -0.2130 -0.2168 -0.3527
  921COH    COH  921   8.466   5.213   1.566 -0.5423 -0.4870  0.3954
  922COC    COC  922   8.663   5.330   1.452  0.2369 -0.1476 -0.1826
  923COC    COC  923   8.459   5.593   1.344 -0.0218  0.2136 -0.2003
  924COC    COC  924   8.202   5.702   1.182  0.0449 -0.3437 -0.0292
  925COC    COC  925   7.855   5.687   1.078 -0.3486  0.6028 -0.1715
  926COC    COC  926   7.691   5.533   1.297  0.1391 -0.0396  0.0615
  927COC    COC  927   7.354   5.491   1.237  0.0576 -0.2046  0.2287
  928COC    COC  928   7.229   5.736   1.139  0.3389  0.0440  0.5046
  929COC    COC  929   7.090   5.660   0.885 -0.1481  0.2141  0.1281
  930COC    COC  930   6.858   5.832   0.796  0.1423 -0.0376 -0.0955
  931COC    COC  931   6.615   5.888   0.951  0.2212  0.2582 -0.1700
  932COC    COC  932   6.369   5.729   0.832  0.2057 -0.2609 -0.2403
  933COC    COC  933   6.434   5.696   0.527 -0.0778  0.4593  0.2463
  934COC    COC  934   6.454   5.962   0.422  0.5661  0.0168  0.1981
  935COC    COC  935   6.228   6.066   0.316 -0.3098  0.0170  0.3064
  936COC    COC  936   6.022   6.297   0.295 -0.0708  0.1353 -0.1706
  937COC    COC  937   5.740   6.257   0.246  0.2912 -0.4276  0.0978
  938COC    COC  938   5.544   6.482   0.329  0.0797 -0.5121 -0.2505
  939COC    COC  939   5.415   6.694   0.520  0.0527 -0.2733 -0.3728
  940COC    COC  940   5.519   6.939   0.612 -0.1794  0.3219 -0.0241
  941COC    COC  941   5.802   7.024   0.606  0.2720  0.2101  0.0307
  942COC    COC  942   5.815   6.868   0.338  0.0407 -0.0622  0.1516
  943COC    COC  943   6.086   6.690   0.223  0.1593 -0.5646  0.2128
  944COC    COC  944   6.269   6.629  10.279  0.4203  0.0284  0.0150
  945COC    COC  945   6.381   6.382   0.084  0.0784  0.2290 -0.0018
  946COC    COC  946   6.471   6.451   0.357  0.1680  0.2653  0.5407
  947COC    COC  947   6.312   6.584   0.556  0.3730  0.1773 -0.2879
  948COC    COC  948   6.242   6.876   0.596 -0.1956 -0.1546  0.0922
  949COC    COC  949   6.361   7.149   0.531  0.0568  0.3236  0.3426
  950COC    COC  950   6.128   7.338   0.564  0.1487 -0.0978 -0.0164
  951COC    COC  951   5.992   7.542   0.792 -0.2501 -0.6805  0.1677
  952COC    COC  952   5.762   7.612   0.656  0.2783  0.0371  0.0793
  953COC    COC  953   5.746   7.557   0.370  0.5964  0.0572 -0.1426
  954COC    COC  954   5.978   7.463   0.187 -0.2339  0.3521 -0.0090
  955COC    COC  955   6.062   7.678   0.021 -0.2813  0.2414 -0.3714
  956COC    COC  956   5.972   7.838  10.107  0.1534  0.1411 -0.1255
  957COC    COC  957   5.866   7.692   9.883  0.2534 -0.2784  0.0475
  958COC    COC  958   5.596   7.672   9.784  0.3360 -0.5258  0.2426
  959COC    COC  959   5.471   7.425   9.801  0.2476 -0.3049  0.0605
  960COC    COC  960   5.264   7.458  10.019 -0.0192  0.2104  0.1191
  961COC    COC  961   4.954   7.366   9.920 -0.1353  0.2842 -0.0064
  962COC    COC  962   4.986   7.372   9.632 -0.3339 -0.0661 -0.0498
  963COC    COC  963   4.977   7.187   9.392  0.0845 -0.2629  0.0003
  964COC    COC  964   4.690   7.091   9.391  0.1160 -0.2054  0.0912
  965COC    COC  965   4.625   6.806   9.416  0.2477  0.1142 -0.0474
  966COH    COH  966   4.859   6.658   9.380 -0.2657 -0.0734 -0.1866
  967COH    COH  967   2.334   8.470   7.359 -0.1196 -0.0363  0.0742
  968COC    COC  968   2.579   8.496   7.273 -0.2347 -0.2441 -0.1561
  969COC    COC  969   2.515   8.673   7.040  0.2978 -0.1722 -0.0502
  970COC    COC  970   2.289   8.789   7.144  0.0964  0.4158 -0.0330
  971COC    COC  971   2.208   8.849   7.431 -0.2249  0.2215  0.0622
  972COC    COC  972   2.441   8.926   7.607  0.0215  0.0775  0.2740
  973COC    COC  973   2.412   8.896   7.925 -0.4867  0.1475 -0.0682
  974COC    COC  974   2.614   8.997   8.106 -0.0164  0.1932 -0.1931
  975COC    COC  975   2.479   9.125   8.349  0.3254  0.0357 -0.1340
  976COC    COC  976   2.166   9.180   8.249  0.1502 -0.0350  0.0643
  977COC    COC  977   1.939   9.024   8.112  0.4061  0.1759  0.1593
  978COC    COC  978   1.868   8.730   7.955  0.3809  0.0356 -0.2408
  979COC    COC  979   1.603   8.763   7.723  0.1264 -0.0726  0.2417
  980COC    COC  980   1.302   8.723   7.789 -0.1648  0.4458 -0.0870
  981COC    COC  981   1.138   8.534   7.634 -0.2396 -0.1495  0.1546
  982COC    COC  982   1.207   8.399   7.358 -0.0321  0.1199  0.0587
  983COC    COC  983   1.437   8.429   7.149  0.2106  0.1526 -0.0675
  984COC    COC  984   1.700   8.530   7.166 -0.0893 -0.3048  0.3074
  985COC    COC  985   1.938   8.441   7.302  0.2154 -0.0853  0.2591
  986COC    COC  986   1.805   8.393   7.604 -0.0891 -0.0643  0.2610
  987COC    COC  987   1.536   8.225   7.551 -0.0950  0.5447 -0.1618
  988COC    COC  988   1.365   8.151   7.821 -0.2064 -0.1290 -0.0028
  989COC    COC  989   1.314   7.864   7.857  0.3801  0.2546  0.1441
  990COC    COC  990   1.453   7.615   7.947 -0.0681  0.1079 -0.2104
  991COC    COC  991   1.184   7.514   8.096 -0.4440 -0.2898 -0.1785
  992COC    COC  992   1.076   7.246   8.170  0.0199 -0.4135  0.2116
  993COC    COC  993   1.008   7.188   8.462  0.4442  0.5472 -0.0042
  994COC    COC  994   0.810   7.018   8.656 -0.2045 -0.0735  0.1913
  995COC    COC  995   0.550   6.884   8.619 -0.1042  0.1787 -0.0911
  996COC    COC  996   0.341   6.919   8.486  0.1341 -0.4891  0.3120
  997COC    COC  997   0.166   7.103   8.277  0.0580 -0.2232  0.3758
  998COC    COC  998   0.279   7.288   8.055 -0.2224 -0.2540  0.4942
  999COC    COC  999   0.273   7.602   8.040 -0.4184 -0.3851  0.0655
 1000COC    COC 1000   0.448   7.819   8.186 -0.1158 -0.2812  0.3251
 1001COC    COC 1001   0.588   8.036   8.057  0.0632 -0.3669 -0.2193
 1002COC    COC 1002   0.868   7.962   8.141  0.0392 -0.1491  0.2855
 1003COC    COC 1003   0.866   7.798   8.393 -0.2694  0.1686 -0.2866
 1004COC    COC 1004   0.962   7.837   8.697  0.0064 -0.1198  0.0981
 1005COC    COC 1005   0.931   8.068   8.897  0.1530 -0.0016  0.4043
 1006COC    COC 1006   0.747   7.972   9.139 -0.0935 -0.0069  0.2175
 1007COC    COC 1007   0.703   7.702   9.160 -0.1527  0.2111  0.4111
 1008COC    COC 1008   0.839   7.483   9.295 -0.1724  0.3604  0.1490
 1009COC    COC 1009   1.010   7.254   9.169 -0.1405  0.2415  0.1791
 1010COC    COC 1010   1.319   7.220   9.140  0.1726  0.2336 -0.0649
 1011COC    COC 1011   1.511   7.380   8.985 -0.1548 -0.0380 -0.0528
 1012COH    COH 1012   1.640   7.581   9.068  0.0076 -0.1199  0.0602
 1013COH    COH 1013   7.368   5.902  10.301 -0.0009  0.8514 -0.0966
 1014COC    COC 1014   7.183   6.060  10.226 -0.0034  0.2826  0.1513
 1015COC    COC 1015   6.976   5.892  10.315 -0.0849 -0.1383  0.3661
 1016COC    COC 1016   6.894   5.927   0.267 -0.2735  0.1657  0.0979
 1017COC    COC 1017   6.877   6.224   0.318 -0.2210 -0.2591  0.6391
 1018COC    COC 1018   7.110   6.441   0.189 -0.5720 -0.0926  0.3288
 1019COC    COC 1019   7.353   6.322   0.249 -0.1434 -0.0028 -0.5059
 1020COC    COC 1020   7.363   6.078   0.444 -0.1572 -0.0282  0.0598
 1021COC    COC 1021   7.179   6.108   0.692  0.1440 -0.1501  0.2745
 1022COC    COC 1022   7.299   6.165   0.979  0.0729 -0.0665  0.1253
 1023COC    COC 1023   7.526   6.067   1.129  0.0802 -0.0766 -0.1282
 1024COC    COC 1024   7.501   5.931   1.408 -0.0101  0.0674  0.1558
 1025COC    COC 1025   7.370   6.037   1.663 -0.2153 -0.0364 -0.2265
 1026COC    COC 1026   7.555   5.896   1.895 -0.0937  0.0501 -0.2223
 1027COC    COC 1027   7.619   5.648   1.712 -0.2283  0.1615 -0.0238
 1028COC    COC 1028   7.776   5.426   1.856 -0.1720 -0.0178  0.0022
 1029COC    COC 1029   7.968   5.592   2.028 -0.3675 -0.3238  0.0062
 1030COC    COC 1030   8.257   5.493   2.154  0.0384 -0.2467 -0.3734
 1031COC    COC 1031   8.228   5.353   2.437  0.3050  0.0738 -0.1025
 1032COC    COC 1032   8.046   5.473   2.597  0.1158 -0.1329 -0.5172
 1033COC    COC 1033   7.830   5.575   2.428  0.1365 -0.1075 -0.2917
 1034COC    COC 1034   7.627   5.696   2.586 -0.2705  0.2959 -0.2564
 1035COC    COC 1035   7.366   5.763   2.513 -0.0796  0.1449 -0.0455
 1036COC    COC 1036   7.157   5.557   2.650 -0.2304  0.4895 -0.3042
 1037COC    COC 1037   7.323   5.463   2.913 -0.0493 -0.3405  0.4763
 1038COC    COC 1038   7.090   5.288   3.017 -0.0842  0.0377 -0.0896
 1039COC    COC 1039   6.949   5.101   2.848  0.1567  0.2039 -0.2268
 1040COC    COC 1040   6.705   4.936   2.969  0.1273  0.0993  0.4761
 1041COC    COC 1041   6.597   4.775   2.770  0.2255  0.2883 -0.1679
 1042COC    COC 1042   6.691   4.798   2.509  0.1901  0.0852  0.0491
 1043COC    COC 1043   6.763   5.080   2.394  0.1601 -0.5194  0.3830
 1044COC    COC 1044   6.986   5.263   2.276 -0.1095  0.1336 -0.1637
 1045COC    COC 1045   7.223   5.197   2.486  0.0189  0.0254  0.3931
 1046COC    COC 1046   7.458   5.073   2.305 -0.0487 -0.0165 -0.5127
 1047COC    COC 1047   7.725   5.158   2.271  0.4781  0.0241 -0.0124
 1048COC    COC 1048   8.000   5.170   2.103 -0.1433 -0.2257 -0.1848
 1049COC    COC 1049   8.114   5.046   1.859  0.0966 -0.4535  0.1546
 1050COC    COC 1050   8.268   4.755   1.883  0.2790 -0.2181  0.2712
 1051COC    COC 1051   8.544   4.634   1.843 -0.1817 -0.4753 -0.4156
 1052COC    COC 1052   8.655   4.619   2.129  0.4535  0.0977 -0.0517
 1053COC    COC 1053   8.889   4.808   2.134 -0.1673 -0.1431 -0.2270
 1054COC    COC 1054   9.156   4.623   2.063  0.0308  0.2681  0.1365
 1055COC    COC 1055   9.383   4.641   1.892 -0.0552  0.2636  0.3910
 1056COC    COC 1056   9.410   4.727   1.602 -0.2818 -0.0078  0.3663
 1057COC    COC 1057   9.365   4.426   1.501 -0.2070  0.0076 -0.4028
 1058COH    COH 1058   9.137   4.336   1.559  0.2800 -0.1225 -0.0862
 1059COH    COH 1059   4.154   5.355   2.906  0.5233 -0.4539  0.6039
 1060COC    COC 1060   4.244   5.422   2.651  0.1775 -0.2251 -0.0687
 1061COC    COC 1061   4.424   5.671   2.637  0.4576 -0.2984 -0.1447
 1062COC    COC 1062   4.694   5.738   2.772 -0.1728  0.0383  0.0701
 1063COC    COC 1063   4.873   5.679   2.555 -0.1334  0.0485 -0.1763
 1064COC    COC 1064   4.763   5.682   2.289  0.0256 -0.0406 -0.2261
 1065COC    COC 1065   4.692   5.538   2.060  0.1087  0.0042 -0.3066
 1066COC    COC 1066   4.867   5.322   1.932  0.0587 -0.1604 -0.0205
 1067COC    COC 1067   5.112   5.117   2.014  0.1420 -0.0210 -0.0640
 1068COC    COC 1068   5.004   4.858   2.136  0.4605  0.2531  0.0845
 1069COC    COC 1069   4.880   4.817   2.364  0.3055  0.1538 -0.2061
 1070COC    COC 1070   4.947   4.948   2.640  0.3369 -0.0362 -0.2780
 1071COC    COC 1071   4.896   4.958   2.921  0.2190  0.1307  0.3205
 1072COC    COC 1072   4.730   4.748   3.078 -0.1142 -0.2848 -0.2210
 1073COC    COC 1073   4.640   4.853   3.377 -0.3346 -0.1656  0.0553
 1074COC    COC 1074   4.345   4.763   3.379 -0.0038 -0.0492  0.1169
 1075COC    COC 1075   4.342   4.461   3.489 -0.0747  0.2397 -0.1473
 1076COC    COC 1076   4.109   4.317   3.361  0.1728 -0.1103 -0.3382
 1077COC    COC 1077   3.958   4.484   3.184 -0.1443  0.0035  0.1396
 1078COC    COC 1078   3.686   4.483   3.045  0.0897 -0.0012 -0.1726
 1079COC    COC 1079   3.706   4.474   2.709 -0.1772  0.4571 -0.1895
 1080COC    COC 1080   3.896   4.316   2.533  0.3258 -0.7034  0.1521
 1081COC    COC 1081   4.200   4.376   2.603 -0.1247  0.2613  0.2436
 1082COC    COC 1082   4.475   4.243   2.581  0.1192 -0.0709  0.0010
 1083COC    COC 1083   4.720   4.377   2.580  0.1156  0.1611 -0.1295
 1084COC    COC 1084   4.749   4.412   2.290  0.0719 -0.2415  0.3067
 1085COC    COC 1085   4.613   4.170   2.136 -0.0614 -0.0491  0.0363
 1086COC    COC 1086   4.397   3.925   2.065  0.0354 -0.2363  0.0776
 1087COC    COC 1087   4.239   3.745   1.830  0.0039 -0.0950 -0.0214
 1088COC    COC 1088   4.208   3.506   1.716  0.2127  0.0747 -0.1446
 1089COC    COC 1089   4.475   3.363   1.663  0.1107  0.2515  0.1113
 1090COC    COC 1090   4.772   3.299   1.658 -0.3192 -0.1062  0.2239
 1091COC    COC 1091   4.960   3.137   1.816  0.0848  0.0639 -0.2625
 1092COC    COC 1092   5.096   2.854   1.841 -0.0272  0.1585 -0.3087
 1093COC    COC 1093   5.119   2.842   2.150  0.2628 -0.1820 -0.0420
 1094COC    COC 1094   5.219   3.054   2.318 -0.2530  0.0428 -0.3251
 1095COC    COC 1095   5.491   3.066   2.461 -0.5108  0.1919  0.2890
 1096COC    COC 1096   5.529   2.784   2.547  0.1345  0.1012 -0.3496
 1097COC    COC 1097   5.424   2.650   2.826 -0.0340 -0.0036  0.0491
 1098COC    COC 1098   5.520   2.451   3.023 -0.3538 -0.1147 -0.1929
 1099COC    COC 1099   5.668   2.213   2.886  0.2399  0.1998 -0.0708
 1100COC    COC 1100   5.912   2.023   2.886  0.0826 -0.2738 -0.3801
 1101COC    COC 1101   6.034   1.995   3.150  0.0028 -0.0546  0.0191
 1102COC    COC 1102   5.999   2.064   3.443 -0.3306 -0.0957  0.2423
 1103COC    COC 1103   5.834   2.303   3.493  0.0491  0.3183  0.3689
 1104COH    COH 1104   5.865   2.283   3.740 -0.1568  0.1252  0.1371
 1105COH    COH 1105  10.266   6.711   0.989  0.2355  0.0561  0.4203
 1106COC    COC 1106  10.315   6.649   0.743  0.1688 -0.0516  0.1137
 1107COC    COC 1107  10.177   6.599   0.470  0.2068  0.5304 -0.1748
 1108COC    COC 1108  10.265   6.495   0.237  0.4677  0.1464 -0.3320
 1109COC    COC 1109  10.102   6.619   0.015  0.0321 -0.1864  0.1041
 1110COC    COC 1110  10.094   6.420  10.096  0.1803 -0.1442 -0.2597
 1111COC    COC 1111   9.812   6.349  10.018 -0.1242 -0.3889  0.0019
 1112COC    COC 1112   9.773   6.072  10.141 -0.3065 -0.4131 -0.1728
 1113COC    COC 1113   9.650   5.771  10.062  0.6350 -0.1586 -0.3048
 1114COC    COC 1114   9.530   5.527  10.197  0.0397  0.1411 -0.1181
 1115COC    COC 1115   9.742   5.356   0.057 -0.3336 -0.4487  0.0676
 1116COC    COC 1116   9.824   5.391   0.347 -0.1153  0.2445  0.2576
 1117COC    COC 1117   9.705   5.540   0.590 -0.0018 -0.2034  0.5921
 1118COC    COC 1118   9.741   5.598   0.887  0.2385 -0.0483  0.4778
 1119COC    COC 1119   9.582   5.780   1.052  0.0848  0.0161 -0.1359
 1120COC    COC 1120   9.695   5.915   1.322 -0.0617  0.0930 -0.0841
 1121COC    COC 1121   9.590   6.063   1.562  0.1803  0.1435  0.0333
 1122COC    COC 1122   9.470   6.353   1.589 -0.1411  0.2809  0.2056
 1123COC    COC 1123   9.263   6.549   1.520  0.0656 -0.0728  0.2303
 1124COC    COC 1124   9.168   6.667   1.249  0.1628 -0.0531  0.1547
 1125COC    COC 1125   9.321   6.851   1.121  0.0044 -0.2051  0.3695
 1126COC    COC 1126   9.596   6.754   1.008 -0.0083 -0.3335 -0.0054
 1127COC    COC 1127   9.671   6.606   0.748 -0.1973 -0.3007  0.0367
 1128COC    COC 1128   9.610   6.351   0.621 -0.0785 -0.4294 -0.2005
 1129COC    COC 1129   9.874   6.179   0.587  0.0723  0.3189 -0.4044
 1130COC    COC 1130   9.914   5.963   0.822 -0.1907 -0.0475  0.6680
 1131COC    COC 1131  10.062   5.874   1.080 -0.1501 -0.4240 -0.0434
 1132COC    COC 1132   0.036   5.782   1.056  0.0206  0.3145  0.0440
 1133COC    COC 1133   0.212   5.886   1.296 -0.1014 -0.0795  0.1561
 1134COC    COC 1134   0.080   6.115   1.421  0.3156  0.1828 -0.2331
 1135COC    COC 1135   0.290   6.334   1.410 -0.2109 -0.0735 -0.3585
 1136COC    COC 1136   0.541   6.201   1.291  0.0769 -0.0820 -0.2039
 1137COC    COC 1137   0.659   5.917   1.247  0.1865 -0.0509 -0.1503
 1138COC    COC 1138   0.575   5.724   1.480  0.0892  0.2696 -0.1988
 1139COC    COC 1139   0.444   5.862   1.720  0.0544 -0.0319 -0.4745
 1140COC    COC 1140   0.135   5.800   1.794 -0.0155  0.0926 -0.2153
 1141COC    COC 1141   0.105   5.521   1.940  0.1274 -0.1404  0.1360
 1142COC    COC 1142   0.339   5.335   1.880  0.1853  0.2524 -0.5675
 1143COC    COC 1143   0.161   5.092   1.864 -0.5202  0.0366  0.0475
 1144COC    COC 1144  10.270   4.976   2.050 -0.1607  0.0446 -0.4937
 1145COC    COC 1145  10.068   5.149   2.243 -0.2347  0.3620 -0.1527
 1146COC    COC 1146  10.139   5.427   2.225 -0.3487 -0.2009  0.2511
 1147COC    COC 1147  10.072   5.642   2.457  0.4919  0.0377 -0.1931
 1148COC    COC 1148   9.995   5.695   2.708 -0.5607  0.3583  0.2825
 1149COC    COC 1149   9.699   5.739   2.727 -0.0227  0.3775  0.1937
 1150COH    COH 1150   9.535   5.772   2.520  0.2265  0.6127 -0.1411
 1151COH    COH 1151   3.764  10.236   4.967 -0.2745 -0.1096  0.1996
 1152COC    COC 1152   3.656  10.305   4.737 -0.3202  0.2283  0.3391
 1153COC    COC 1153   3.563  10.080   4.509 -0.5784 -0.4220 -0.3690
 1154COC    COC 1154   3.527   9.786   4.385  0.1283  0.0666  0.1531
 1155COC    COC 1155   3.482   9.680   4.085  0.0541 -0.0845 -0.0954
 1156COC    COC 1156   3.391   9.419   4.223  0.1898  0.0497 -0.1834
 1157COC    COC 1157   3.184   9.291   4.122 -0.1711 -0.1671  0.2610
 1158COC    COC 1158   3.120   9.025   4.006  0.1582 -0.1577  0.1669
 1159COC    COC 1159   2.806   8.855   4.086  0.3989  0.0857 -0.4298
 1160COC    COC 1160   2.713   8.564   4.010 -0.1412 -0.2683  0.0799
 1161COC    COC 1161   2.523   8.474   3.792  0.0522  0.3403 -0.0466
 1162COC    COC 1162   2.624   8.194   3.691 -0.0121 -0.4811  0.6323
 1163COC    COC 1163   2.566   7.933   3.825 -0.3119 -0.4555 -0.4783
 1164COC    COC 1164   2.719   7.838   4.069  0.2760  0.6058 -0.0557
 1165COC    COC 1165   2.739   7.546   3.992  0.2595 -0.1868 -0.0753
 1166COC    COC 1166   2.562   7.304   4.071 -0.1037 -0.0500  0.0239
 1167COC    COC 1167   2.373   7.104   3.922  0.2942 -0.1420 -0.0902
 1168COC    COC 1168   2.277   7.217   3.649 -0.0590 -0.2497  0.0780
 1169COC    COC 1169   2.103   7.439   3.489  0.0424  0.3950 -0.0023
 1170COC    COC 1170   2.184   7.715   3.401  0.0661  0.2086 -0.3690
 1171COC    COC 1171   2.101   7.718   3.123  0.0473  0.3912 -0.2062
 1172COC    COC 1172   2.253   7.932   2.979 -0.0560  0.0678 -0.1231
 1173COC    COC 1173   2.493   7.828   2.843 -0.2432 -0.0261  0.0172
 1174COC    COC 1174   2.575   7.536   2.777  0.1799 -0.2571  0.2536
 1175COC    COC 1175   2.826   7.432   2.713 -0.2203  0.1651 -0.0264
 1176COC    COC 1176   2.929   7.532   2.476  0.1637  0.0549  0.1569
 1177COC    COC 1177   3.082   7.398   2.270 -0.0908 -0.4101 -0.1747
 1178COC    COC 1178   2.941   7.135   2.129 -0.1210  0.1802  0.2741
 1179COC    COC 1179   2.859   6.879   2.291 -0.0911  0.3000  0.2042
 1180COC    COC 1180   3.096   6.704   2.389 -0.2998  0.0456  0.2274
 1181COC    COC 1181   3.190   6.372   2.361  0.0335  0.0632 -0.0035
 1182COC    COC 1182   3.337   6.182   2.548 -0.0536 -0.3746  0.2490
 1183COC    COC 1183   3.290   6.229   2.892  0.0895  0.1312  0.0519
 1184COC    COC 1184   3.015   6.324   2.927  0.0895  0.2577 -0.2739
 1185COC    COC 1185   2.928   6.578   2.789 -0.0155 -0.1624 -0.0900
 1186COC    COC 1186   2.660   6.603   2.902  0.0119  0.0601  0.0066
 1187COC    COC 1187   2.606   6.816   3.131  0.0089 -0.3521  0.0136
 1188COC    COC 1188   2.361   6.918   3.318  0.0895  0.5401  0.0471
 1189COC    COC 1189   2.045   6.940   3.294 -0.1370  0.4525 -0.0494
 1190COC    COC 1190   1.885   6.897   3.550 -0.1687 -0.3036 -0.2849
 1191COC    COC 1191   1.585   7.003   3.516 -0.2983  0.1223  0.0151
 1192COC    COC 1192   1.416   7.013   3.747 -0.1875  0.3907 -0.1348
 1193COC    COC 1193   1.116   7.119   3.770  0.4789  0.1255  0.2394
 1194COC    COC 1194   0.955   7.315   3.590  0.1131  0.1789  0.5024
 1195COC    COC 1195   0.802   7.294   3.337 -0.1856 -0.2280  0.1898
 1196COH    COH 1196   0.754   7.052   3.325  0.1227  0.3597 -0.5116
 1197COH    COH 1197   6.405   0.365   3.574  0.0430 -0.3773 -0.2202
 1198COC    COC 1198   6.413   0.109   3.625 -0.2904 -0.0674  0.0444
 1199COC    COC 1199   6.713   0.101   3.633  0.3462 -0.2462 -0.1028
 1200COC    COC 1200   6.857  10.224   3.792  0.0060  0.2191 -0.1899
 1201COC    COC 1201   7.096  10.121   3.949  0.3780 -0.2724  0.0793
 1202COC    COC 1202   7.275   0.002   4.117  0.3376  0.2473  0.3458
 1203COC    COC 1203   7.301   0.067   4.394  0.5859  0.4223 -0.1909
 1204COC    COC 1204   7.543   0.039   4.513 -0.5892  0.1726 -0.1392
 1205COC    COC 1205   7.586  10.074   4.652  0.1888 -0.3070  0.0770
 1206COC    COC 1206   7.693   9.842   4.477  0.1876  0.1043 -0.1932
 1207COC    COC 1207   7.535   9.570   4.411  0.1177 -0.0435  0.1533
 1208COC    COC 1208   7.725   9.354   4.259  0.1621 -0.2778  0.0126
 1209COC    COC 1209   7.925   9.204   4.453 -0.3545  0.1321  0.2301
 1210COC    COC 1210   8.065   9.463   4.455  0.0820  0.0000  0.0347
 1211COC    COC 1211   8.209   9.628   4.682  0.1550 -0.2544 -0.2802
 1212COC    COC 1212   8.224   9.873   4.864  0.0226  0.5882 -0.0041
 1213COC    COC 1213   8.145  10.135   4.744 -0.0464  0.1699  0.5526
 1214COC    COC 1214   8.232   0.018   4.971 -0.0121  0.0428 -0.1488
 1215COC    COC 1215   8.078   0.299   5.014  0.0203  0.2983 -0.3718
 1216COC    COC 1216   8.153   0.587   5.192 -0.3599  0.5094  0.0400
 1217COC    COC 1217   7.905   0.673   5.328 -0.1593  0.4188 -0.2141
 1218COC    COC 1218   7.750   0.870   5.177 -0.0581 -0.0604  0.1703
 1219COC    COC 1219   7.455   0.979   5.245 -0.4245  0.0276  0.0891
 1220COC    COC 1220   7.429   1.275   5.107  0.4014  0.1805 -0.1514
 1221COC    COC 1221   7.549   1.449   4.887  0.3912  0.0555  0.2083
 1222COC    COC 1222   7.282   1.578   4.832 -0.2147 -0.2824  0.2518
 1223COC    COC 1223   7.186   1.633   4.538 -0.3673  0.1644 -0.0138
 1224COC    COC 1224   7.181   1.365   4.358  0.1513 -0.2046 -0.0939
 1225COC    COC 1225   7.170   1.244   4.058  0.0491  0.0959 -0.0275
 1226COC    COC 1226   7.299   1.283   3.770  0.0550 -0.1412 -0.0219
 1227COC    COC 1227   7.562   1.401   3.691  0.1294 -0.4692  0.3255
 1228COC    COC 1228   7.761   1.608   3.723 -0.2381  0.0100 -0.1076
 1229COC    COC 1229   7.805   1.925   3.654  0.0805 -0.2279  0.1799
 1230COC    COC 1230   7.818   2.060   3.381  0.2250  0.0726  0.1247
 1231COC    COC 1231   7.660   1.899   3.201 -0.1788  0.0712 -0.4598
 1232COC    COC 1232   7.541   1.645   3.234  0.0127 -0.0070 -0.2019
 1233COC    COC 1233   7.703   1.391   3.248 -0.4152 -0.0566  0.5389
 1234COC    COC 1234   7.544   1.167   3.271 -0.1371  0.1165 -0.3265
 1235COC    COC 1235   7.795   0.980   3.373  0.4937  0.3039 -0.1861
 1236COC    COC 1236   7.987   1.177   3.519  0.2362 -0.2862  0.0504
 1237COC    COC 1237   8.258   1.214   3.530 -0.3668 -0.0713 -0.3780
 1238COC    COC 1238   8.409   1.490   3.502 -0.2058  0.0278 -0.2252
 1239COC    COC 1239   8.684   1.522   3.441  0.0076  0.6649  0.0989
 1240COC    COC 1240   8.860   1.512   3.221 -0.2507 -0.0901 -0.0401
 1241COC    COC 1241   8.963   1.244   3.099  0.1065 -0.0892  0.1137
 1242COH    COH 1242   8.872   1.176   2.900  0.0153 -0.1854  0.1953
 1243COH    COH 1243   7.195   4.241   4.688 -0.1339  0.2893  0.2552
 1244COC    COC 1244   7.032   4.170   4.489  0.5329 -0.2112  0.1356
 1245COC    COC 1245   6.775   4.338   4.644 -0.0819  0.3731 -0.0689
 1246COC    COC 1246   6.496   4.312   4.833 -0.1378  0.2877  0.0351
 1247COC    COC 1247   6.400   4.523   5.050 -0.1943  0.1777  0.2720
 1248COC    COC 1248   6.373   4.524   5.362  0.0210 -0.1817  0.0160
 1249COC    COC 1249   6.431   4.802   5.459 -0.0740 -0.3771 -0.1142
 1250COC    COC 1250   6.296   5.008   5.624 -0.1699  0.0357 -0.6684
 1251COC    COC 1251   6.184   5.233   5.450 -0.6101  0.3401 -0.0727
 1252COC    COC 1252   5.906   5.194   5.380 -0.2945  0.0795  0.0415
 1253COC    COC 1253   5.851   4.986   5.175 -0.1172 -0.2489 -0.1761
 1254COC    COC 1254   6.108   4.831   5.155 -0.1477  0.0910 -0.2784
 1255COC    COC 1255   6.380   5.006   5.096 -0.1137  0.1888 -0.1093
 1256COC    COC 1256   6.331   5.297   5.068 -0.1009  0.0298 -0.3022
 1257COC    COC 1257   6.045   5.439   5.055 -0.2722  0.4142  0.1466
 1258COC    COC 1258   6.000   5.542   4.770 -0.0342  0.3508 -0.1261
 1259COC    COC 1259   5.752   5.691   4.737 -0.1103 -0.1981 -0.1721
 1260COC    COC 1260   5.592   5.872   4.516  0.3158  0.5213 -0.0530
 1261COC    COC 1261   5.675   5.993   4.245  0.0762 -0.4253  0.1175
 1262COC    COC 1262   5.950   6.017   4.100  0.0151 -0.0030 -0.2481
 1263COC    COC 1263   6.168   5.823   3.991  0.0130 -0.2104  0.1765
 1264COC    COC 1264   6.235   5.832   3.711 -0.0885  0.0421 -0.0157
 1265COC    COC 1265   5.986   5.995   3.595 -0.2102  0.3358  0.2170
 1266COC    COC 1266   5.762   6.087   3.432 -0.0154  0.2990 -0.0815
 1267COC    COC 1267   5.470   6.177   3.504  0.1009  0.2669  0.1400
 1268COC    COC 1268   5.385   6.336   3.240 -0.1443  0.0680  0.1783
 1269COC    COC 1269   5.302   6.137   3.043 -0.6107  0.2831 -0.0417
 1270COC    COC 1270   5.127   5.902   3.116  0.0801 -0.2102 -0.1553
 1271COC    COC 1271   4.834   5.889   3.164 -0.1897  0.0181 -0.0791
 1272COC    COC 1272   4.736   6.151   3.230 -0.2470 -0.2023 -0.0975
 1273COC    COC 1273   4.932   6.371   3.232 -0.3535 -0.2075 -0.2000
 1274COC    COC 1274   5.106   6.506   3.001 -0.0436 -0.0135  0.1342
 1275COC    COC 1275   5.139   6.817   2.939  0.1578 -0.2990  0.0319
 1276COC    COC 1276   4.934   6.986   2.897  0.4361  0.0509 -0.1531
 1277COC    COC 1277   5.020   7.213   2.767  0.2630 -0.0941  0.1535
 1278COC    COC 1278   5.302   7.214   2.731  0.7046 -0.0182 -0.0618
 1279COC    COC 1279   5.565   6.997   2.696 -0.1424 -0.3073 -0.0583
 1280COC    COC 1280   5.859   7.015   2.753 -0.2314 -0.0469  0.3060
 1281COC    COC 1281   5.984   6.775   2.926 -0.4155  0.0594  0.1590
 1282COC    COC 1282   6.194   6.647   2.798 -0.0096 -0.0690 -0.0361
 1283COC    COC 1283   6.320   6.624   2.556  0.0619 -0.3584  0.2580
 1284COC    COC 1284   6.525   6.727   2.413  0.0190 -0.1006 -0.0564
 1285COC    COC 1285   6.775   6.639   2.497  0.1138 -0.1638 -0.2320
 1286COC    COC 1286   6.821   6.343   2.525  0.0606  0.2457  0.1351
 1287COC    COC 1287   6.906   6.139   2.334  0.0895  0.2069 -0.1530
 1288COH    COH 1288   7.149   6.011   2.295 -0.1599  0.4159  0.0922
 1289COH    COH 1289   2.147   6.638   8.988 -0.5683 -0.3719  0.5171
 1290COC    COC 1290   1.909   6.802   8.992 -0.3893 -0.4057 -0.0044
 1291COC    COC 1291   1.621   6.877   8.971 -0.0971 -0.2513 -0.0399
 1292COC    COC 1292   1.541   6.580   8.911 -0.2967  0.3076  0.3145
 1293COC    COC 1293   1.713   6.316   8.885  0.3300 -0.0622  0.1640
 1294COC    COC 1294   1.777   6.183   9.100 -0.1902 -0.1304 -0.2499
 1295COC    COC 1295   2.014   5.992   9.165  0.1151 -0.1432  0.4176
 1296COC    COC 1296   1.997   5.799   9.345 -0.0852  0.1648 -0.5364
 1297COC    COC 1297   2.148   5.905   9.581 -0.0766 -0.3734  0.0693
 1298COC    COC 1298   2.121   5.691   9.753 -0.1727  0.3640  0.2758
 1299COC    COC 1299   2.306   5.527   9.939  0.1246 -0.0341 -0.1902
 1300COC    COC 1300   2.448   5.276   9.988 -0.1936 -0.0135 -0.2110
 1301COC    COC 1301   2.315   5.074   9.841 -0.2361 -0.0989 -0.5369
 1302COC    COC 1302   2.259   5.021   9.545  0.0588  0.5237  0.1509
 1303COC    COC 1303   2.257   4.718   9.457  0.1585  0.1061 -0.0648
 1304COC    COC 1304   2.092   4.686   9.185 -0.0145 -0.4553 -0.1915
 1305COC    COC 1305   2.124   4.911   8.967 -0.1789 -0.1345  0.2889
 1306COC    COC 1306   2.148   5.204   8.812 -0.2006  0.2471 -0.0293
 1307COC    COC 1307   2.454   5.269   8.732  0.1237 -0.0010  0.0681
 1308COC    COC 1308   2.420   5.370   8.443  0.0602 -0.1840  0.2030
 1309COC    COC 1309   2.575   5.617   8.343 -0.2909  0.3311  0.4598
 1310COC    COC 1310   2.632   5.848   8.522 -0.0484  0.2455  0.2205
 1311COC    COC 1311   2.612   6.170   8.481  0.0699  0.2089  0.0413
 1312COC    COC 1312   2.642   6.488   8.428  0.0575 -0.1826 -0.0549
 1313COC    COC 1313   2.887   6.588   8.222  0.0848 -0.6806 -0.1716
 1314COC    COC 1314   2.943   6.857   8.087  0.3124 -0.3904  0.1585
 1315COC    COC 1315   3.059   6.972   7.830 -0.1381 -0.1721 -0.1912
 1316COC    COC 1316   3.182   7.241   7.690  0.2564 -0.1540  0.0397
 1317COC    COC 1317   3.455   7.391   7.637 -0.0791  0.2629  0.2182
 1318COC    COC 1318   3.715   7.461   7.797 -0.1206  0.1866  0.3857
 1319COC    COC 1319   3.993   7.460   7.626 -0.0447 -0.1467 -0.1349
 1320COC    COC 1320   4.248   7.536   7.811  0.0713 -0.1603  0.5514
 1321COC    COC 1321   4.377   7.676   8.025  0.1668  0.1849  0.2243
 1322COC    COC 1322   4.291   7.679   8.316  0.0446  0.2018 -0.3257
 1323COC    COC 1323   4.043   7.846   8.322  0.3711 -0.0873 -0.2985
 1324COC    COC 1324   3.782   7.714   8.267 -0.0901 -0.0411 -0.1365
 1325COC    COC 1325   3.619   7.574   8.452 -0.0063  0.0842  0.5719
 1326COC    COC 1326   3.561   7.616   8.745  0.0189 -0.1576 -0.0112
 1327COC    COC 1327   3.232   7.706   8.698 -0.0858  0.1126 -0.3871
 1328COC    COC 1328   3.158   7.829   8.447  0.1070  0.0957  0.2159
 1329COC    COC 1329   2.914   7.863   8.253  0.2269  0.1931 -0.1111
 1330COC    COC 1330   2.768   8.080   8.128 -0.0595  0.1277 -0.6058
 1331COC    COC 1331   3.005   8.231   7.961 -0.2270 -0.1928 -0.1523
 1332COC    COC 1332   3.131   8.508   7.950  0.3769  0.1583 -0.1133
 1333COC    COC 1333   3.397   8.701   7.947  0.1636  0.0992  0.1390
 1334COH    COH 1334   3.385   8.702   8.219 -0.1774 -0.3148  0.2392
 1335COH    COH 1335   6.436   1.840  10.301 -0.2270 -0.2899  0.3598
 1336COC    COC 1336   6.531   1.582  10.234  0.2202  0.1018  0.0458
 1337COC    COC 1337   6.631   1.566   9.935 -0.1645  0.2491 -0.1312
 1338COC    COC 1338   6.845   1.453   9.786 -0.0931 -0.4542 -0.0175
 1339COC    COC 1339   6.796   1.419   9.483  0.0840 -0.3340 -0.0281
 1340COC    COC 1340   6.881   1.677   9.400 -0.1039  0.0246  0.0802
 1341COC    COC 1341   6.820   1.721   9.100 -0.0953  0.2837  0.4729
 1342COC    COC 1342   7.029   1.776   8.868  0.4361  0.1527  0.2895
 1343COC    COC 1343   6.872   1.825   8.624 -0.2159 -0.4719  0.3129
 1344COC    COC 1344   6.926   1.732   8.316 -0.3389  0.3166  0.3320
 1345COC    COC 1345   6.765   1.500   8.254 -0.1807 -0.2148 -0.2920
 1346COC    COC 1346   6.811   1.219   8.336 -0.2702  0.1274 -0.0641
 1347COC    COC 1347   6.607   1.066   8.451  0.0962  0.2132  0.0317
 1348COC    COC 1348   6.406   0.915   8.275 -0.1621  0.2857  0.3374
 1349COC    COC 1349   6.099   0.892   8.170  0.0199 -0.0394  0.0151
 1350COC    COC 1350   5.828   0.860   8.239 -0.0428  0.1851  0.0823
 1351COC    COC 1351   5.674   0.747   7.992 -0.0055 -0.3154 -0.0715
 1352COC    COC 1352   5.880   0.737   7.772  0.2125  0.2361 -0.0142
 1353COC    COC 1353   6.102   0.570   7.655 -0.1923 -0.3862  0.0651
 1354COC    COC 1354   6.142   0.641   7.322  0.1511  0.2859 -0.3338
 1355COC    COC 1355   5.971   0.606   7.071  0.0294 -0.3703 -0.2112
 1356COC    COC 1356   5.668   0.648   7.153  0.2021 -0.5160  0.4058
 1357COC    COC 1357   5.527   0.872   7.276  0.1398  0.1288  0.1708
 1358COC    COC 1358   5.296   1.054   7.222 -0.1709  0.2363 -0.1866
 1359COC    COC 1359   5.073   1.107   7.361 -0.3406 -0.0543  0.1258
 1360COC    COC 1360   4.964   1.053   7.651  0.0395  0.0497 -0.0106
 1361COC    COC 1361   4.738   1.006   7.861 -0.1880 -0.0675  0.1922
 1362COC    COC 1362   4.444   0.990   7.780  0.4062  0.0230 -0.1847
 1363COC    COC 1363   4.270   1.200   7.646 -0.0011 -0.1342 -0.0475
 1364COC    COC 1364   4.400   1.476   7.678  0.2210 -0.0549 -0.1877
 1365COC    COC 1365   4.676   1.479   7.765 -0.0378  0.1347 -0.3459
 1366COC    COC 1366   4.890   1.681   7.713 -0.0294  0.1933 -0.3251
 1367COC    COC 1367   5.001   1.553   7.452  0.1848 -0.0812  0.3399
 1368COC    COC 1368   5.282   1.649   7.277  0.5438  0.2866 -0.0480
 1369COC    COC 1369   5.394   1.877   7.398  0.1605 -0.0812 -0.3245
 1370COC    COC 1370   5.336   1.961   7.708 -0.2665 -0.1593  0.0554
 1371COC    COC 1371   5.190   2.198   7.832 -0.0505  0.3572  0.0831
 1372COC    COC 1372   5.143   2.277   8.097  0.2502  0.1662 -0.0924
 1373COC    COC 1373   5.318   2.189   8.339  0.0815 -0.1459  0.0449
 1374COC    COC 1374   5.450   1.979   8.503  0.0612 -0.3646  0.1286
 1375COC    COC 1375   5.688   2.062   8.681 -0.0515  0.3419  0.1645
 1376COC    COC 1376   5.852   2.125   8.956 -0.0941 -0.2080  0.3702
 1377COC    COC 1377   6.031   1.918   9.052 -0.2762 -0.1547 -0.4089
 1378COC    COC 1378   6.045   1.667   9.224 -0.0903 -0.1093  0.0445
 1379COC    COC 1379   5.806   1.530   9.261  0.2799 -0.0292  0.0318
 1380COH    COH 1380   5.824   1.384   9.091  0.4952 -0.4267  0.1752
 1381COH    COH 1381   1.191   2.660   6.926 -0.0871  0.0975  0.3825
 1382COC    COC 1382   1.090   2.461   7.047  0.1910 -0.1393  0.1318
 1383COC    COC 1383   0.913   2.652   7.194 -0.1570  0.1805 -0.2170
 1384COC    COC 1384   1.021   2.672   7.484 -0.3244 -0.2922 -0.1747
 1385COC    COC 1385   0.835   2.699   7.766 -0.1550  0.2497 -0.1757
 1386COC    COC 1386   0.811   2.574   8.037 -0.1164 -0.0918 -0.2132
 1387COC    COC 1387   0.861   2.636   8.331  0.2643  0.0343 -0.1875
 1388COC    COC 1388   1.043   2.849   8.524 -0.0046 -0.0489  0.1988
 1389COC    COC 1389   1.313   2.877   8.672  0.0237  0.2470 -0.0008
 1390COC    COC 1390   1.475   2.793   8.398  0.1197 -0.1403  0.1234
 1391COC    COC 1391   1.362   2.531   8.296 -0.0711  0.1034  0.1725
 1392COC    COC 1392   1.124   2.324   8.337 -0.1460  0.2352  0.0538
 1393COC    COC 1393   0.927   2.164   8.157  0.0013  0.1364  0.1298
 1394COC    COC 1394   0.661   2.049   8.194 -0.5441  0.3068 -0.1120
 1395COC    COC 1395   0.485   2.284   8.058 -0.1365 -0.3288 -0.3152
 1396COC    COC 1396   0.548   2.305   7.776  0.0972  0.2234  0.0571
 1397COC    COC 1397   0.451   2.560   7.598 -0.1277  0.0061  0.1173
 1398COC    COC 1398   0.153   2.562   7.620  0.3092 -0.4141  0.3201
 1399COC    COC 1399  10.240   2.642   7.799 -0.1183  0.2713 -0.5804
 1400COC    COC 1400   9.971   2.530   7.887 -0.0570  0.3688  0.2425
 1401COC    COC 1401   9.992   2.368   8.151 -0.1135 -0.0333  0.1324
 1402COC    COC 1402  10.196   2.196   8.248 -0.3507  0.0221 -0.1287
 1403COC    COC 1403   0.079   2.266   8.040 -0.1154 -0.0080  0.4539
 1404COC    COC 1404   0.086   2.208   7.756  0.0217 -0.0371 -0.1324
 1405COC    COC 1405  10.127   2.186   7.650  0.1248  0.1054 -0.2778
 1406COC    COC 1406  10.052   2.021   7.903  0.1005  0.1403  0.0668
 1407COC    COC 1407  10.125   1.759   8.012 -0.3112 -0.2692 -0.2223
 1408COC    COC 1408   9.919   1.605   8.138  0.0463  0.1523 -0.0110
 1409COC    COC 1409   9.925   1.274   8.162 -0.1794 -0.1866  0.0264
 1410COC    COC 1410   9.873   1.092   7.960  0.0987  0.4143 -0.1701
 1411COC    COC 1411   9.913   1.067   7.677  0.3982  0.2679  0.3764
 1412COC    COC 1412  10.002   1.291   7.505 -0.0549 -0.2133 -0.3638
 1413COC    COC 1413   9.963   1.121   7.257  0.0205 -0.4038 -0.5055
 1414COC    COC 1414   9.893   1.149   6.958  0.3743  0.0684 -0.2052
 1415COC    COC 1415  10.177   1.247   6.847  0.0921 -0.2119  0.0885
 1416COC    COC 1416  10.158   1.559   6.751  0.0895  0.2272  0.1537
 1417COC    COC 1417  10.143   1.675   7.029 -0.6693  0.2352  0.0621
 1418COC    COC 1418   0.125   1.665   7.126 -0.3142  0.2246  0.0744
 1419COC    COC 1419   0.230   1.459   6.888  0.0033 -0.2124  0.0002
 1420COC    COC 1420   0.351   1.460   6.590  0.1104 -0.3266 -0.0927
 1421COC    COC 1421   0.492   1.234   6.433 -0.1175 -0.0702 -0.3461
 1422COC    COC 1422   0.706   1.102   6.590  0.1913 -0.2543  0.0361
 1423COC    COC 1423   0.580   0.823   6.673  0.1211 -0.1192 -0.3656
 1424COC    COC 1424   0.534   0.666   6.943  0.0510  0.1116 -0.2794
 1425COC    COC 1425   0.616   0.435   7.128 -0.0685 -0.2937 -0.0129
 1426COH    COH 1426   0.419   0.236   7.057 -0.1053 -0.6628  0.3466
 1427COH    COH 1427   5.724   1.564   8.440 -0.2136 -0.3320  0.6253
 1428COC    COC 1428   5.795   1.742   8.253 -0.2672  0.0368  0.0229
 1429COC    COC 1429   5.876   1.682   7.968  0.2507  0.0396  0.0845
 1430COC    COC 1430   5.781   1.794   7.673 -0.5389 -0.1439 -0.2792
 1431COC    COC 1431   5.781   2.084   7.742  0.3370  0.0716 -0.1439
 1432COC    COC 1432   5.915   2.357   7.683 -0.0636  0.2394 -0.1638
 1433COC    COC 1433   5.821   2.609   7.556 -0.1530 -0.1221  0.0033
 1434COC    COC 1434   5.647   2.683   7.309 -0.1173  0.3577  0.2817
 1435COC    COC 1435   5.658   2.936   7.215  0.0604 -0.6398 -0.1853
 1436COC    COC 1436   5.428   3.124   7.120 -0.1731  0.0337  0.2287
 1437COC    COC 1437   5.282   3.372   6.956 -0.0962  0.1179 -0.3648
 1438COC    COC 1438   5.481   3.608   6.976  0.4042 -0.0174  0.0717
 1439COC    COC 1439   5.690   3.753   6.839  0.0084  0.1273  0.0786
 1440COC    COC 1440   5.675   4.046   6.838  0.0690 -0.0674  0.0497
 1441COC    COC 1441   5.440   4.139   7.019 -0.1330  0.2460  0.3133
 1442COC    COC 1442   5.187   3.970   7.058  0.0189 -0.1060  0.0831
 1443COC    COC 1443   5.002   3.738   6.901 -0.0827  0.3034 -0.1686
 1444COC    COC 1444   4.863   3.589   6.677  0.0269 -0.1491  0.2166
 1445COC    COC 1445   4.997   3.301   6.596  0.1361  0.0084  0.0209
 1446COC    COC 1446   5.260   3.320   6.481 -0.1560  0.0262 -0.2231
 1447COC    COC 1447   5.460   3.115   6.653  0.3749 -0.2669 -0.3264
 1448COC    COC 1448   5.401   2.869   6.531 -0.0314 -0.1094 -0.0820
 1449COC    COC 1449   5.513   2.911   6.254  0.2109 -0.3120  0.2125
 1450COC    COC 1450   5.754   3.060   6.138  0.1524  0.2202  0.0082
 1451COC    COC 1451   6.003   2.944   6.276  0.2056 -0.3406 -0.2645
 1452COC    COC 1452   5.860   3.078   6.528 -0.3598 -0.0087 -0.0315
 1453COC    COC 1453   5.792   2.900   6.779  0.1133 -0.0409 -0.3924
 1454COC    COC 1454   5.917   2.637   6.870  0.0591 -0.4204  0.0310
 1455COC    COC 1455   5.768   2.411   7.014  0.1534  0.1438 -0.3193
 1456COC    COC 1456   5.754   2.244   7.305  0.1785 -0.2351  0.0903
 1457COC    COC 1457   5.524   2.291   7.497 -0.0702 -0.0617  0.2424
 1458COC    COC 1458   5.225   2.262   7.370  0.4688  0.0054  0.0117
 1459COC    COC 1459   4.972   2.110   7.454 -0.1031  0.1419 -0.1051
 1460COC    COC 1460   4.705   2.058   7.331 -0.0703 -0.0247 -0.0573
 1461COC    COC 1461   4.541   2.257   7.443 -0.1510  0.3429 -0.1026
 1462COC    COC 1462   4.392   2.512   7.298 -0.0374  0.2773 -0.0868
 1463COC    COC 1463   4.144   2.463   7.096  0.0268  0.2417 -0.1149
 1464COC    COC 1464   3.929   2.708   7.135 -0.2414 -0.1462 -0.0963
 1465COC    COC 1465   3.651   2.669   7.054  0.2320  0.1247 -0.1047
 1466COC    COC 1466   3.462   2.558   7.279  0.0366  0.0695  0.7611
 1467COC    COC 1467   3.480   2.610   7.552  0.0781 -0.1854  0.0250
 1468COC    COC 1468   3.672   2.859   7.594 -0.2536  0.0347 -0.0023
 1469COC    COC 1469   3.919   2.967   7.789 -0.0523 -0.0785  0.0009
 1470COC    COC 1470   3.979   3.101   8.060  0.0195 -0.1154  0.4753
 1471COC    COC 1471   4.040   3.385   8.134  0.3004  0.0050 -0.1753
 1472COH    COH 1472   4.153   3.591   7.969  0.0754 -0.0480 -0.4528
 1473COH    COH 1473   9.291   0.755   9.138 -0.1862 -0.3379  0.0313
 1474COC    COC 1474   9.187   0.992   9.088  0.4502  0.1855  0.1889
 1475COC    COC 1475   8.876   0.922   9.125  0.1085 -0.3061  0.1096
 1476COC    COC 1476   8.762   0.976   9.384 -0.2728 -0.0149  0.1077
 1477COC    COC 1477   8.762   0.843   9.670 -0.4456 -0.1723 -0.1078
 1478COC    COC 1478   8.500   0.745   9.758  0.1811  0.2322  0.2328
 1479COC    COC 1479   8.255   0.823   9.571 -0.2826 -0.0745 -0.0112
 1480COC    COC 1480   8.122   0.763   9.329  0.0708  0.4923  0.8593
 1481COC    COC 1481   8.015   0.497   9.292 -0.0001  0.1430  0.4517
 1482COC    COC 1482   7.741   0.406   9.217  0.1182 -0.0984  0.0948
 1483COC    COC 1483   7.589   0.677   9.154  0.0741  0.5015 -0.2738
 1484COC    COC 1484   7.827   0.878   9.085  0.4038  0.0434 -0.1054
 1485COC    COC 1485   8.086   0.839   8.931  0.3689  0.2073  0.1710
 1486COC    COC 1486   8.080   0.826   8.626 -0.2940 -0.2547  0.0615
 1487COC    COC 1487   8.099   0.591   8.455 -0.1661  0.1216  0.0850
 1488COC    COC 1488   8.265   0.460   8.241 -0.5214  0.4510  0.1626
 1489COC    COC 1489   8.115   0.350   8.009  0.2666 -0.1536  0.2670
 1490COC    COC 1490   7.853   0.386   7.850 -0.1421  0.1774  0.0203
 1491COC    COC 1491   7.728   0.098   7.777 -0.1067 -0.0037  0.2904
 1492COC    COC 1492   7.550  10.233   7.890 -0.0477 -0.2404 -0.5740
 1493COC    COC 1493   7.319  10.029   7.816 -0.6004 -0.0261 -0.2250
 1494COC    COC 1494   7.380   9.735   7.803 -0.0868  0.0291  0.1446
 1495COC    COC 1495   7.184   9.507   7.756 -0.0189  0.2398  0.4314
 1496COC    COC 1496   6.908   9.617   7.894 -0.0702  0.0069 -0.2595
 1497COC    COC 1497   6.766   9.897   7.969 -0.3190 -0.1051  0.1470
 1498COC    COC 1498   6.957  10.074   8.114  0.1562  0.0475  0.2009
 1499COC    COC 1499   6.975  10.266   8.335  0.2823 -0.1690 -0.0885
 1500COC    COC 1500   6.777   0.128   8.496  0.1414 -0.0866 -0.3016
 1501COC    COC 1501   6.599   0.297   8.309  0.2289 -0.1809 -0.0154
 1502COC    COC 1502   6.317   0.342   8.231  0.4034 -0.1694  0.0689
 1503COC    COC 1503   6.180   0.302   7.931 -0.0084 -0.5335  0.1351
 1504COC    COC 1504   6.107  10.319   7.927 -0.0796  0.3205  0.0849
 1505COC    COC 1505   6.214  10.169   7.684  0.2752  0.0158 -0.0586
 1506COC    COC 1506   6.514  10.143   7.738 -0.0719  0.1890  0.2258
 1507COC    COC 1507   6.768  10.255   7.771 -0.2139 -0.0250 -0.3522
 1508COC    COC 1508   6.666   0.222   7.846 -0.0203  0.3166 -0.1340
 1509COC    COC 1509   6.892   0.441   7.904 -0.1710 -0.0534 -0.1306
 1510COC    COC 1510   7.186   0.627   7.978 -0.1286 -0.0347 -0.2421
 1511COC    COC 1511   7.451   0.496   7.965 -0.1021  0.1116 -0.2160
 1512COC    COC 1512   7.378   0.360   7.716  0.4666 -0.0479  0.2369
 1513COC    COC 1513   7.334   0.613   7.545  0.2978 -0.1073  0.1147
 1514COC    COC 1514   7.301   0.495   7.280  0.1483  0.5240  0.0384
 1515COC    COC 1515   7.496   0.606   7.077 -0.6581  0.0423  0.1244
 1516COC    COC 1516   7.317   0.834   6.996  0.1651 -0.2180 -0.9952
 1517COC    COC 1517   7.041   0.826   6.922 -0.0212 -0.4432 -0.1692
 1518COH    COH 1518   6.966   1.053   7.046 -0.0942  0.4595 -0.3432
 1519COH    COH 1519   7.282   3.137   6.690 -0.1467 -0.4972  0.1712
 1520COC    COC 1520   7.182   2.926   6.606  0.0085  0.1528  0.1362
 1521COC    COC 1521   7.412   2.799   6.553 -0.2610  0.0471 -0.2754
 1522COC    COC 1522   7.647   2.888   6.714 -0.2244  0.1122 -0.0309
 1523COC    COC 1523   7.528   2.853   6.991 -0.4117  0.1458  0.3271
 1524COC    COC 1524   7.275   2.732   7.119 -0.0912 -0.1284  0.1952
 1525COC    COC 1525   7.421   2.533   7.299  0.1441  0.1310 -0.1790
 1526COC    COC 1526   7.664   2.470   7.426 -0.0079  0.0004 -0.3840
 1527COC    COC 1527   7.851   2.260   7.460  0.2940  0.1133 -0.3180
 1528COC    COC 1528   7.722   1.996   7.392  0.1110 -0.0537 -0.0433
 1529COC    COC 1529   8.002   1.840   7.480  0.0992 -0.1425 -0.2515
 1530COC    COC 1530   8.225   1.860   7.283  0.0616 -0.1462 -0.0777
 1531COC    COC 1531   8.378   2.079   7.145  0.0414  0.1444 -0.1826
 1532COC    COC 1532   8.653   2.226   7.141  0.2124 -0.0348 -0.2089
 1533COC    COC 1533   8.618   2.444   6.928 -0.5414 -0.1178  0.2330
 1534COC    COC 1534   8.774   2.668   6.785  0.0257  0.4084  0.1694
 1535COC    COC 1535   8.682   2.927   6.626 -0.2916 -0.3238  0.1648
 1536COC    COC 1536   8.767   3.026   6.352  0.0466  0.0242  0.1946
 1537COC    COC 1537   9.078   3.089   6.319  0.1933  0.0687  0.3847
 1538COC    COC 1538   9.199   2.850   6.394 -0.1167 -0.1984 -0.0168
 1539COC    COC 1539   9.206   2.627   6.621 -0.0574 -0.0061 -0.0404
 1540COC    COC 1540   9.014   2.382   6.611  0.1256  0.1544  0.1828
 1541COC    COC 1541   8.752   2.320   6.453  0.2231 -0.2044 -0.2883
 1542COC    COC 1542   8.516   2.460   6.499  0.1194 -0.0429 -0.1586
 1543COC    COC 1543   8.383   2.679   6.337 -0.2456 -0.1086 -0.1346
 1544COC    COC 1544   8.370   3.003   6.344 -0.1047  0.1186 -0.0694
 1545COC    COC 1545   8.119   3.098   6.229  0.1642 -0.0852 -0.2099
 1546COC    COC 1546   7.951   2.964   6.037 -0.0417 -0.1158  0.3851
 1547COC    COC 1547   8.063   2.683   5.993 -0.5915  0.1513  0.2691
 1548COC    COC 1548   7.927   2.473   5.856  0.2434 -0.2286  0.1680
 1549COC    COC 1549   7.727   2.378   6.040 -0.0397  0.3997 -0.0254
 1550COC    COC 1550   7.743   2.077   6.132  0.1103 -0.5073  0.0573
 1551COC    COC 1551   7.810   1.956   6.427  0.2545  0.4833  0.1417
 1552COC    COC 1552   7.700   1.668   6.328 -0.4938 -0.0764 -0.4424
 1553COC    COC 1553   7.495   1.534   6.578 -0.2729 -0.0121 -0.2467
 1554COC    COC 1554   7.305   1.350   6.414 -0.1540  0.2768 -0.1615
 1555COC    COC 1555   7.254   1.153   6.176  0.3086 -0.1616 -0.3036
 1556COC    COC 1556   7.426   1.207   5.966  0.1355 -0.3973  0.2434
 1557COC    COC 1557   7.343   1.327   5.674 -0.2135 -0.2558 -0.2589
 1558COC    COC 1558   7.200   1.090   5.535  0.4624  0.1413 -0.2250
 1559COC    COC 1559   6.901   1.164   5.641 -0.0251 -0.0505 -0.1130
 1560COC    COC 1560   6.654   1.338   5.500 -0.0179 -0.2415  0.0299
 1561COC    COC 1561   6.406   1.426   5.625 -0.1515 -0.0033  0.0093
 1562COC    COC 1562   6.207   1.379   5.854  0.2851 -0.3064 -0.2747
 1563COC    COC 1563   6.045   1.465   6.128 -0.0209 -0.3109  0.0751
 1564COH    COH 1564   6.062   1.714   6.237  0.3010  0.1236 -0.1677
 1565COH    COH 1565   7.034   6.278   6.281 -0.3787  0.1603 -0.6848
 1566COC    COC 1566   6.855   6.201   6.113  0.3021  0.0815  0.0569
 1567COC    COC 1567   6.808   6.241   5.814 -0.0203  0.0689 -0.4741
 1568COC    COC 1568   6.645   6.212   5.606  0.5763 -0.1152 -0.2272
 1569COC    COC 1569   6.415   6.349   5.463 -0.1032 -0.5036  0.3306
 1570COC    COC 1570   6.221   6.158   5.305  0.1430 -0.4621 -0.0244
 1571COC    COC 1571   6.149   6.199   5.011 -0.0704  0.0489 -0.0519
 1572COC    COC 1572   6.347   6.269   4.774  0.0213  0.2385 -0.0147
 1573COC    COC 1573   6.604   6.121   4.677 -0.1095 -0.1067 -0.0443
 1574COC    COC 1574   6.846   6.153   4.490  0.1300 -0.1695 -0.2784
 1575COC    COC 1575   6.909   6.027   4.216 -0.2747 -0.6757  0.0836
 1576COC    COC 1576   7.047   5.803   4.243 -0.0698 -0.1685 -0.1077
 1577COC    COC 1577   7.302   5.791   4.049 -0.1441 -0.2572  0.2781
 1578COC    COC 1578   7.283   5.812   3.731 -0.0476 -0.0031 -0.0177
 1579COC    COC 1579   6.979   5.742   3.678  0.4259  0.1893  0.1816
 1580COC    COC 1580   6.881   5.471   3.612  0.1731  0.3447 -0.3459
 1581COC    COC 1581   7.115   5.318   3.523 -0.2288 -0.1903  0.0106
 1582COC    COC 1582   7.358   5.235   3.342 -0.1687  0.0002  0.1561
 1583COC    COC 1583   7.490   4.992   3.502 -0.0458 -0.0388  0.0185
 1584COC    COC 1584   7.295   4.803   3.595 -0.2007  0.0943 -0.0231
 1585COC    COC 1585   7.377   4.579   3.781 -0.1883 -0.1233 -0.0994
 1586COC    COC 1586   7.190   4.353   3.897  0.1720 -0.4538 -0.2634
 1587COC    COC 1587   7.043   4.472   4.123  0.0392 -0.0540  0.1513
 1588COC    COC 1588   6.790   4.331   4.181  0.0680 -0.1322  0.2029
 1589COC    COC 1589   6.724   4.068   4.233 -0.3527  0.6185  0.0111
 1590COC    COC 1590   6.917   3.809   4.290 -0.1170  0.3201  0.1356
 1591COC    COC 1591   7.101   3.694   4.078  0.2258 -0.0333 -0.1138
 1592COC    COC 1592   7.269   3.579   3.854 -0.2618  0.1867 -0.2201
 1593COC    COC 1593   7.247   3.670   3.594  0.2171 -0.2606 -0.2965
 1594COC    COC 1594   7.301   3.909   3.392  0.2890  0.0221  0.1569
 1595COC    COC 1595   7.307   4.023   3.102  0.3111  0.1132  0.0260
 1596COC    COC 1596   7.500   4.249   3.050 -0.0893 -0.1599  0.1969
 1597COC    COC 1597   7.548   4.496   2.851 -0.0925  0.0253  0.0780
 1598COC    COC 1598   7.406   4.776   2.850  0.3086 -0.0680  0.1186
 1599COC    COC 1599   7.264   4.910   3.036 -0.1357 -0.3795 -0.1972
 1600COC    COC 1600   7.040   4.824   3.224 -0.1071 -0.0036  0.2607
 1601COC    COC 1601   6.845   4.888   3.452  0.1965  0.1341 -0.2533
 1602COC    COC 1602   6.943   5.007   3.723  0.1486  0.2377 -0.2725
 1603COC    COC 1603   7.053   4.908   3.997  0.1767  0.2897 -0.1042
 1604COC    COC 1604   7.080   4.985   4.279  0.2408  0.1663 -0.0856
 1605COC    COC 1605   7.353   4.992   4.357  0.1634  0.0457 -0.4485
 1606COC    COC 1606   7.484   4.796   4.137  0.1907 -0.0627  0.8444
 1607COC    COC 1607   7.731   4.911   4.115  0.0664  0.3281 -0.1390
 1608COC    COC 1608   7.845   5.085   4.350  0.3381  0.0578 -0.1938
 1609COC    COC 1609   7.866   4.905   4.574  0.4477 -0.2894 -0.1691
 1610COH    COH 1610   7.594   4.853   4.631 -0.5020 -0.7265  0.0255
 1611COH    COH 1611   0.728   2.186   5.170 -0.4673  0.0983  0.2232
 1612COC    COC 1612   0.865   2.106   4.954 -0.4016 -0.2602  0.0281
 1613COC    COC 1613   0.708   2.116   4.674 -0.0474  0.0466  0.1736
 1614COC    COC 1614   0.550   2.374   4.585  0.3569 -0.0589  0.2821
 1615COC    COC 1615   0.252   2.447   4.489  0.1464 -0.2005 -0.2031
 1616COC    COC 1616   0.003   2.306   4.678  0.1841 -0.1151  0.3295
 1617COC    COC 1617  10.040   2.441   4.748 -0.1874  0.1940  0.0137
 1618COC    COC 1618  10.034   2.658   4.933  0.3752 -0.2031  0.2657
 1619COC    COC 1619  10.092   2.733   5.247 -0.0360 -0.0334  0.6374
 1620COC    COC 1620   9.926   2.669   5.467 -0.0062  0.0829  0.1116
 1621COC    COC 1621  10.101   2.748   5.699  0.0567  0.1261 -0.0041
 1622COC    COC 1622  10.170   2.544   5.917 -0.3233  0.0495  0.0723
 1623COC    COC 1623  10.080   2.658   6.179 -0.0709 -0.4198  0.0446
 1624COC    COC 1624  10.006   2.396   6.313  0.0029 -0.1077  0.2168
 1625COC    COC 1625  10.189   2.194   6.424 -0.0974  0.0679  0.1102
 1626COC    COC 1626   0.015   2.284   6.656 -0.4927  0.1554 -0.3142
 1627COC    COC 1627  10.297   2.546   6.839  0.0791  0.0460 -0.1461
 1628COC    COC 1628  10.028   2.617   6.856  0.4483  0.1879 -0.3150
 1629COC    COC 1629   9.817   2.747   6.677 -0.1861  0.0577  0.1086
 1630COC    COC 1630   9.516   2.824   6.714  0.1379  0.4331  0.0906
 1631COC    COC 1631   9.375   3.077   6.833 -0.1630  0.4297 -0.1458
 1632COC    COC 1632   9.046   3.099   6.744 -0.2035  0.1861 -0.0095
 1633COC    COC 1633   8.871   3.024   7.023  0.0867 -0.0922 -0.0582
 1634COC    COC 1634   8.844   3.100   7.315  0.0589  0.1061  0.1847
 1635COC    COC 1635   8.932   2.965   7.561  0.2802 -0.0825  0.1297
 1636COC    COC 1636   9.184   2.838   7.512  0.1298 -0.0250 -0.1363
 1637COC    COC 1637   9.332   2.597   7.460 -0.5078 -0.0788 -0.1246
 1638COC    COC 1638   9.253   2.283   7.439 -0.0391 -0.1560  0.1240
 1639COC    COC 1639   8.996   2.134   7.431  0.1645  0.3449  0.0666
 1640COC    COC 1640   8.968   1.941   7.660  0.8102 -0.0141  0.1401
 1641COC    COC 1641   8.899   1.661   7.690  0.1595 -0.0781  0.0663
 1642COC    COC 1642   8.704   1.591   7.910  0.3376  0.0531 -0.2972
 1643COC    COC 1643   8.871   1.828   8.071 -0.2647  0.0224 -0.1131
 1644COC    COC 1644   8.903   1.875   8.383  0.2770  0.0795  0.1445
 1645COC    COC 1645   9.176   1.922   8.395 -0.1525 -0.0830 -0.1181
 1646COC    COC 1646   9.382   2.161   8.427  0.2083 -0.2138  0.0638
 1647COC    COC 1647   9.444   2.400   8.267  0.0085  0.1776  0.1042
 1648COC    COC 1648   9.255   2.678   8.257 -0.0422  0.2896  0.0567
 1649COC    COC 1649   9.081   2.814   8.100  0.5166 -0.0773  0.0703
 1650COC    COC 1650   9.008   2.612   7.858 -0.0251 -0.4488  0.0592
 1651COC    COC 1651   8.831   2.385   7.827  0.1803 -0.1054  0.0309
 1652COC    COC 1652   8.576   2.515   7.763  0.2136 -0.0520  0.0895
 1653COC    COC 1653   8.335   2.631   7.966  0.2269 -0.0481  0.0794
 1654COC    COC 1654   8.203   2.885   8.043 -0.0895 -0.2125  0.5463
 1655COC    COC 1655   8.276   3.139   7.923 -0.0787 -0.1245 -0.4247
 1656COH    COH 1656   8.040   3.243   7.980 -0.2727  0.3514  0.1421
 1657COH    COH 1657   4.907   9.504   2.924 -0.6730  0.3073  0.0371
 1658COC    COC 1658   4.914   9.291   2.757 -0.2206 -0.0477  0.1534
 1659COC    COC 1659   5.037   9.330   2.490 -0.2247 -0.3006  0.1589
 1660COC    COC 1660   5.063   9.604   2.338 -0.1351 -0.3215 -0.1396
 1661COC    COC 1661   4.839   9.831   2.400 -0.0718  0.0869  0.4671
 1662COC    COC 1662   4.676   9.783   2.162 -0.4098  0.1063 -0.1663
 1663COC    COC 1663   4.407   9.636   2.078  0.4135  0.0925  0.5430
 1664COC    COC 1664   4.295   9.554   1.841  0.2043  0.1919  0.1760
 1665COC    COC 1665   4.455   9.475   1.619  0.2956  0.0264 -0.0809
 1666COC    COC 1666   4.563   9.183   1.645 -0.1553 -0.2260  0.0224
 1667COC    COC 1667   4.551   8.953   1.866  0.6480  0.0688 -0.2046
 1668COC    COC 1668   4.788   8.820   1.962  0.0520 -0.3554  0.2043
 1669COC    COC 1669   4.830   8.549   2.081  0.2664 -0.1108  0.4977
 1670COC    COC 1670   4.786   8.492   2.370 -0.8107 -0.0367 -0.2429
 1671COC    COC 1671   4.755   8.561   2.659 -0.3249 -0.1265  0.1239
 1672COC    COC 1672   4.729   8.226   2.745  0.0655 -0.5762  0.0242
 1673COC    COC 1673   4.774   8.224   3.054  0.2486  0.1350 -0.2532
 1674COC    COC 1674   4.893   7.959   3.145 -0.1249 -0.0985 -0.0282
 1675COC    COC 1675   5.148   8.082   3.260 -0.1965  0.3935 -0.3784
 1676COC    COC 1676   5.142   8.151   3.562 -0.2394  0.3628 -0.1873
 1677COC    COC 1677   4.964   8.036   3.768  0.0946  0.0841  0.2887
 1678COC    COC 1678   4.886   7.779   3.923  0.3508  0.2440 -0.2759
 1679COC    COC 1679   5.037   7.559   3.967 -0.2651 -0.3978 -0.3601
 1680COC    COC 1680   5.107   7.597   4.248 -0.3763 -0.0422  0.0418
 1681COC    COC 1681   5.228   7.748   4.508  0.0101 -0.0787  0.0433
 1682COC    COC 1682   5.160   7.560   4.775  0.1309 -0.2633 -0.1159
 1683COC    COC 1683   4.941   7.490   5.010 -0.3253  0.4941 -0.0963
 1684COC    COC 1684   4.995   7.178   5.063 -0.2217 -0.1757  0.1601
 1685COC    COC 1685   5.206   7.191   5.264  0.1732  0.0917  0.0370
 1686COC    COC 1686   5.509   7.202   5.274 -0.0927 -0.0360  0.3932
 1687COC    COC 1687   5.534   7.495   5.193 -0.0073 -0.1782  0.1213
 1688COC    COC 1688   5.800   7.658   5.170 -0.5219 -0.0072 -0.4225
 1689COC    COC 1689   6.085   7.719   5.085  0.1865  0.0597 -0.3330
 1690COC    COC 1690   6.174   7.969   5.242 -0.0318  0.1426 -0.4244
 1691COC    COC 1691   6.040   8.077   5.476 -0.0770 -0.1440  0.1622
 1692COC    COC 1692   5.879   8.329   5.391  0.2128 -0.2548  0.0521
 1693COC    COC 1693   5.708   8.217   5.159  0.2547 -0.1225 -0.0119
 1694COC    COC 1694   5.417   8.260   5.199  0.1794  0.3638  0.0673
 1695COC    COC 1695   5.142   8.306   5.299  0.1055 -0.3511 -0.0603
 1696COC    COC 1696   5.121   8.258   5.611  0.2071  0.0696 -0.2854
 1697COC    COC 1697   5.375   8.199   5.768  0.0454  0.2884 -0.0962
 1698COC    COC 1698   5.344   8.315   5.990  0.0088  0.0386 -0.2969
 1699COC    COC 1699   5.137   8.445   6.187 -0.1600  0.3073 -0.0176
 1700COC    COC 1700   5.169   8.413   6.493 -0.1674  0.2939 -0.1963
 1701COC    COC 1701   4.870   8.490   6.525 -0.3135  0.2375 -0.0362
 1702COH    COH 1702   4.721   8.437   6.315 -0.0171  0.4948 -0.0162
 1703COH    COH 1703   0.423   1.920   0.725  0.4169  0.0285  0.4188
 1704COC    COC 1704   0.288   2.066   0.926  0.1107  0.1868  0.2720
 1705COC    COC 1705   0.209   2.356   0.906 -0.1915  0.0105  0.1248
 1706COC    COC 1706   0.023   2.564   0.932  0.3055 -0.1220  0.2740
 1707COC    COC 1707  10.266   2.839   1.027  0.2435  0.1289  0.4201
 1708COC    COC 1708   9.962   2.946   1.056 -0.3022  0.0961  0.1935
 1709COC    COC 1709   9.819   3.023   1.300 -0.1419 -0.1024 -0.4194
 1710COC    COC 1710   9.738   3.284   1.375  0.0165 -0.2102  0.0822
 1711COC    COC 1711   9.876   3.372   1.616  0.2012 -0.2140 -0.1666
 1712COC    COC 1712  10.151   3.521   1.658 -0.0036  0.0518  0.1911
 1713COC    COC 1713   0.055   3.460   1.831  0.0459  0.2496  0.0232
 1714COC    COC 1714   0.328   3.597   1.864  0.2687  0.0677  0.2028
 1715COC    COC 1715   0.305   3.889   2.028 -0.1034 -0.0386  0.0099
 1716COC    COC 1716   0.476   4.112   1.950  0.0214 -0.1895  0.2368
 1717COC    COC 1717   0.627   4.322   2.083 -0.1361 -0.1425 -0.1408
 1718COC    COC 1718   0.679   4.436   2.385  0.4183 -0.1417  0.3663
 1719COC    COC 1719   0.542   4.377   2.665  0.3032  0.4859  0.5138
 1720COC    COC 1720   0.464   4.129   2.800 -0.0380  0.1403  0.3864
 1721COC    COC 1721   0.563   3.961   3.017  0.0766 -0.0524 -0.1080
 1722COC    COC 1722   0.397   3.923   3.293 -0.0274  0.1048 -0.2026
 1723COC    COC 1723   0.431   4.132   3.554  0.2886 -0.0285  0.1520
 1724COC    COC 1724   0.672   4.228   3.713  0.2286  0.0813 -0.2738
 1725COC    COC 1725   0.757   4.266   3.961 -0.2520 -0.1935 -0.0448
 1726COC    COC 1726   0.528   4.090   4.148 -0.0721 -0.3234 -0.4037
 1727COC    COC 1727   0.723   3.948   4.287 -0.1629  0.2527  0.0993
 1728COC    COC 1728   0.691   3.681   4.251 -0.2660  0.1198  0.1161
 1729COC    COC 1729   0.813   3.431   4.371  0.1800 -0.1098 -0.3295
 1730COC    COC 1730   0.635   3.331   4.599  0.1288 -0.0203 -0.4195
 1731COC    COC 1731   0.591   3.649   4.697 -0.3641  0.1186 -0.1440
 1732COC    COC 1732   0.659   3.943   4.810 -0.1196 -0.0851 -0.0708
 1733COC    COC 1733   0.865   4.110   4.670 -0.3356  0.1421 -0.2962
 1734COC    COC 1734   1.065   3.934   4.652  0.0996  0.3844 -0.1252
 1735COC    COC 1735   1.013   3.662   4.720  0.0279 -0.0583 -0.2914
 1736COC    COC 1736   1.072   3.607   4.990 -0.4258 -0.4216  0.1403
 1737COC    COC 1737   1.222   3.334   5.028 -0.2944  0.2498  0.1218
 1738COC    COC 1738   1.537   3.373   5.059 -0.2868 -0.2133  0.0091
 1739COC    COC 1739   1.619   3.190   4.828  0.0057  0.0099  0.2506
 1740COC    COC 1740   1.875   3.040   4.876  0.4645  0.1415 -0.1187
 1741COC    COC 1741   2.161   3.152   4.944 -0.3729 -0.4376 -0.2912
 1742COC    COC 1742   2.338   3.296   5.137 -0.2649 -0.0862  0.0556
 1743COC    COC 1743   2.498   3.505   4.950 -0.1150  0.1522  0.0464
 1744COC    COC 1744   2.477   3.698   4.725  0.0645  0.0627  0.1973
 1745COC    COC 1745   2.287   3.923   4.777 -0.0924  0.2790  0.1118
 1746COC    COC 1746   2.456   4.149   4.849 -0.0729 -0.0116 -0.0736
 1747COC    COC 1747   2.732   3.994   4.858 -0.2835  0.0175 -0.0776
 1748COH    COH 1748   2.863   4.223   4.908 -0.1274  0.4469  0.0172
 1749COH    COH 1749   0.122   6.699   1.316  0.1136 -0.7950  0.2972
 1750COC    COC 1750   0.327   6.882   1.285  0.2062 -0.1581 -0.0211
 1751COC    COC 1751   0.573   6.824   1.455  0.1462 -0.2074  0.6068
 1752COC    COC 1752   0.474   6.752   1.750  0.0302 -0.4785  0.0041
 1753COC    COC 1753   0.211   6.686   1.892 -0.1319  0.0413 -0.1646
 1754COC    COC 1754   0.100   6.363   1.843 -0.0682 -0.1650 -0.1215
 1755COC    COC 1755  10.139   6.261   1.840  0.1787 -0.2243 -0.4235
 1756COC    COC 1756  10.005   6.022   2.051 -0.3276 -0.1605 -0.0655
 1757COC    COC 1757   9.732   5.968   1.952  0.2740 -0.0685  0.4679
 1758COC    COC 1758   9.521   5.797   2.103 -0.1393  0.1562 -0.1410
 1759COC    COC 1759   9.695   5.594   2.251  0.0624  0.1048  0.0783
 1760COC    COC 1760   9.652   5.264   2.275  0.0126 -0.1916  0.0194
 1761COC    COC 1761   9.628   4.988   2.433  0.1128 -0.8050  0.2261
 1762COC    COC 1762   9.707   5.054   2.699 -0.0420  0.2012 -0.0272
 1763COC    COC 1763   9.955   4.907   2.762  0.3288  0.1526 -0.0539
 1764COC    COC 1764   9.990   4.729   2.533 -0.2301  0.4276 -0.2668
 1765COC    COC 1765  10.295   4.727   2.512 -0.3260 -0.0314 -0.3799
 1766COC    COC 1766   0.132   4.879   2.693 -0.1223 -0.2237 -0.0952
 1767COC    COC 1767   0.308   5.096   2.772 -0.0525 -0.5872 -0.2316
 1768COC    COC 1768   0.235   5.328   2.935 -0.1089  0.5311 -0.2472
 1769COC    COC 1769   0.477   5.491   3.040 -0.2322 -0.0952 -0.1824
 1770COC    COC 1770   0.748   5.475   2.947  0.0890 -0.0096 -0.1862
 1771COC    COC 1771   0.965   5.645   3.122 -0.1365 -0.2046 -0.1525
 1772COC    COC 1772   0.962   5.954   3.125  0.3419 -0.1626  0.3729
 1773COC    COC 1773   1.016   6.111   2.863 -0.1117 -0.2722 -0.1375
 1774COC    COC 1774   0.839   6.368   2.864 -0.1743 -0.0215 -0.1456
 1775COC    COC 1775   0.842   6.578   2.648  0.2054  0.0546  0.0072
 1776COC    COC 1776   0.630   6.840   2.694 -0.1491 -0.1239 -0.0119
 1777COC    COC 1777   0.722   7.050   2.933 -0.0776 -0.2302 -0.2310
 1778COC    COC 1778   0.920   7.276   2.910  0.2592 -0.0305 -0.0846
 1779COC    COC 1779   0.967   7.482   2.661 -0.0698  0.2097 -0.0851
 1780COC    COC 1780   1.130   7.759   2.649  0.4427  0.3566  0.2109
 1781COC    COC 1781   1.447   7.812   2.643  0.2001  0.1002 -0.0698
 1782COC    COC 1782   1.526   8.103   2.696 -0.1374 -0.3376 -0.1876
 1783COC    COC 1783   1.539   8.219   2.975 -0.5171 -0.1060 -0.3729
 1784COC    COC 1784   1.320   8.108   3.204  0.0242 -0.5318  0.2054
 1785COC    COC 1785   1.380   7.949   3.390  0.2361 -0.2010 -0.3387
 1786COC    COC 1786   1.226   7.903   3.659  0.2093  0.2389  0.2062
 1787COC    COC 1787   1.236   7.640   3.778 -0.2729 -0.0023  0.0544
 1788COC    COC 1788   1.481   7.605   3.917  0.0624 -0.1219 -0.2694
 1789COC    COC 1789   1.583   7.790   4.138  0.1062 -0.0587 -0.2021
 1790COC    COC 1790   1.576   8.006   3.945 -0.1198 -0.0161 -0.3633
 1791COC    COC 1791   1.793   8.035   3.743 -0.1649 -0.0342 -0.2709
 1792COC    COC 1792   1.848   7.785   3.618  0.1314 -0.1010 -0.2684
 1793COC    COC 1793   1.696   7.605   3.416  0.1111 -0.1281  0.1058
 1794COH    COH 1794   1.731   7.363   3.472 -0.1559  0.1038 -0.0697
 1795COH    COH 1795   8.922   6.774   7.858 -0.3046 -0.2030  0.0777
 1796COC    COC 1796   8.716   6.658   7.767  0.1236  0.0463 -0.3047
 1797COC    COC 1797   8.505   6.553   8.008 -0.3539  0.0923  0.0507
 1798COC    COC 1798   8.476   6.584   8.303 -0.1760 -0.2330  0.3073
 1799COC    COC 1799   8.196   6.484   8.360 -0.2042 -0.1275  0.2632
 1800COC    COC 1800   7.998   6.417   8.123 -0.0127 -0.0234  0.1928
 1801COC    COC 1801   7.726   6.498   8.047 -0.0107  0.1158  0.1368
 1802COC    COC 1802   7.700   6.805   7.966  0.4424  0.1128 -0.1863
 1803COC    COC 1803   7.563   7.076   8.055 -0.2822  0.1922  0.1235
 1804COC    COC 1804   7.823   7.234   8.068 -0.1239  0.0757 -0.0290
 1805COC    COC 1805   8.105   7.073   8.143  0.0331 -0.0559  0.1059
 1806COC    COC 1806   8.229   6.910   7.922  0.0888  0.3231  0.2933
 1807COC    COC 1807   8.443   6.973   7.704  0.2375  0.0630  0.5390
 1808COC    COC 1808   8.450   7.245   7.576  0.1334  0.1502 -0.2813
 1809COC    COC 1809   8.612   7.360   7.322  0.0237 -0.5896  0.0266
 1810COC    COC 1810   8.788   7.239   7.109 -0.0116  0.0252 -0.2982
 1811COC    COC 1811   8.921   7.005   7.192 -0.0632  0.3299 -0.2192
 1812COC    COC 1812   9.209   7.009   7.231  0.4419 -0.4086  0.0768
 1813COC    COC 1813   9.370   7.319   7.246 -0.3295  0.2437 -0.2548
 1814COC    COC 1814   9.621   7.418   7.090  0.1937 -0.0468 -0.1058
 1815COC    COC 1815   9.500   7.517   6.832  0.2916  0.2502 -0.3828
 1816COC    COC 1816   9.300   7.779   6.809  0.1072 -0.4965  0.2450
 1817COC    COC 1817   9.182   7.950   6.575  0.2175  0.1179 -0.0645
 1818COC    COC 1818   9.352   8.124   6.443 -0.1566  0.1037 -0.3941
 1819COC    COC 1819   9.498   8.335   6.313 -0.0593 -0.3113  0.3119
 1820COC    COC 1820   9.684   8.309   6.088 -0.0677  0.1336  0.2980
 1821COC    COC 1821   9.658   7.982   6.065 -0.4297  0.3719 -0.2341
 1822COC    COC 1822   9.840   7.751   6.052 -0.5633  0.0561 -0.0404
 1823COC    COC 1823   9.723   7.476   5.958  0.1977  0.0676 -0.2416
 1824COC    COC 1824   9.605   7.402   6.239  0.2381  0.0797  0.3598
 1825COC    COC 1825   9.576   7.247   6.469  0.2016 -0.2754 -0.1995
 1826COC    COC 1826   9.517   6.954   6.442  0.2515 -0.3380  0.2706
 1827COC    COC 1827   9.373   6.756   6.583 -0.0325  0.2521 -0.5214
 1828COC    COC 1828   9.363   6.450   6.550  0.3430  0.2334 -0.1011
 1829COC    COC 1829   9.392   6.204   6.779  0.2423  0.0390 -0.0296
 1830COC    COC 1830   9.661   6.212   6.885  0.5674 -0.1173  0.0962
 1831COC    COC 1831   9.837   6.440   7.007  0.0405 -0.0420 -0.1886
 1832COC    COC 1832  10.061   6.622   6.914  0.5062 -0.1429  0.0593
 1833COC    COC 1833  10.050   6.942   6.952  0.4081  0.2160  0.0889
 1834COC    COC 1834   9.951   7.061   7.229  0.1072  0.2900 -0.2015
 1835COC    COC 1835   9.831   7.094   7.504 -0.1765  0.1815 -0.1313
 1836COC    COC 1836   9.805   6.929   7.752 -0.2487  0.2925 -0.1187
 1837COC    COC 1837   9.578   6.703   7.779  0.1108  0.1225 -0.1505
 1838COC    COC 1838   9.431   6.544   7.977 -0.0180 -0.3466  0.3181
 1839COC    COC 1839   9.178   6.492   8.070  0.0529  0.2125 -0.4341
 1840COH    COH 1840   9.098   6.322   7.846 -0.8480 -0.0556  0.2615
 1841COH    COH 1841   9.077   9.715   8.052  0.4070 -0.2100  0.3147
 1842COC    COC 1842   9.173   9.689   7.812 -0.2519 -0.0480 -0.1865
 1843COC    COC 1843   9.391   9.754   7.589 -0.3590 -0.1379  0.0004
 1844COC    COC 1844   9.595   9.580   7.418  0.0640  0.4299 -0.0682
 1845COC    COC 1845   9.851   9.729   7.483 -0.1722 -0.0957  0.1149
 1846COC    COC 1846  10.160   9.769   7.648 -0.2482  0.0087 -0.5553
 1847COC    COC 1847  10.250   9.609   7.943 -0.1425  0.1667  0.2093
 1848COC    COC 1848  10.245   9.274   7.992  0.4357  0.2422 -0.4388
 1849COC    COC 1849  10.295   9.014   8.133  0.0829 -0.0396  0.3041
 1850COC    COC 1850   0.026   8.770   7.924 -0.0669 -0.0229  0.1541
 1851COC    COC 1851   0.251   8.746   7.769 -0.2977  0.1171 -0.1566
 1852COC    COC 1852   0.351   8.734   7.472  0.1950  0.0552  0.1592
 1853COC    COC 1853   0.500   8.980   7.366 -0.0381  0.1094 -0.5087
 1854COC    COC 1854   0.577   9.160   7.614  0.0184 -0.0820 -0.1267
 1855COC    COC 1855   0.336   9.255   7.765  0.3308  0.0651 -0.1959
 1856COC    COC 1856   0.251   9.535   7.640 -0.1341  0.2234 -0.4002
 1857COC    COC 1857   0.344   9.463   7.336 -0.1065 -0.0921  0.0052
 1858COC    COC 1858   0.516   9.626   7.153  0.1904 -0.1450  0.1107
 1859COC    COC 1859   0.412   9.913   7.135  0.0794 -0.1624  0.0123
 1860COC    COC 1860   0.127  10.036   7.086 -0.2111 -0.0780  0.3002
 1861COC    COC 1861  10.272  10.207   7.261  0.3443  0.2133 -0.2391
 1862COC    COC 1862   0.014  10.130   7.563  0.0272 -0.2064  0.1678
 1863COC    COC 1863   0.229   9.938   7.573  0.1149 -0.2421  0.0960
 1864COC    COC 1864   0.501   9.925   7.682  0.2428 -0.5161  0.3000
 1865COC    COC 1865   0.651   9.705   7.542  0.0238  0.0379 -0.0975
 1866COC    COC 1866   0.864   9.783   7.346  0.3195 -0.0559 -0.2457
 1867COC    COC 1867   1.032  10.016   7.387 -0.0710 -0.1362  0.0306
 1868COC    COC 1868   0.907  10.301   7.301 -0.0865 -0.0278 -0.0033
 1869COC    COC 1869   0.862   0.094   7.058  0.1908  0.2944  0.1553
 1870COC    COC 1870   0.999   0.352   6.995  0.0323 -0.1326  0.0780
 1871COC    COC 1871   1.278   0.268   7.044  0.0759 -0.4162 -0.0927
 1872COC    COC 1872   1.383   0.050   7.242  0.3437 -0.1556  0.0577
 1873COC    COC 1873   1.580  10.284   7.452  0.0332 -0.1684 -0.0032
 1874COC    COC 1874   1.619   0.074   7.717  0.0981  0.0297  0.0808
 1875COC    COC 1875   1.486   0.268   7.937 -0.1741  0.3042 -0.0336
 1876COC    COC 1876   1.503   0.025   8.117  0.0158 -0.0392 -0.1941
 1877COC    COC 1877   1.597  10.255   8.375  0.4087  0.0905 -0.0589
 1878COC    COC 1878   1.888  10.234   8.324  0.3421  0.5355 -0.1221
 1879COC    COC 1879   2.079  10.002   8.309 -0.1165 -0.0859 -0.2509
 1880COC    COC 1880   2.119   9.741   8.199 -0.0239 -0.0953  0.1101
 1881COC    COC 1881   2.009   9.543   8.415 -0.0145 -0.2601  0.3689
 1882COC    COC 1882   2.213   9.403   8.594  0.1868 -0.2970 -0.0841
 1883COC    COC 1883   2.169   9.074   8.665  0.0456 -0.1285 -0.0873
 1884COC    COC 1884   2.082   8.962   8.921  0.2063  0.1918  0.3568
 1885COC    COC 1885   1.957   8.761   9.107 -0.0278 -0.2097 -0.1737
 1886COH    COH 1886   2.003   8.592   8.933 -0.0996  0.2530 -0.1565
 1887COH    COH 1887   4.189   8.389   7.251  0.0984  0.1906  0.4732
 1888COC    COC 1888   4.152   8.182   7.088  0.2348  0.2513 -0.4509
 1889COC    COC 1889   4.401   8.006   7.174 -0.0758 -0.0433 -0.1366
 1890COC    COC 1890   4.647   7.857   7.058  0.0961  0.1282 -0.2266
 1891COC    COC 1891   4.776   7.581   7.227 -0.0851 -0.1451 -0.0479
 1892COC    COC 1892   4.643   7.389   7.435  0.0188 -0.2746 -0.0179
 1893COC    COC 1893   4.412   7.228   7.505 -0.2532  0.3771  0.3321
 1894COC    COC 1894   4.494   7.213   7.818  0.1846  0.3192  0.1893
 1895COC    COC 1895   4.698   6.979   7.899  0.5333 -0.2634  0.0842
 1896COC    COC 1896   4.737   6.741   7.686  0.1325  0.2828 -0.3154
 1897COC    COC 1897   4.453   6.581   7.699  0.3191 -0.1095  0.4019
 1898COC    COC 1898   4.524   6.353   7.871  0.0791  0.0625  0.1444
 1899COC    COC 1899   4.299   6.264   8.089  0.1334 -0.2620 -0.0123
 1900COC    COC 1900   4.458   6.037   8.197  0.0630  0.3104 -0.0405
 1901COC    COC 1901   4.772   6.052   8.185  0.2109  0.4092 -0.0815
 1902COC    COC 1902   4.956   5.837   8.175 -0.1103  0.1320 -0.1739
 1903COC    COC 1903   4.980   5.603   8.026  0.2377  0.0565  0.1593
 1904COC    COC 1904   5.033   5.463   7.769  0.0013 -0.0117 -0.3137
 1905COC    COC 1905   5.078   5.183   7.761  0.1443  0.1172  0.0179
 1906COC    COC 1906   5.265   5.027   7.643  0.1828  0.0775 -0.0793
 1907COC    COC 1907   5.485   4.995   7.868 -0.0537 -0.1893  0.3522
 1908COC    COC 1908   5.420   4.810   8.097 -0.2142  0.2843 -0.3042
 1909COC    COC 1909   5.691   4.756   8.193 -0.2298  0.0051 -0.3765
 1910COC    COC 1910   5.750   4.996   8.339 -0.1266  0.3603 -0.2904
 1911COC    COC 1911   5.554   5.120   8.512 -0.1348 -0.2635  0.0838
 1912COC    COC 1912   5.287   5.096   8.677 -0.0744  0.2536 -0.0252
 1913COC    COC 1913   5.057   4.916   8.773  0.6164 -0.1706  0.1743
 1914COC    COC 1914   5.062   4.573   8.737 -0.0543  0.0213 -0.2153
 1915COC    COC 1915   4.844   4.436   8.948 -0.0788 -0.0530  0.3722
 1916COC    COC 1916   4.654   4.406   8.695  0.0577  0.2723 -0.0672
 1917COC    COC 1917   4.385   4.431   8.619  0.0461  0.0910 -0.0776
 1918COC    COC 1918   4.164   4.357   8.801  0.1724  0.1304 -0.0711
 1919COC    COC 1919   4.046   4.394   9.073 -0.1025 -0.1186 -0.1406
 1920COC    COC 1920   3.794   4.542   9.129 -0.1758  0.3164  0.0455
 1921COC    COC 1921   3.588   4.291   9.132  0.1473 -0.0026 -0.0960
 1922COC    COC 1922   3.315   4.234   8.992 -0.1242  0.1646 -0.1666
 1923COC    COC 1923   3.014   4.324   8.960 -0.0654  0.2014 -0.1307
 1924COC    COC 1924   2.857   4.076   8.902  0.3119 -0.0910 -0.0546
 1925COC    COC 1925   2.637   4.023   9.093  0.1221  0.0942 -0.3268
 1926COC    COC 1926   2.830   3.851   9.279 -0.6539 -0.0910 -0.0713
 1927COC    COC 1927   3.136   3.866   9.146 -0.1491  0.2285  0.2864
 1928COC    COC 1928   3.358   3.790   8.958 -0.2174 -0.3706  0.1989
 1929COC    COC 1929   3.607   3.867   9.111 -0.1551 -0.5074 -0.2825
 1930COC    COC 1930   3.774   3.631   9.168 -0.1094  0.1455 -0.1652
 1931COC    COC 1931   3.675   3.453   8.930 -0.1252  0.2116 -0.4298
 1932COH    COH 1932   3.521   3.281   8.852 -0.1690  0.0616 -0.1228
 1933COH    COH 1933   7.919   5.764   5.826 -0.0987  0.2280  0.4191
 1934COC    COC 1934   8.010   5.616   6.055 -0.0898 -0.0174 -0.0264
 1935COC    COC 1935   8.054   5.828   6.257  0.4347 -0.2421 -0.0798
 1936COC    COC 1936   8.167   5.805   6.549  0.0250 -0.2407 -0.4589
 1937COC    COC 1937   8.074   5.949   6.791 -0.0125 -0.2436 -0.3836
 1938COC    COC 1938   8.021   6.239   6.755 -0.4481 -0.3274  0.1153
 1939COC    COC 1939   8.010   6.424   7.023 -0.1952 -0.0322  0.2780
 1940COC    COC 1940   8.169   6.385   7.281  0.3431  0.3588  0.0903
 1941COC    COC 1941   8.213   6.091   7.255 -0.2314  0.2346 -0.0665
 1942COC    COC 1942   8.198   5.869   7.477 -0.1175  0.1201  0.3951
 1943COC    COC 1943   8.410   5.866   7.700  0.1055 -0.0863  0.0530
 1944COC    COC 1944   8.278   5.640   7.851 -0.0399  0.1479  0.2597
 1945COC    COC 1945   8.420   5.562   8.093 -0.0482 -0.2091 -0.1344
 1946COC    COC 1946   8.661   5.778   8.134  0.3766 -0.1685  0.4023
 1947COC    COC 1947   8.930   5.629   8.150 -0.0381  0.1726  0.2739
 1948COC    COC 1948   9.173   5.795   8.247 -0.0884  0.1542 -0.1622
 1949COC    COC 1949   9.071   6.072   8.177  0.1945  0.3851  0.1519
 1950COC    COC 1950   8.752   6.165   8.213  0.2187  0.0246  0.3492
 1951COC    COC 1951   8.551   6.012   8.445 -0.5597 -0.0899 -0.3374
 1952COC    COC 1952   8.581   6.066   8.719  0.0906 -0.5099 -0.1121
 1953COC    COC 1953   8.754   5.945   8.967 -0.2736 -0.5483 -0.0360
 1954COC    COC 1954   8.874   5.674   8.989  0.1706  0.0154 -0.3596
 1955COC    COC 1955   9.091   5.639   9.189 -0.2324  0.1324 -0.0195
 1956COC    COC 1956   9.317   5.776   9.349  0.0868  0.3093 -0.0374
 1957COC    COC 1957   9.410   6.026   9.465  0.2367  0.0303  0.0974
 1958COC    COC 1958   9.610   6.010   9.685  0.0969 -0.0729  0.0584
 1959COC    COC 1959   9.885   5.903   9.770  0.1044 -0.1987 -0.3392
 1960COC    COC 1960  10.125   5.934   9.948 -0.0336 -0.1214 -0.0568
 1961COC    COC 1961   0.038   5.770   9.934  0.0600  0.2250  0.0626
 1962COC    COC 1962   0.335   5.660   9.899  0.1007 -0.2101  0.0058
 1963COC    COC 1963   0.447   5.422   9.688 -0.0539 -0.0462  0.0413
 1964COC    COC 1964   0.299   5.338   9.452 -0.0737  0.1481 -0.0707
 1965COC    COC 1965   0.192   5.568   9.245 -0.1639 -0.0764 -0.2461
 1966COC    COC 1966   0.263   5.402   9.007 -0.2581 -0.1374 -0.0393
 1967COC    COC 1967   0.107   5.283   8.795  0.2560  0.0671  0.4655
 1968COC    COC 1968  10.291   5.056   8.642  0.1619  0.3429  0.4640
 1969COC    COC 1969  10.090   4.967   8.856 -0.4572  0.0854  0.0990
 1970COC    COC 1970   9.778   4.923   8.873 -0.0057 -0.2165  0.1120
 1971COC    COC 1971   9.754   4.617   8.894  0.1516 -0.3043  0.3852
 1972COC    COC 1972   9.930   4.437   9.076  0.2139  0.0631  0.1769
 1973COC    COC 1973  10.209   4.371   8.984  0.3135 -0.3912  0.1552
 1974COC    COC 1974   0.035   4.623   9.029  0.2014  0.1645 -0.2405
 1975COC    COC 1975   0.082   4.909   9.135  0.0982 -0.2706  0.7173
 1976COC    COC 1976   0.349   4.951   9.262  0.0836 -0.1449  0.2170
 1977COC    COC 1977   0.586   4.811   9.396  0.0426 -0.1030  0.1124
 1978COH    COH 1978   0.590   4.601   9.226 -0.1222 -0.2430  0.3442
 1979COH    COH 1979   5.556   0.824   2.347 -0.3602 -0.0850  0.2856
 1980COC    COC 1980   5.754   0.859   2.171 -0.2874  0.0808 -0.1974
 1981COC    COC 1981   5.876   0.672   1.971 -0.1509  0.1756 -0.1148
 1982COC    COC 1982   6.149   0.755   1.858  0.0472  0.1393  0.3994
 1983COC    COC 1983   6.358   0.775   1.611  0.4614  0.0939 -0.4792
 1984COC    COC 1984   6.311   0.719   1.310 -0.0431 -0.3869  0.2349
 1985COC    COC 1985   6.596   0.649   1.205  0.2363 -0.2010  0.2549
 1986COC    COC 1986   6.745   0.412   1.259  0.2940  0.1338  0.0751
 1987COC    COC 1987   6.521   0.184   1.148  0.4010 -0.1326  0.0287
 1988COC    COC 1988   6.554  10.218   1.221  0.1176  0.2828 -0.1188
 1989COC    COC 1989   6.465  10.073   1.500 -0.0345  0.0510 -0.3907
 1990COC    COC 1990   6.528  10.287   1.688  0.2135 -0.1528 -0.2942
 1991COC    COC 1991   6.784   0.026   1.825 -0.2339 -0.1921  0.0217
 1992COC    COC 1992   6.937   0.304   1.875  0.4172 -0.1434 -0.1413
 1993COC    COC 1993   7.247   0.365   1.834  0.0405 -0.2345  0.1060
 1994COC    COC 1994   7.398   0.468   2.048 -0.0270 -0.1699 -0.1169
 1995COC    COC 1995   7.409   0.672   2.258  0.3416 -0.1784 -0.0991
 1996COC    COC 1996   7.313   0.957   2.184 -0.1126 -0.1717  0.2977
 1997COC    COC 1997   7.152   0.969   1.918 -0.1423  0.1839  0.6031
 1998COC    COC 1998   7.048   1.098   1.668 -0.1461 -0.1496  0.2718
 1999COC    COC 1999   7.337   1.014   1.527  0.0685  0.0637  0.1030
 2000COC    COC 2000   7.389   0.714   1.516 -0.3368  0.0022 -0.4194
 2001COC    COC 2001   7.515   0.580   1.247 -0.1684 -0.3201 -0.0478
 2002COC    COC 2002   7.846   0.484   1.228  0.1256  0.3588 -0.2446
 2003COC    COC 2003   8.167   0.432   1.154 -0.0238  0.2549  0.2360
 2004COC    COC 2004   8.266   0.700   1.224  0.0002 -0.2873  0.4211
 2005COC    COC 2005   8.503   0.879   1.171  0.2107  0.6503 -0.4615
 2006COC    COC 2006   8.735   0.944   1.007  0.4485  0.0387  0.1774
 2007COC    COC 2007   8.688   0.727   0.772 -0.1132  0.4264 -0.1253
 2008COC    COC 2008   8.586   0.748   0.478 -0.0136  0.1724 -0.2734
 2009COC    COC 2009   8.507   0.495   0.327 -0.2489 -0.0367  0.1357
 2010COC    COC 2010   8.630   0.219   0.287 -0.1389 -0.2927  0.4198
 2011COC    COC 2011   8.694   0.054   0.535 -0.1200 -0.0688 -0.1997
 2012COC    COC 2012   8.529  10.130   0.543  0.1900 -0.3346 -0.3696
 2013COC    COC 2013   8.749   9.921   0.609 -0.2587  0.0601  0.1982
 2014COC    COC 2014   8.742   9.709   0.379  0.0810 -0.2773  0.1398
 2015COC    COC 2015   8.484   9.552   0.366  0.0001  0.0621 -0.5328
 2016COC    COC 2016   8.322   9.646   0.571 -0.0549 -0.0209  0.0232
 2017COC    COC 2017   8.380   9.777   0.827 -0.3942  0.0477  0.4035
 2018COC    COC 2018   8.338   9.693   1.122  0.1204  0.1281  0.1015
 2019COC    COC 2019   8.217   9.524   1.374  0.0178 -0.3976 -0.0756
 2020COC    COC 2020   7.956   9.561   1.490  0.1567 -0.0764  0.0485
 2021COC    COC 2021   7.722   9.684   1.309 -0.2128 -0.2331  0.1996
 2022COC    COC 2022   7.715   9.956   1.473 -0.1253  0.4001  0.2646
 2023COC    COC 2023   7.505  10.142   1.515  0.4919 -0.1338  0.1695
 2024COH    COH 2024   7.584  10.237   1.725  0.0700  0.3546  0.1915
 2025COH    COH 2025   5.979   0.019   8.335  0.1382 -0.4331 -0.0670
 2026COC    COC 2026   5.851   0.246   8.240  0.3738  0.1936  0.3025
 2027COC    COC 2027   5.532   0.265   8.261 -0.2679 -0.3501 -0.2146
 2028COC    COC 2028   5.405   0.074   8.433  0.3577 -0.3742 -0.1616
 2029COC    COC 2029   5.287  10.117   8.354  0.0095 -0.0883 -0.2527
 2030COC    COC 2030   5.192   9.879   8.528 -0.0279 -0.0281 -0.1733
 2031COC    COC 2031   5.261   9.573   8.627  0.0175  0.1167 -0.1660
 2032COC    COC 2032   5.434   9.544   8.866  0.2645 -0.3922 -0.6082
 2033COC    COC 2033   5.283   9.487   9.128  0.2341 -0.2107 -0.0162
 2034COC    COC 2034   5.079   9.719   9.219  0.0987 -0.2826  0.0542
 2035COC    COC 2035   5.090   9.665   9.525  0.3496  0.0037  0.0796
 2036COC    COC 2036   5.251   9.791   9.727  0.0128  0.2693 -0.3271
 2037COC    COC 2037   5.026   9.813   9.952  0.0201  0.1325 -0.3713
 2038COC    COC 2038   4.989  10.000  10.232  0.3561 -0.0478  0.2919
 2039COC    COC 2039   4.812  10.000   0.173 -0.2859  0.2522  0.0512
 2040COC    COC 2040   4.751  10.275   0.176  0.1485 -0.0864  0.2056
 2041COC    COC 2041   4.692   0.092   0.389  0.1543 -0.5424 -0.2750
 2042COC    COC 2042   4.537  10.275   0.579  0.3732 -0.2066 -0.2772
 2043COC    COC 2043   4.553   9.977   0.636 -0.0542  0.1751 -0.0757
 2044COC    COC 2044   4.622   9.786   0.844 -0.2072  0.1498 -0.1038
 2045COC    COC 2045   4.735   9.791   1.122 -0.2335  0.1359  0.0647
 2046COC    COC 2046   4.605  10.005   1.305 -0.0706  0.1520 -0.3176
 2047COC    COC 2047   4.424   9.881   1.516  0.2354 -0.1832  0.2871
 2048COC    COC 2048   4.151  10.001   1.472 -0.3790 -0.0915  0.3570
 2049COC    COC 2049   4.248  10.303   1.413 -0.0622  0.0107 -0.2459
 2050COC    COC 2050   4.071   0.111   1.252 -0.2456 -0.4026 -0.0626
 2051COC    COC 2051   3.814   0.054   1.126 -0.3525 -0.5352  0.2000
 2052COC    COC 2052   3.752  10.321   0.849 -0.0371  0.0460 -0.3299
 2053COC    COC 2053   3.548   0.144   0.679 -0.0224 -0.0913 -0.0982
 2054COC    COC 2054   3.666   0.381   0.588 -0.3990  0.3992  0.1361
 2055COC    COC 2055   3.767   0.407   0.269  0.2889  0.2074 -0.5942
 2056COC    COC 2056   3.955   0.574   0.089 -0.2782  0.1426 -0.1213
 2057COC    COC 2057   4.163   0.352   0.043 -0.1111  0.1126  0.2066
 2058COC    COC 2058   4.367   0.154   0.150  0.1899 -0.1980 -0.4248
 2059COC    COC 2059   4.310  10.217   0.220 -0.0370 -0.0481 -0.1455
 2060COC    COC 2060   4.378  10.000   0.093  0.2515  0.1697 -0.3056
 2061COC    COC 2061   4.400   9.777   0.266 -0.0397 -0.3713  0.1407
 2062COC    COC 2062   4.654   9.584   0.310 -0.1581  0.2993  0.0669
 2063COC    COC 2063   4.621   9.326   0.194  0.0199 -0.4848  0.3457
 2064COC    COC 2064   4.917   9.234   0.197 -0.2079  0.2787 -0.1123
 2065COC    COC 2065   4.839   8.971   0.339 -0.4131  0.1194  0.2730
 2066COC    COC 2066   4.570   8.887   0.269  0.2311 -0.4432 -0.2784
 2067COC    COC 2067   4.532   8.616   0.200 -0.1672  0.2833 -0.0045
 2068COC    COC 2068   4.642   8.359   0.121 -0.3068 -0.1077  0.1124
 2069COC    COC 2069   4.802   8.249  10.200 -0.0994  0.1261 -0.5891
 2070COH    COH 2070   4.884   7.993  10.255 -0.5531 -0.1172 -0.1911
 2071COH    COH 2071   8.338   4.810   3.662 -0.2646 -0.3924  0.0995
 2072COC    COC 2072   8.394   4.591   3.523  0.1576  0.1500 -0.0396
 2073COC    COC 2073   8.134   4.599   3.381  0.2865  0.1937  0.1905
 2074COC    COC 2074   8.089   4.902   3.311 -0.0168 -0.0363  0.1781
 2075COC    COC 2075   8.217   5.136   3.330 -0.0054 -0.2165  0.0458
 2076COC    COC 2076   8.245   5.305   3.578  0.1015 -0.2471 -0.2985
 2077COC    COC 2077   7.990   5.353   3.786  0.0792  0.1733 -0.3352
 2078COC    COC 2078   7.976   5.352   4.095  0.0423 -0.3571 -0.0525
 2079COC    COC 2079   7.893   5.626   4.228  0.2328  0.3532 -0.2843
 2080COC    COC 2080   7.630   5.607   4.357  0.7102  0.0885 -0.1036
 2081COC    COC 2081   7.432   5.406   4.276 -0.3279 -0.2511  0.0170
 2082COC    COC 2082   7.228   5.532   4.469  0.0656  0.1045  0.1075
 2083COC    COC 2083   6.982   5.365   4.538  0.3470  0.1512 -0.0436
 2084COC    COC 2084   7.048   5.157   4.779 -0.2319 -0.1259 -0.2583
 2085COC    COC 2085   7.123   5.228   5.058  0.0126 -0.0612  0.0464
 2086COC    COC 2086   6.937   5.094   5.231  0.2380 -0.0090 -0.1644
 2087COC    COC 2087   6.931   4.883   5.465  0.2180 -0.3777 -0.0089
 2088COC    COC 2088   7.067   4.872   5.710 -0.0444  0.0426  0.1936
 2089COC    COC 2089   7.108   4.721   5.951 -0.0400  0.3249 -0.1865
 2090COC    COC 2090   6.862   4.617   6.039 -0.1007  0.3516 -0.5822
 2091COC    COC 2091   6.685   4.611   5.801  0.1845 -0.4927  0.3463
 2092COC    COC 2092   6.782   4.453   5.559  0.1554 -0.0502  0.3339
 2093COC    COC 2093   7.013   4.232   5.665  0.0269 -0.3444  0.3310
 2094COC    COC 2094   6.931   4.095   5.909  0.2641 -0.5386  0.0989
 2095COC    COC 2095   6.701   3.925   5.812 -0.0566 -0.4653  0.3625
 2096COC    COC 2096   6.705   3.589   5.821  0.4934 -0.2477  0.2310
 2097COC    COC 2097   6.527   3.479   6.029  0.3864 -0.1205  0.3046
 2098COC    COC 2098   6.422   3.176   6.130 -0.2279 -0.3201  0.4770
 2099COC    COC 2099   6.272   2.987   5.903  0.2780 -0.2427  0.4765
 2100COC    COC 2100   5.984   2.954   5.782 -0.3618 -0.0172 -0.1744
 2101COC    COC 2101   5.752   3.152   5.712  0.0988  0.1432 -0.2163
 2102COC    COC 2102   5.479   2.967   5.694 -0.2712 -0.2457 -0.3676
 2103COC    COC 2103   5.445   2.652   5.703  0.0747  0.2285 -0.0183
 2104COC    COC 2104   5.277   2.422   5.783 -0.0246 -0.2046  0.1801
 2105COC    COC 2105   5.249   2.360   6.059  0.4231 -0.2357 -0.2548
 2106COC    COC 2106   5.528   2.235   6.176 -0.0665 -0.1085  0.0042
 2107COC    COC 2107   5.528   2.129   6.430  0.4707 -0.1303 -0.3202
 2108COC    COC 2108   5.631   1.925   6.628 -0.1259  0.0048 -0.3261
 2109COC    COC 2109   5.368   1.752   6.640  0.1521 -0.3887  0.1970
 2110COC    COC 2110   5.146   1.894   6.494 -0.2899 -0.2392 -0.0341
 2111COC    COC 2111   4.896   1.714   6.549  0.1466 -0.0437  0.1329
 2112COC    COC 2112   4.689   1.662   6.788  0.1752 -0.6547 -0.0488
 2113COC    COC 2113   4.493   1.512   6.957  0.1359  0.0312  0.2144
 2114COC    COC 2114   4.546   1.616   7.237  0.3544  0.1880 -0.0747
 2115COC    COC 2115   4.351   1.823   7.423 -0.3162 -0.2958  0.3321
 2116COH    COH 2116   4.483   1.915   7.659  0.0161  0.4046  0.0939
 2117COH    COH 2117   1.604   1.201   6.532  0.3873 -0.0435  0.0002
 2118COC    COC 2118   1.479   1.115   6.775  0.1183 -0.3552 -0.0186
 2119COC    COC 2119   1.289   1.358   6.814 -0.1384 -0.0892 -0.3254
 2120COC    COC 2120   1.460   1.574   6.883 -0.1902 -0.1728  0.2164
 2121COC    COC 2121   1.430   1.855   6.856  0.1905 -0.1788  0.0397
 2122COC    COC 2122   1.178   1.935   6.708  0.1288 -0.3757 -0.0675
 2123COC    COC 2123   0.934   1.960   6.932 -0.3005 -0.0084  0.3355
 2124COC    COC 2124   0.736   2.187   6.871 -0.1671 -0.0785 -0.2266
 2125COC    COC 2125   0.439   2.126   6.750 -0.1286  0.2359  0.0018
 2126COC    COC 2126   0.279   2.143   7.006  0.2172  0.1515  0.1512
 2127COC    COC 2127  10.320   2.149   7.063  0.4364  0.2207 -0.4899
 2128COC    COC 2128  10.163   2.362   7.253 -0.5112 -0.2923 -0.2409
 2129COC    COC 2129  10.216   2.662   7.289 -0.0807  0.2587  0.0418
 2130COC    COC 2130   0.056   2.914   7.369 -0.0939 -0.0921  0.4208
 2131COC    COC 2131  10.113   3.023   7.517  0.1302 -0.0861  0.1635
 2132COC    COC 2132  10.028   2.991   7.771  0.2709 -0.1359 -0.2656
 2133COC    COC 2133   9.730   3.001   7.783  0.4277 -0.2894  0.1611
 2134COC    COC 2134   9.700   3.142   8.030 -0.2322  0.4493  0.1237
 2135COC    COC 2135   9.752   3.385   8.134  0.1589 -0.0911 -0.1836
 2136COC    COC 2136   9.786   3.694   8.036 -0.0028 -0.2353 -0.1596
 2137COC    COC 2137   9.768   3.743   7.785  0.1181  0.1133  0.4148
 2138COC    COC 2138  10.032   3.843   7.704 -0.0548  0.0745  0.0513
 2139COC    COC 2139  10.162   3.987   7.962 -0.1092  0.2096  0.3400
 2140COC    COC 2140  10.101   4.271   7.995 -0.3338  0.1090 -0.4172
 2141COC    COC 2141  10.168   4.260   8.306 -0.0303  0.1376  0.4407
 2142COC    COC 2142  10.083   3.953   8.354  0.1798  0.3816 -0.1922
 2143COC    COC 2143  10.189   3.699   8.495  0.2071 -0.0487 -0.1770
 2144COC    COC 2144  10.065   3.460   8.591 -0.2972  0.2368  0.0598
 2145COC    COC 2145   9.876   3.241   8.479 -0.1594  0.0971  0.1785
 2146COC    COC 2146  10.074   3.109   8.263 -0.0565 -0.0501  0.2727
 2147COC    COC 2147   9.957   2.846   8.164  0.1805  0.0322  0.2014
 2148COC    COC 2148   9.723   2.797   8.354 -0.1919  0.1081 -0.2763
 2149COC    COC 2149   9.884   2.734   8.623  0.4549 -0.1481 -0.1305
 2150COC    COC 2150   9.850   2.936   8.849 -0.2683 -0.3416 -0.3935
 2151COC    COC 2151   9.609   3.123   8.805  0.3654 -0.2599 -0.2275
 2152COC    COC 2152   9.392   3.001   8.956 -0.0726  0.0876 -0.2549
 2153COC    COC 2153   9.144   2.936   8.752  0.0640 -0.3718 -0.2622
 2154COC    COC 2154   8.999   2.686   8.851 -0.0863 -0.0250 -0.4110
 2155COC    COC 2155   8.933   2.793   9.143  0.0123  0.3014 -0.2233
 2156COC    COC 2156   8.902   2.595   9.394 -0.0491  0.1284 -0.3765
 2157COC    COC 2157   8.672   2.628   9.631  0.0505  0.2005  0.4133
 2158COC    COC 2158   8.590   2.509   9.941 -0.0023 -0.1783  0.1420
 2159COC    COC 2159   8.707   2.527  10.207 -0.2199 -0.1367 -0.0525
 2160COC    COC 2160   8.781   2.330   0.141 -0.3328  0.2384 -0.2070
 2161COC    COC 2161   8.964   2.152   0.328  0.0747 -0.3917  0.3659
 2162COH    COH 2162   9.131   2.045   0.127 -0.0779  0.3983  0.3169
 2163COH    COH 2163   3.278   4.043   6.742  0.5324  0.1992 -0.1436
 2164COC    COC 2164   3.142   4.078   6.483 -0.7444  0.0548  0.0354
 2165COC    COC 2165   3.134   4.289   6.293 -0.1671  0.1967 -0.2511
 2166COC    COC 2166   3.342   4.494   6.191 -0.6524 -0.1589 -0.0467
 2167COC    COC 2167   3.429   4.757   6.068 -0.0241  0.0939 -0.1780
 2168COC    COC 2168   3.700   4.822   5.957 -0.3400  0.1218  0.4173
 2169COC    COC 2169   3.927   4.794   6.170 -0.0989  0.1783  0.0132
 2170COC    COC 2170   4.103   4.910   6.368  0.0840 -0.1115  0.1251
 2171COC    COC 2171   3.911   5.098   6.501  0.0668 -0.0505 -0.0921
 2172COC    COC 2172   3.819   5.306   6.268 -0.0623 -0.3569  0.0311
 2173COC    COC 2173   3.543   5.184   6.138  0.1346 -0.2640  0.2867
 2174COC    COC 2174   3.448   5.262   5.875  0.3734 -0.2952  0.1284
 2175COC    COC 2175   3.314   5.085   5.645  0.0857  0.0730 -0.1694
 2176COC    COC 2176   3.060   4.967   5.780 -0.4589  0.0563 -0.0398
 2177COC    COC 2177   2.961   4.884   6.054 -0.3685  0.2135  0.0032
 2178COC    COC 2178   2.879   4.593   6.075  0.0323 -0.0542 -0.0255
 2179COC    COC 2179   2.711   4.454   5.889 -0.0461  0.2908  0.0295
 2180COC    COC 2180   2.806   4.523   5.637 -0.5228 -0.0173  0.0342
 2181COC    COC 2181   2.680   4.821   5.589 -0.7556  0.0102  0.0035
 2182COC    COC 2182   2.515   4.961   5.811  0.2092 -0.3746  0.0752
 2183COC    COC 2183   2.472   4.840   6.097 -0.0614 -0.0636 -0.2966
 2184COC    COC 2184   2.520   4.955   6.397 -0.1205  0.4496  0.4017
 2185COC    COC 2185   2.833   4.913   6.477  0.1075 -0.0193 -0.2327
 2186COC    COC 2186   3.143   4.869   6.468  0.2399 -0.5693  0.2109
 2187COC    COC 2187   3.243   4.933   6.730 -0.0349  0.0236 -0.2783
 2188COC    COC 2188   3.437   4.880   6.963 -0.1438 -0.1493 -0.2055
 2189COC    COC 2189   3.613   5.059   7.149 -0.0521 -0.1362  0.3413
 2190COC    COC 2190   3.699   5.329   7.043 -0.1570 -0.1084 -0.0566
 2191COC    COC 2191   3.432   5.466   6.992 -0.2613 -0.3527 -0.0397
 2192COC    COC 2192   3.465   5.752   6.949 -0.3694 -0.0249 -0.1333
 2193COC    COC 2193   3.613   5.830   6.715 -0.0165  0.2032  0.4831
 2194COC    COC 2194   3.811   6.007   6.663 -0.3590  0.0804  0.6665
 2195COC    COC 2195   3.982   6.259   6.692  0.1203 -0.2054  0.2405
 2196COC    COC 2196   3.998   6.428   6.934  0.0346 -0.1245 -0.1252
 2197COC    COC 2197   4.303   6.473   6.900  0.0309  0.3261  0.0538
 2198COC    COC 2198   4.485   6.707   6.980  0.1177 -0.0152  0.0049
 2199COC    COC 2199   4.499   6.770   7.296  0.1100  0.6850  0.2427
 2200COC    COC 2200   4.733   6.934   7.286 -0.1475  0.2077 -0.4384
 2201COC    COC 2201   5.033   6.775   7.282 -0.2228 -0.0122 -0.2930
 2202COC    COC 2202   5.094   6.483   7.203  0.3916 -0.1406 -0.2871
 2203COC    COC 2203   5.326   6.371   6.988 -0.1786 -0.0332 -0.4622
 2204COC    COC 2204   5.397   6.044   6.954  0.1501  0.2459 -0.1821
 2205COC    COC 2205   5.463   5.914   6.713 -0.3304 -0.0296  0.1088
 2206COC    COC 2206   5.740   5.833   6.789 -0.0809 -0.3188  0.2183
 2207COC    COC 2207   6.020   5.864   6.651  0.2956 -0.1876  0.1207
 2208COH    COH 2208   6.114   5.643   6.701  0.1942  0.4265  0.2525
 2209COH    COH 2209   9.766   0.408   2.817 -0.0241 -0.0846  0.3522
 2210COC    COC 2210   9.557   0.491   2.978 -0.3184  0.1027  0.1543
 2211COC    COC 2211   9.655   0.766   2.984  0.3932  0.0219  0.1060
 2212COC    COC 2212   9.789   1.033   2.940 -0.2903  0.2664  0.0722
 2213COC    COC 2213   9.731   1.338   2.984 -0.2162  0.2083  0.0101
 2214COC    COC 2214   9.592   1.507   3.185 -0.0251  0.5977  0.2229
 2215COC    COC 2215   9.559   1.803   3.122 -0.0015 -0.1751  0.3750
 2216COC    COC 2216   9.482   1.980   3.360  0.0487  0.1401  0.1055
 2217COC    COC 2217   9.197   2.092   3.390  0.0238  0.0945 -0.4161
 2218COC    COC 2218   9.162   2.321   3.258 -0.0069 -0.1407  0.2544
 2219COC    COC 2219   8.900   2.478   3.349 -0.2306 -0.0702 -0.0895
 2220COC    COC 2220   8.819   2.745   3.488 -0.0314 -0.2190 -0.0808
 2221COC    COC 2221   8.913   2.809   3.805 -0.0503 -0.3484  0.0612
 2222COC    COC 2222   9.173   2.799   3.908 -0.3961 -0.1574  0.0949
 2223COC    COC 2223   9.465   2.719   3.829  0.1100  0.0267 -0.2591
 2224COC    COC 2224   9.626   2.895   3.649 -0.1072 -0.3357  0.0053
 2225COC    COC 2225   9.761   2.949   3.335  0.0960  0.2973  0.3931
 2226COC    COC 2226   9.991   3.081   3.175  0.1851  0.4763  0.4751
 2227COC    COC 2227   9.999   3.031   2.877 -0.1816 -0.0110 -0.0858
 2228COC    COC 2228   9.772   3.193   2.751  0.2543 -0.2878  0.0562
 2229COC    COC 2229   9.626   3.246   2.461 -0.1893  0.2261 -0.5055
 2230COC    COC 2230   9.587   3.504   2.303  0.1771  0.3871 -0.2220
 2231COC    COC 2231   9.481   3.758   2.433  0.1897  0.2674  0.0439
 2232COC    COC 2232   9.636   3.829   2.689 -0.4066 -0.0968  0.0387
 2233COC    COC 2233   9.736   4.078   2.776 -0.0566  0.2138 -0.0543
 2234COC    COC 2234   9.763   4.334   2.665 -0.0314 -0.3790 -0.0580
 2235COC    COC 2235   9.589   4.578   2.804 -0.0999 -0.1311  0.1637
 2236COC    COC 2236   9.283   4.584   2.864 -0.1269 -0.1974  0.0283
 2237COC    COC 2237   9.217   4.495   3.176 -0.1277  0.0638  0.1966
 2238COC    COC 2238   9.002   4.284   3.265  0.3165 -0.1291 -0.0447
 2239COC    COC 2239   8.847   4.052   3.105  0.1719  0.2046  0.0671
 2240COC    COC 2240   8.563   3.938   3.154 -0.2009  0.0582  0.3413
 2241COC    COC 2241   8.485   3.835   3.441 -0.0753 -0.0969  0.0571
 2242COC    COC 2242   8.248   3.628   3.431 -0.4150  0.1268 -0.1366
 2243COC    COC 2243   8.097   3.437   3.274 -0.2310  0.2262  0.3381
 2244COC    COC 2244   7.860   3.255   3.303 -0.0364 -0.2216 -0.2048
 2245COC    COC 2245   7.753   3.023   3.481  0.0840  0.2228 -0.1159
 2246COC    COC 2246   7.847   2.724   3.469  0.0524 -0.3715  0.0752
 2247COC    COC 2247   7.669   2.473   3.469  0.3396  0.0190 -0.0519
 2248COC    COC 2248   7.407   2.339   3.619 -0.5774  0.1601  0.3315
 2249COC    COC 2249   7.359   2.155   3.389 -0.2321 -0.4995  0.2606
 2250COC    COC 2250   7.107   2.026   3.328  0.1067 -0.2016 -0.1165
 2251COC    COC 2251   6.826   2.143   3.259  0.0875  0.1138 -0.3156
 2252COC    COC 2252   6.787   2.385   3.441  0.2595  0.2123  0.3384
 2253COC    COC 2253   6.948   2.586   3.616  0.1664 -0.0073  0.2622
 2254COH    COH 2254   6.907   2.870   3.610 -0.5523 -0.2009  0.1428
 2255COH    COH 2255   5.193   6.222   0.055  0.6747  0.0386  0.0232
 2256COC    COC 2256   5.432   6.272  10.275  0.2895 -0.3474  0.3007
 2257COC    COC 2257   5.473   6.441  10.046 -0.6201 -0.0938 -0.0091
 2258COC    COC 2258   5.700   6.243   9.918  0.0929  0.0665 -0.4356
 2259COC    COC 2259   5.954   6.416   9.958 -0.4393  0.3215 -0.0139
 2260COC    COC 2260   6.042   6.757   9.925  0.2389 -0.1749 -0.2718
 2261COC    COC 2261   6.159   6.963   9.736  0.3119 -0.1856 -0.3121
 2262COC    COC 2262   5.878   7.077   9.625  0.0983  0.1970 -0.3380
 2263COC    COC 2263   5.890   7.170   9.351 -0.2146 -0.3322  0.3185
 2264COC    COC 2264   6.100   7.178   9.076 -0.0396  0.0916  0.1763
 2265COC    COC 2265   6.384   7.263   9.000 -0.0212  0.2933 -0.4916
 2266COC    COC 2266   6.384   7.432   8.760 -0.1103 -0.0730  0.0699
 2267COC    COC 2267   6.151   7.638   8.683 -0.1566  0.0295  0.2936
 2268COC    COC 2268   5.972   7.865   8.838  0.0835 -0.2203 -0.0718
 2269COC    COC 2269   5.786   8.055   8.707  0.0301  0.0239  0.5019
 2270COC    COC 2270   5.533   8.249   8.668  0.5559  0.0087  0.2676
 2271COC    COC 2271   5.430   8.241   8.380  0.2352 -0.0633 -0.1082
 2272COC    COC 2272   5.321   8.188   8.130  0.1894 -0.0467  0.3970
 2273COC    COC 2273   5.287   7.937   7.942  0.1755 -0.2827  0.2848
 2274COC    COC 2274   5.022   7.830   8.001 -0.3289 -0.0666  0.2876
 2275COC    COC 2275   4.830   8.057   7.996 -0.1332 -0.0164  0.3318
 2276COC    COC 2276   4.799   8.233   7.752  0.1349  0.1911 -0.0558
 2277COC    COC 2277   4.745   8.479   7.888 -0.0542 -0.2005 -0.1568
 2278COC    COC 2278   4.793   8.692   7.659 -0.3552  0.0342 -0.1055
 2279COC    COC 2279   4.570   8.816   7.497 -0.1168 -0.0343 -0.0028
 2280COC    COC 2280   4.489   8.572   7.279 -0.0902 -0.0658 -0.2343
 2281COC    COC 2281   4.672   8.335   7.342 -0.0439 -0.2410 -0.0508
 2282COC    COC 2282   4.828   8.234   7.100  0.0457 -0.0366  0.0483
 2283COC    COC 2283   5.099   8.371   6.955  0.3096 -0.3496 -0.1015
 2284COC    COC 2284   5.333   8.210   6.864  0.0992 -0.0925  0.2502
 2285COC    COC 2285   5.532   8.039   6.706  0.1684 -0.2701 -0.3006
 2286COC    COC 2286   5.798   8.047   6.587  0.4126 -0.2538 -0.0616
 2287COC    COC 2287   5.798   8.207   6.323  0.2430 -0.2199 -0.0715
 2288COC    COC 2288   5.994   8.411   6.351  0.1246 -0.5437 -0.3526
 2289COC    COC 2289   6.260   8.332   6.445 -0.2474  0.0550 -0.0583
 2290COC    COC 2290   6.489   8.238   6.232  0.1007 -0.1167 -0.0725
 2291COC    COC 2291   6.711   8.274   6.447  0.4413  0.0098 -0.0748
 2292COC    COC 2292   6.973   8.281   6.269 -0.2160 -0.2757 -0.1570
 2293COC    COC 2293   7.014   8.334   5.972  0.0274 -0.0422  0.1999
 2294COC    COC 2294   6.751   8.316   5.890 -0.2146  0.4351 -0.3697
 2295COC    COC 2295   6.686   8.267   5.574 -0.0581 -0.3934 -0.5007
 2296COC    COC 2296   6.443   8.296   5.414 -0.0923 -0.0837  0.2386
 2297COC    COC 2297   6.273   8.468   5.555  0.0533 -0.1557  0.2464
 2298COC    COC 2298   6.276   8.412   5.835  0.0243  0.2270  0.1339
 2299COC    COC 2299   6.200   8.154   5.957 -0.0808 -0.0622 -0.1064
 2300COH    COH 2300   6.232   7.951   5.773  0.1528 -0.0816 -0.3029
 2301COH    COH 2301  10.320   8.670   9.758 -0.1213 -0.3651 -0.5389
 2302COC    COC 2302  10.269   8.630  10.027  0.2503 -0.0693  0.1932
 2303COC    COC 2303  10.170   8.932  10.089  0.1599  0.0955  0.0563
 2304COC    COC 2304   9.950   8.875  10.317  0.1253  0.4174 -0.0997
 2305COC    COC 2305   9.855   8.755   0.265 -0.0036 -0.1181 -0.3704
 2306COC    COC 2306   9.964   8.943   0.480  0.1383 -0.0687  0.1231
 2307COC    COC 2307   9.865   9.102   0.699  0.1064 -0.1478  0.2572
 2308COC    COC 2308   9.724   9.354   0.623  0.0610 -0.0169 -0.0184
 2309COC    COC 2309   9.758   9.623   0.618 -0.0817  0.0686 -0.3647
 2310COC    COC 2310   9.519   9.804   0.709  0.1033  0.2847  0.3720
 2311COC    COC 2311   9.560  10.019   0.499 -0.1786 -0.0961  0.2823
 2312COC    COC 2312   9.557  10.279   0.627 -0.1418 -0.1894 -0.1421
 2313COC    COC 2313   9.435   0.195   0.525  0.5020  0.0134 -0.1486
 2314COC    COC 2314   9.450   0.429   0.358  0.2015 -0.0940 -0.0876
 2315COC    COC 2315   9.320   0.386   0.040 -0.0649 -0.2631 -0.0078
 2316COC    COC 2316   9.364   0.214  10.146 -0.1007 -0.0718 -0.2040
 2317COC    COC 2317   9.425   0.111   9.861  0.2675 -0.1580  0.1410
 2318COC    COC 2318   9.617  10.217   9.840 -0.2734  0.0135 -0.2583
 2319COC    COC 2319   9.769  10.155  10.094  0.1935 -0.2845 -0.3260
 2320COC    COC 2320   9.908   9.984  10.314  0.1136 -0.1719  0.1515
 2321COC    COC 2321  10.103   9.779  10.296  0.1363  0.0041  0.0296
 2322COC    COC 2322   0.035   9.628  10.316  0.0796  0.2033  0.3166
 2323COC    COC 2323   0.153   9.628   0.258 -0.0461 -0.1088 -0.1446
 2324COC    COC 2324   0.301   9.509   0.494  0.1438  0.2908  0.0776
 2325COC    COC 2325   0.249   9.197   0.490  0.0124 -0.0728  0.0006
 2326COC    COC 2326   0.417   8.985   0.647  0.0658  0.0774  0.2677
 2327COC    COC 2327   0.536   8.922   0.904 -0.3424 -0.1135 -0.4718
 2328COC    COC 2328   0.332   8.921   1.123 -0.1328 -0.4467 -0.3233
 2329COC    COC 2329   0.473   9.014   1.342 -0.3691  0.1596 -0.3770
 2330COC    COC 2330   0.614   8.872   1.588  0.3159  0.1339  0.2447
 2331COC    COC 2331   0.923   8.760   1.546  0.5418 -0.0264 -0.0719
 2332COC    COC 2332   1.101   8.887   1.382  0.0899 -0.0325 -0.1284
 2333COC    COC 2333   0.979   9.100   1.194  0.1199  0.1502 -0.0440
 2334COC    COC 2334   0.770   9.342   1.220  0.4298  0.4527  0.1841
 2335COC    COC 2335   0.765   9.599   1.367  0.1612 -0.0060 -0.2112
 2336COC    COC 2336   0.493   9.650   1.445 -0.2543  0.0054 -0.3110
 2337COC    COC 2337   0.330   9.402   1.426  0.4036 -0.0053 -0.1437
 2338COC    COC 2338   0.138   9.262   1.614 -0.2388  0.0145 -0.2759
 2339COC    COC 2339  10.187   9.405   1.585 -0.3981 -0.0508  0.0493
 2340COC    COC 2340   9.956   9.182   1.524  0.3342 -0.6056 -0.0057
 2341COC    COC 2341   9.697   9.337   1.435  0.1432 -0.1581 -0.0897
 2342COC    COC 2342   9.396   9.227   1.527  0.5960 -0.2307 -0.1317
 2343COC    COC 2343   9.189   9.011   1.431 -0.1903 -0.1917 -0.0186
 2344COC    COC 2344   8.908   8.942   1.411  0.3082 -0.1143  0.1448
 2345COC    COC 2345   8.880   8.690   1.506  0.0565  0.2306 -0.1642
 2346COH    COH 2346   8.960   8.630   1.720 -0.3692  0.1001 -0.1026
 2347COH    COH 2347   3.216   2.108   3.442  0.1833  0.1733 -0.3864
 2348COC    COC 2348   3.177   1.888   3.570  0.3152  0.1044  0.2041
 2349COC    COC 2349   3.034   1.715   3.382 -0.3225 -0.2110  0.2350
 2350COC    COC 2350   3.009   1.666   3.048 -0.0601 -0.0021  0.1326
 2351COC    COC 2351   3.028   1.430   2.850  0.1231 -0.4502  0.1283
 2352COC    COC 2352   2.853   1.180   2.939  0.0830 -0.3195  0.0322
 2353COC    COC 2353   2.566   1.226   2.951 -0.1091 -0.2076  0.3701
 2354COC    COC 2354   2.340   1.183   2.741 -0.1855 -0.4368  0.0747
 2355COC    COC 2355   2.538   1.083   2.527 -0.0509  0.0997 -0.2684
 2356COC    COC 2356   2.712   0.865   2.640  0.1922  0.4310 -0.4087
 2357COC    COC 2357   2.613   0.548   2.705  0.1120  0.1048 -0.1948
 2358COC    COC 2358   2.658   0.376   2.437 -0.0040  0.4139 -0.2551
 2359COC    COC 2359   2.882   0.335   2.270  0.0951 -0.1184 -0.2764
 2360COC    COC 2360   3.081   0.124   2.179 -0.0836 -0.0089 -0.4486
 2361COC    COC 2361   3.271   0.004   2.407  0.4227  0.3285 -0.0262
 2362COC    COC 2362   3.083   0.133   2.605 -0.0369  0.1809  0.0194
 2363COC    COC 2363   3.171   0.309   2.868 -0.0459  0.5260 -0.0324
 2364COC    COC 2364   3.447   0.414   2.897 -0.1221  0.5771 -0.1067
 2365COC    COC 2365   3.640   0.312   3.164  0.1364  0.1093 -0.2109
 2366COC    COC 2366   3.833   0.096   3.195  0.1365  0.0668  0.0840
 2367COC    COC 2367   4.113   0.168   3.266 -0.3489 -0.2740  0.1354
 2368COC    COC 2368   4.177   0.448   3.344 -0.2277 -0.0775  0.1189
 2369COC    COC 2369   4.438   0.558   3.175  0.0952  0.0190  0.2703
 2370COC    COC 2370   4.525   0.293   3.131 -0.2931  0.2997  0.1569
 2371COC    COC 2371   4.494   0.140   2.879  0.1210 -0.0950  0.1421
 2372COC    COC 2372   4.738   0.100   2.681 -0.1394 -0.0776 -0.1570
 2373COC    COC 2373   4.853   0.203   2.373  0.0214  0.1227  0.1302
 2374COC    COC 2374   4.976   0.311   2.116  0.0604 -0.1219 -0.1393
 2375COC    COC 2375   4.910   0.547   1.901  0.0960 -0.1145  0.1926
 2376COC    COC 2376   4.641   0.696   1.854 -0.0778 -0.0767  0.0401
 2377COC    COC 2377   4.622   0.939   2.041  0.4515  0.3016  0.2873
 2378COC    COC 2378   4.533   1.131   1.801  0.3640 -0.2397  0.1831
 2379COC    COC 2379   4.273   1.267   1.902 -0.2907  0.0446 -0.3173
 2380COC    COC 2380   4.323   1.302   2.219 -0.1647  0.2246  0.1022
 2381COC    COC 2381   4.358   1.309   2.535 -0.1264  0.1725  0.0075
 2382COC    COC 2382   4.578   1.152   2.566  0.2737 -0.0007 -0.4085
 2383COC    COC 2383   4.764   1.283   2.431 -0.1330  0.0307  0.0135
 2384COC    COC 2384   5.003   1.175   2.564  0.0233 -0.0069  0.1420
 2385COC    COC 2385   5.188   0.941   2.622 -0.1540  0.0485 -0.0981
 2386COC    COC 2386   5.459   1.024   2.691  0.0341  0.5301  0.3529
 2387COC    COC 2387   5.619   0.917   2.925 -0.3760 -0.0119  0.0496
 2388COC    COC 2388   5.528   1.022   3.220 -0.2273  0.5538  0.3397
 2389COC    COC 2389   5.301   0.950   3.415 -0.0887  0.0253  0.1613
 2390COC    COC 2390   4.983   0.918   3.345 -0.0019  0.3740 -0.0938
 2391COC    COC 2391   4.730   0.911   3.567 -0.0941 -0.1324  0.5307
 2392COH    COH 2392   4.531   0.867   3.397 -0.5836 -0.4024  0.0649
 2393COH    COH 2393   7.617   5.858   9.129 -0.3284  0.3043 -0.3731
 2394COC    COC 2394   7.800   6.015   9.060  0.0345  0.5104  0.4784
 2395COC    COC 2395   8.077   6.005   8.952 -0.1608 -0.2247  0.1004
 2396COC    COC 2396   8.083   6.039   8.627  0.1971  0.1789 -0.2935
 2397COC    COC 2397   8.167   5.756   8.597 -0.0744 -0.0483  0.0807
 2398COC    COC 2398   8.385   5.609   8.775  0.2522  0.0175  0.3792
 2399COC    COC 2399   8.466   5.670   9.063 -0.2954  0.0496 -0.1124
 2400COC    COC 2400   8.265   5.665   9.296  0.0377  0.1365 -0.2010
 2401COC    COC 2401   8.304   5.682   9.595 -0.1740  0.0063 -0.3352
 2402COC    COC 2402   8.587   5.874   9.687 -0.2532 -0.0867 -0.0101
 2403COC    COC 2403   8.566   5.941   9.980 -0.3766 -0.2677 -0.2121
 2404COC    COC 2404   8.489   5.724  10.181  0.3516 -0.1079  0.4067
 2405COC    COC 2405   8.724   5.642   0.051  0.2235 -0.1976  0.1869
 2406COC    COC 2406   8.675   5.433   0.265 -0.2420 -0.1642  0.1373
 2407COC    COC 2407   8.707   5.406   0.550 -0.0075  0.0262  0.8123
 2408COC    COC 2408   8.613   5.425   0.831 -0.0813  0.0036  0.1731
 2409COC    COC 2409   8.428   5.244   0.952  0.4140 -0.4194  0.4736
 2410COC    COC 2410   8.474   5.060   1.149  0.3225 -0.1310  0.0190
 2411COC    COC 2411   8.420   4.799   1.028  0.4410 -0.1329 -0.0717
 2412COC    COC 2412   8.384   4.522   1.141  0.1434 -0.1203 -0.0419
 2413COC    COC 2413   8.124   4.380   1.037 -0.1695 -0.3557 -0.2511
 2414COC    COC 2414   7.879   4.448   1.236 -0.0085 -0.2466  0.0385
 2415COC    COC 2415   7.656   4.453   1.070  0.1841  0.4025 -0.1002
 2416COC    COC 2416   7.440   4.605   0.943  0.1240 -0.2998  0.1893
 2417COC    COC 2417   7.321   4.818   0.798 -0.2913 -0.1864 -0.1210
 2418COC    COC 2418   7.170   4.933   1.021  0.0583  0.1369 -0.4356
 2419COC    COC 2419   7.020   5.216   1.098 -0.2488 -0.1130 -0.1330
 2420COC    COC 2420   7.070   5.239   1.400 -0.0758 -0.2906 -0.2383
 2421COC    COC 2421   6.920   5.132   1.599 -0.1322  0.0723  0.0366
 2422COC    COC 2422   7.056   5.250   1.848 -0.0296  0.2603 -0.3910
 2423COC    COC 2423   7.320   5.194   1.879  0.0402  0.2535  0.2312
 2424COC    COC 2424   7.489   5.226   1.623 -0.0566  0.0767  0.2925
 2425COC    COC 2425   7.726   5.016   1.589  0.1085  0.0622 -0.3182
 2426COC    COC 2426   7.730   4.739   1.492 -0.1495 -0.1710 -0.0793
 2427COC    COC 2427   7.712   4.495   1.678  0.0058  0.0156  0.0113
 2428COC    COC 2428   7.919   4.452   1.885 -0.1327  0.1098 -0.0869
 2429COC    COC 2429   7.890   4.653   2.122  0.2634  0.2976 -0.2594
 2430COC    COC 2430   7.719   4.410   2.253 -0.1835 -0.2872  0.2337
 2431COC    COC 2431   7.506   4.310   2.087  0.1956 -0.0890 -0.0408
 2432COC    COC 2432   7.545   4.159   1.828  0.1091  0.2150  0.0449
 2433COC    COC 2433   7.838   4.070   1.700  0.4532  0.1881 -0.0698
 2434COC    COC 2434   7.820   4.044   1.397  0.1125  0.3008  0.1103
 2435COC    COC 2435   7.554   3.953   1.347 -0.3100 -0.0770  0.2715
 2436COC    COC 2436   7.435   3.700   1.264  0.0880  0.0857  0.3527
 2437COC    COC 2437   7.246   3.696   1.017  0.1216  0.0148  0.2083
 2438COH    COH 2438   7.012   3.560   1.012  0.3046 -0.0289  0.0367
 2439COH    COH 2439   0.024   7.072   1.319  0.0891  0.1860 -0.0812
 2440COC    COC 2440   0.053   7.001   1.557 -0.2522  0.2300  0.1543
 2441COC    COC 2441   0.260   7.218   1.648 -0.2177  0.0140  0.3422
 2442COC    COC 2442   0.219   7.511   1.496  0.0495 -0.0170  0.3297
 2443COC    COC 2443   0.118   7.573   1.218 -0.3998 -0.1238 -0.0540
 2444COC    COC 2444  10.220   7.763   1.159  0.1359 -0.1858  0.1661
 2445COC    COC 2445  10.046   7.748   1.386 -0.0652  0.3708 -0.3084
 2446COC    COC 2446   9.779   7.849   1.198  0.1537  0.0769 -0.1842
 2447COC    COC 2447   9.481   7.887   1.229 -0.0767  0.0074  0.5169
 2448COC    COC 2448   9.246   8.084   1.263  0.1372  0.0618  0.5448
 2449COC    COC 2449   8.996   7.972   1.156  0.0031  0.5274 -0.1324
 2450COC    COC 2450   8.730   8.106   1.104  0.4490  0.1161 -0.1794
 2451COC    COC 2451   8.521   7.901   1.051  0.2053 -0.1222 -0.2552
 2452COC    COC 2452   8.598   7.635   0.936 -0.2273  0.1095 -0.4735
 2453COC    COC 2453   8.899   7.612   0.886 -0.2641  0.1350  0.2978
 2454COC    COC 2454   9.083   7.560   0.673 -0.1802 -0.0465 -0.2996
 2455COC    COC 2455   9.282   7.585   0.456  0.2164  0.0986  0.1253
 2456COC    COC 2456   9.451   7.858   0.387 -0.0051 -0.1076 -0.3291
 2457COC    COC 2457   9.744   7.752   0.388  0.2876 -0.0188  0.5677
 2458COC    COC 2458   9.874   7.899   0.611  0.4001  0.3255  0.3738
 2459COC    COC 2459   9.959   7.707   0.832 -0.5522 -0.2343  0.0022
 2460COC    COC 2460  10.221   7.551   0.772  0.0675  0.0915 -0.0578
 2461COC    COC 2461   0.009   7.627   0.478 -0.0295 -0.2790 -0.0090
 2462COC    COC 2462  10.294   7.378   0.298 -0.3572 -0.0188 -0.1378
 2463COC    COC 2463  10.002   7.326   0.345  0.0372  0.2005  0.2214
 2464COC    COC 2464   9.878   7.350   0.642  0.2850  0.0130  0.3845
 2465COC    COC 2465   9.588   7.455   0.743 -0.1447 -0.3450 -0.1547
 2466COC    COC 2466   9.414   7.496   1.008 -0.1678  0.1785 -0.2816
 2467COC    COC 2467   9.308   7.278   1.168  0.0564  0.0767  0.1451
 2468COC    COC 2468   9.018   7.183   1.121 -0.0904 -0.1578 -0.2432
 2469COC    COC 2469   8.785   7.324   1.225  0.0058 -0.5483 -0.1492
 2470COC    COC 2470   8.683   7.288   1.492  0.2967 -0.0952 -0.0514
 2471COC    COC 2471   8.687   7.054   1.672 -0.7527 -0.0854  0.0958
 2472COC    COC 2472   8.516   6.896   1.888 -0.0030  0.3613 -0.0458
 2473COC    COC 2473   8.422   6.863   2.169 -0.4571 -0.1191  0.3119
 2474COC    COC 2474   8.424   7.028   2.408 -0.4354  0.1837 -0.1418
 2475COC    COC 2475   8.530   7.279   2.461  0.2736 -0.0148 -0.0202
 2476COC    COC 2476   8.637   7.350   2.178  0.0504 -0.0087  0.0227
 2477COC    COC 2477   8.534   7.469   1.893 -0.0018 -0.3129 -0.5086
 2478COC    COC 2478   8.373   7.742   1.837  0.0279  0.2004 -0.0793
 2479COC    COC 2479   8.148   7.778   1.611  0.0358  0.1456 -0.2277
 2480COC    COC 2480   7.884   7.856   1.599 -0.0886  0.0436  0.4395
 2481COC    COC 2481   7.813   7.556   1.563  0.2158  0.1337  0.2723
 2482COC    COC 2482   7.678   7.396   1.792 -0.1954  0.0376  0.1967
 2483COC    COC 2483   7.711   7.105   1.735 -0.2509 -0.0789  0.0203
 2484COH    COH 2484   7.819   7.161   1.490  0.0903 -0.2274 -0.2344
 2485COH    COH 2485   1.957   2.143   3.638  0.0694  0.0024  0.1416
 2486COC    COC 2486   2.107   2.373   3.704 -0.0744 -0.1172  0.1932
 2487COC    COC 2487   2.210   2.527   3.457 -0.2147  0.2780 -0.2965
 2488COC    COC 2488   1.976   2.563   3.237 -0.1078  0.2375 -0.0061
 2489COC    COC 2489   1.841   2.321   3.240 -0.0909 -0.1225 -0.0497
 2490COC    COC 2490   1.629   2.271   3.041 -0.0253 -0.0987 -0.0027
 2491COC    COC 2491   1.667   1.990   2.985  0.0598  0.1599  0.1682
 2492COC    COC 2492   1.495   1.860   2.732 -0.3358 -0.1309 -0.1617
 2493COC    COC 2493   1.574   1.906   2.431 -0.0270 -0.1903  0.0737
 2494COC    COC 2494   1.822   2.038   2.327 -0.1436  0.4332 -0.5063
 2495COC    COC 2495   2.010   2.170   2.502 -0.3758 -0.0227  0.0927
 2496COC    COC 2496   1.963   2.242   2.768 -0.0277 -0.0520 -0.0576
 2497COC    COC 2497   2.216   2.380   2.897  0.0368  0.1151 -0.0995
 2498COC    COC 2498   2.286   2.698   2.896 -0.1577 -0.2792 -0.1406
 2499COC    COC 2499   2.407   2.851   2.672  0.0004 -0.2039  0.1344
 2500COC    COC 2500   2.520   3.124   2.775  0.4258 -0.5970  0.2878
 2501COC    COC 2501   2.474   3.352   2.968 -0.1348 -0.1869  0.1480
 2502COC    COC 2502   2.644   3.301   3.192  0.1520 -0.1479  0.1893
 2503COC    COC 2503   2.654   3.427   3.462 -0.1776 -0.0468 -0.4290
 2504COC    COC 2504   2.682   3.283   3.767 -0.0638 -0.1425  0.2138
 2505COC    COC 2505   2.705   3.090   4.020 -0.1482  0.5192  0.0527
 2506COC    COC 2506   2.428   3.131   4.098  0.2761 -0.0653 -0.0141
 2507COC    COC 2507   2.170   3.047   4.248 -0.0540  0.3155 -0.3226
 2508COC    COC 2508   2.207   2.891   4.501  0.0515  0.0614  0.6494
 2509COC    COC 2509   2.437   2.712   4.449 -0.1009  0.6625 -0.0686
 2510COC    COC 2510   2.714   2.801   4.388 -0.3308  0.1869 -0.4615
 2511COC    COC 2511   2.996   2.678   4.539  0.1914  0.1968 -0.3204
 2512COC    COC 2512   2.981   2.846   4.787  0.0198  0.0885  0.1012
 2513COC    COC 2513   3.225   2.856   4.978  0.3569  0.2379 -0.2382
 2514COC    COC 2514   3.216   2.789   5.281  0.0059 -0.1887  0.0952
 2515COC    COC 2515   3.431   2.618   5.299  0.2048  0.1953  0.1620
 2516COC    COC 2516   3.328   2.357   5.205 -0.0006 -0.1321  0.0478
 2517COC    COC 2517   3.121   2.170   5.286 -0.0694 -0.0848 -0.3078
 2518COC    COC 2518   3.107   1.969   5.129 -0.2145 -0.2386 -0.0278
 2519COC    COC 2519   3.085   1.955   4.858  0.0322 -0.1698 -0.1509
 2520COC    COC 2520   3.306   1.846   4.693  0.0434  0.2264 -0.0024
 2521COC    COC 2521   3.565   1.925   4.538 -0.2257 -0.1581  0.2297
 2522COC    COC 2522   3.561   2.098   4.232 -0.1068 -0.1216  0.0009
 2523COC    COC 2523   3.684   2.335   4.221  0.2157 -0.5259 -0.2338
 2524COC    COC 2524   3.672   2.581   4.042 -0.2123 -0.0636 -0.0993
 2525COC    COC 2525   3.445   2.632   3.870  0.1526  0.2773  0.0644
 2526COC    COC 2526   3.348   2.394   3.741  0.0132  0.0004  0.0579
 2527COC    COC 2527   3.161   2.207   3.848  0.1181  0.1399 -0.0770
 2528COC    COC 2528   3.094   2.052   4.106  0.1200  0.3444  0.1285
 2529COC    COC 2529   3.124   2.071   4.374  0.1704  0.4449 -0.1405
 2530COH    COH 2530   2.925   1.999   4.533  0.0363 -0.4347  0.1710
 2531COH    COH 2531   5.552   6.716   1.741 -0.3357 -0.2190  0.0123
 2532COC    COC 2532   5.284   6.708   1.797  0.1168  0.1385 -0.1333
 2533COC    COC 2533   5.171   6.783   2.051 -0.3050 -0.0229 -0.1798
 2534COC    COC 2534   4.877   6.789   1.976 -0.1732 -0.4515 -0.2774
 2535COC    COC 2535   4.713   7.057   1.922 -0.3262  0.0939  0.3694
 2536COC    COC 2536   4.726   7.326   2.097  0.0520 -0.2519  0.2371
 2537COC    COC 2537   4.797   7.622   2.033  0.1338  0.1262  0.1788
 2538COC    COC 2538   4.896   7.917   1.966 -0.1964  0.0801  0.1340
 2539COC    COC 2539   4.712   8.019   1.727  0.0991 -0.2047 -0.0082
 2540COC    COC 2540   4.754   8.202   1.526  0.1371 -0.2612 -0.0484
 2541COC    COC 2541   4.785   8.504   1.591 -0.2592  0.0332 -0.5761
 2542COC    COC 2542   5.030   8.696   1.659 -0.0654  0.2147 -0.0205
 2543COC    COC 2543   5.232   8.776   1.882 -0.1948  0.0257  0.2583
 2544COC    COC 2544   5.493   8.626   1.963 -0.2954 -0.2543  0.3572
 2545COC    COC 2545   5.718   8.390   2.003 -0.1994  0.1965 -0.1776
 2546COC    COC 2546   5.828   8.256   1.788  0.2883  0.0108 -0.4519
 2547COC    COC 2547   5.619   8.117   1.653 -0.1644  0.1565 -0.4303
 2548COC    COC 2548   5.624   8.042   1.350  0.4591 -0.2875 -0.1200
 2549COC    COC 2549   5.673   8.259   1.148 -0.0739  0.0235  0.2395
 2550COC    COC 2550   5.475   8.385   0.987  0.0004  0.3121  0.2756
 2551COC    COC 2551   5.214   8.406   0.837 -0.1442 -0.0734 -0.0276
 2552COC    COC 2552   5.177   8.202   0.597  0.0780  0.3469 -0.1886
 2553COC    COC 2553   5.093   8.009   0.799 -0.3663  0.5420  0.5468
 2554COC    COC 2554   5.079   8.021   1.124  0.1191  0.2005  0.0702
 2555COC    COC 2555   4.886   7.809   1.295  0.1631  0.1782  0.3167
 2556COC    COC 2556   4.656   7.669   1.156  0.1565  0.0409  0.7429
 2557COC    COC 2557   4.411   7.707   1.298 -0.1774 -0.3827 -0.1377
 2558COC    COC 2558   4.412   7.997   1.370 -0.2802  0.0062  0.0934
 2559COC    COC 2559   4.308   8.004   1.634 -0.0951 -0.1396  0.0610
 2560COC    COC 2560   4.284   7.701   1.707 -0.2077  0.1331 -0.0562
 2561COC    COC 2561   4.281   7.648   1.999 -0.3999 -0.0797 -0.2606
 2562COC    COC 2562   4.273   7.315   2.015 -0.2100  0.0492  0.4415
 2563COC    COC 2563   4.297   7.104   1.783 -0.2859 -0.0813 -0.1980
 2564COC    COC 2564   4.211   7.277   1.567 -0.4953  0.1083  0.1280
 2565COC    COC 2565   4.061   7.491   1.363 -0.1338  0.1115  0.1625
 2566COC    COC 2566   3.925   7.765   1.469  0.2248  0.2074 -0.2360
 2567COC    COC 2567   3.826   7.806   1.749  0.5515  0.0938 -0.2821
 2568COC    COC 2568   3.541   7.917   1.805 -0.6980  0.2263 -0.0291
 2569COC    COC 2569   3.418   8.140   1.686 -0.1844 -0.0366  0.3256
 2570COC    COC 2570   3.375   8.366   1.874 -0.0443  0.3454  0.1886
 2571COC    COC 2571   3.147   8.315   2.084 -0.2493  0.0786  0.0111
 2572COC    COC 2572   3.002   8.576   2.172  0.0244 -0.0141 -0.0064
 2573COC    COC 2573   2.924   8.701   1.940 -0.3109  0.0459 -0.1521
 2574COC    COC 2574   2.981   8.480   1.717  0.0519 -0.1907  0.1230
 2575COC    COC 2575   3.108   8.555   1.462 -0.0521 -0.1101 -0.0458
 2576COH    COH 2576   3.286   8.351   1.430 -0.0422 -0.3454 -0.4982
 2577COH    COH 2577   4.971   0.664   9.826  0.0319 -0.0781 -0.4659
 2578COC    COC 2578   5.025   0.816  10.039  0.1744 -0.1278  0.1183
 2579COC    COC 2579   5.118   0.577  10.250  0.0065 -0.2779 -0.4811
 2580COC    COC 2580   4.942   0.557   0.164  0.0955 -0.0626  0.2522
 2581COC    COC 2581   4.682   0.421   0.069 -0.0169  0.3575  0.0608
 2582COC    COC 2582   4.551   0.646  10.274 -0.1363 -0.0234  0.2192
 2583COC    COC 2583   4.676   0.915   0.028  0.1277  0.1406  0.2760
 2584COC    COC 2584   4.594   1.172   0.169 -0.2352 -0.2638  0.3786
 2585COC    COC 2585   4.433   1.441   0.154  0.1469 -0.0218 -0.2629
 2586COC    COC 2586   4.450   1.487  10.166  0.2549 -0.0879  0.1323
 2587COC    COC 2587   4.208   1.536   9.979  0.2726 -0.0879  0.1086
 2588COC    COC 2588   4.208   1.741   9.755  0.4999 -0.3057 -0.0543
 2589COC    COC 2589   3.974   1.816   9.603  0.1314 -0.1658  0.0642
 2590COC    COC 2590   3.710   1.795   9.762  0.0223  0.1032  0.0719
 2591COC    COC 2591   3.774   1.800  10.078  0.0986 -0.0755  0.1160
 2592COC    COC 2592   3.847   1.958  10.316  0.2007 -0.4091  0.1090
 2593COC    COC 2593   3.663   1.894   0.222 -0.0663  0.2056  0.4199
 2594COC    COC 2594   3.738   1.764   0.464 -0.1366  0.2732 -0.2153
 2595COC    COC 2595   3.573   1.783   0.694  0.0664  0.0243 -0.1010
 2596COC    COC 2596   3.352   2.025   0.638 -0.3245  0.2071 -0.0649
 2597COC    COC 2597   3.131   2.029   0.797  0.1447  0.1486 -0.2276
 2598COC    COC 2598   2.990   2.304   0.893  0.2956 -0.3080  0.0953
 2599COC    COC 2599   2.934   2.579   0.897 -0.2662  0.2329 -0.5154
 2600COC    COC 2600   2.956   2.821   0.764 -0.3229  0.0010  0.2057
 2601COC    COC 2601   2.876   3.133   0.735  0.3917  0.3601  0.2486
 2602COC    COC 2602   2.654   3.244   0.512  0.3564 -0.1683 -0.1511
 2603COC    COC 2603   2.471   3.456   0.628  0.1453  0.1945  0.0149
 2604COC    COC 2604   2.163   3.423   0.673 -0.0001  0.2521 -0.2783
 2605COC    COC 2605   1.885   3.347   0.535  0.1507 -0.1033  0.2009
 2606COC    COC 2606   1.652   3.248   0.740 -0.1613 -0.5347  0.1634
 2607COC    COC 2607   1.539   3.382   0.995 -0.0220 -0.3449 -0.0077
 2608COC    COC 2608   1.442   3.694   0.942 -0.1590  0.2006  0.3164
 2609COC    COC 2609   1.144   3.756   0.860 -0.0056  0.1192  0.1006
 2610COC    COC 2610   1.058   3.507   0.714  0.1368  0.1897 -0.1758
 2611COC    COC 2611   0.966   3.536   0.433  0.2667  0.1549  0.3299
 2612COC    COC 2612   0.744   3.323   0.409 -0.0549 -0.1411  0.2319
 2613COC    COC 2613   0.766   3.026   0.418  0.5006 -0.2518 -0.2438
 2614COC    COC 2614   0.585   2.915   0.222  0.2852 -0.2996 -0.2770
 2615COC    COC 2615   0.297   2.883   0.277 -0.1764  0.2021  0.1465
 2616COC    COC 2616   0.089   2.917   0.073  0.0909  0.1587 -0.1604
 2617COC    COC 2617  10.114   2.885   0.091  0.0180  0.1114  0.4607
 2618COC    COC 2618   9.866   2.994  10.237  0.3902 -0.2182  0.4832
 2619COC    COC 2619   9.691   3.276  10.231 -0.1603 -0.1616  0.1177
 2620COC    COC 2620   9.463   3.271   0.091  0.1481  0.1801  0.1662
 2621COC    COC 2621   9.456   3.435   0.351 -0.1449  0.1241  0.2247
 2622COH    COH 2622   9.258   3.358   0.561  0.2004 -0.0760 -0.1512
 2623COH    COH 2623   3.603   9.774   6.074  0.2971 -0.5782  0.3722
 2624COC    COC 2624   3.585   9.547   6.144 -0.1685 -0.0838  0.1716
 2625COC    COC 2625   3.688   9.479   5.889  0.0177 -0.3766 -0.2726
 2626COC    COC 2626   3.587   9.623   5.634  0.1391  0.0895  0.2560
 2627COC    COC 2627   3.608   9.457   5.364 -0.4696  0.0540  0.3647
 2628COC    COC 2628   3.434   9.542   5.152 -0.0106  0.0885 -0.1703
 2629COC    COC 2629   3.566   9.566   4.882  0.3788 -0.0882 -0.3366
 2630COC    COC 2630   3.867   9.513   4.908  0.3504 -0.3743 -0.1391
 2631COC    COC 2631   4.054   9.468   5.187  0.0345  0.1813  0.3573
 2632COC    COC 2632   4.242   9.243   5.124  0.2131 -0.0224  0.0422
 2633COC    COC 2633   4.218   8.996   5.317 -0.0789  0.6898 -0.2869
 2634COC    COC 2634   4.286   8.697   5.292 -0.2054 -0.3423 -0.7208
 2635COC    COC 2635   4.289   8.513   5.512 -0.2286  0.3067 -0.1392
 2636COC    COC 2636   4.021   8.324   5.466  0.0458 -0.4503 -0.1034
 2637COC    COC 2637   4.153   8.175   5.266 -0.2922  0.1694 -0.3204
 2638COC    COC 2638   4.463   8.172   5.174 -0.1610  0.1268 -0.2144
 2639COC    COC 2639   4.708   8.001   5.049  0.3190  0.4530  0.2853
 2640COC    COC 2640   4.692   7.755   4.841 -0.0399  0.7331  0.2228
 2641COC    COC 2641   4.706   7.781   4.552 -0.3574  0.0934 -0.2534
 2642COC    COC 2642   4.795   8.106   4.490 -0.0026 -0.1305  0.3538
 2643COC    COC 2643   4.738   8.344   4.364  0.7622  0.0194  0.1717
 2644COC    COC 2644   4.514   8.566   4.445  0.4804 -0.0863 -0.3199
 2645COC    COC 2645   4.435   8.678   4.717  0.5779  0.2103 -0.0852
 2646COC    COC 2646   4.227   8.919   4.772 -0.2876  0.0301 -0.0854
 2647COC    COC 2647   4.185   9.201   4.649  0.2508 -0.0010 -0.3539
 2648COC    COC 2648   4.235   9.520   4.619  0.2761  0.0266  0.0589
 2649COC    COC 2649   4.291   9.685   4.876 -0.5348  0.3629 -0.4036
 2650COC    COC 2650   4.286   9.814   5.184  0.0297 -0.5896  0.0544
 2651COC    COC 2651   4.557   9.876   5.256 -0.0662 -0.1469 -0.1002
 2652COC    COC 2652   4.673   9.811   5.521 -0.0510  0.1138 -0.1494
 2653COC    COC 2653   4.639   9.716   5.805 -0.3503 -0.3066  0.1453
 2654COC    COC 2654   4.437   9.474   5.792 -0.4681  0.2876 -0.0141
 2655COC    COC 2655   4.291   9.540   5.538 -0.2109 -0.4673 -0.1237
 2656COC    COC 2656   4.018   9.663   5.640 -0.0694  0.3782 -0.1915
 2657COC    COC 2657   4.107   9.753   5.969 -0.1057  0.2607 -0.1419
 2658COC    COC 2658   3.946  10.013   6.075 -0.0272 -0.1350 -0.2300
 2659COC    COC 2659   3.762  10.069   6.323  0.2745  0.2071 -0.0152
 2660COC    COC 2660   3.721  10.014   6.652  0.1066 -0.1341  0.1442
 2661COC    COC 2661   3.900  10.193   6.841  0.0899  0.2267 -0.2324
 2662COC    COC 2662   4.193  10.132   6.766 -0.1610 -0.1826  0.0667
 2663COC    COC 2663   4.266   9.912   6.943 -0.0154 -0.3139 -0.2273
 2664COC    COC 2664   4.526   9.994   7.088 -0.0565 -0.1341  0.2005
 2665COC    COC 2665   4.606  10.287   7.043 -0.0114 -0.3146 -0.0048
 2666COC    COC 2666   4.406   0.215   6.997 -0.3357 -0.0099 -0.0279
 2667COC    COC 2667   4.317   0.464   7.153  0.1130  0.0364  0.3218
 2668COH    COH 2668   4.219   0.383   7.390  0.0413  0.0573 -0.0400
 2669COH    COH 2669   6.535   4.295   5.918  0.1020  0.6935  0.0856
 2670COC    COC 2670   6.302   4.179   5.827  0.0359  0.3055  0.4023
 2671COC    COC 2671   6.221   4.141   5.503 -0.3321  0.0102 -0.2837
 2672COC    COC 2672   6.364   4.042   5.237 -0.1431  0.0589 -0.0530
 2673COC    COC 2673   6.670   4.103   5.182  0.0624 -0.4149 -0.0128
 2674COC    COC 2674   6.953   4.045   5.250  0.5553  0.1743 -0.0143
 2675COC    COC 2675   7.018   3.803   5.067 -0.3854 -0.1315 -0.2820
 2676COC    COC 2676   7.094   3.891   4.798  0.2267 -0.2583  0.0369
 2677COC    COC 2677   7.260   3.732   4.637  0.4560 -0.1465  0.1702
 2678COC    COC 2678   7.490   3.907   4.595 -0.2326 -0.0545 -0.0183
 2679COC    COC 2679   7.768   3.778   4.626  0.5473 -0.2305 -0.0180
 2680COC    COC 2680   7.977   3.674   4.434  0.0219  0.2001 -0.1625
 2681COC    COC 2681   8.030   3.790   4.195 -0.0470 -0.1260  0.1273
 2682COC    COC 2682   7.892   4.098   4.184 -0.1924 -0.1256  0.3604
 2683COC    COC 2683   7.782   4.323   4.003  0.4020  0.0455  0.4238
 2684COC    COC 2684   7.785   4.411   3.681 -0.1766 -0.1310  0.0918
 2685COC    COC 2685   7.671   4.277   3.431 -0.0421 -0.1142 -0.4957
 2686COC    COC 2686   7.943   4.182   3.350  0.3579  0.2937 -0.0164
 2687COC    COC 2687   8.002   4.176   3.082 -0.2648  0.0509  0.1961
 2688COC    COC 2688   7.943   4.350   2.860  0.0630 -0.4203  0.1465
 2689COC    COC 2689   8.048   4.634   2.906  0.0535 -0.3282 -0.3467
 2690COC    COC 2690   7.929   4.914   2.894 -0.3453  0.0860 -0.0819
 2691COC    COC 2691   8.200   5.112   2.827 -0.0800 -0.3904 -0.1494
 2692COC    COC 2692   8.275   5.374   2.926  0.3257  0.3032 -0.3087
 2693COC    COC 2693   8.016   5.523   2.994 -0.3094 -0.3575 -0.1617
 2694COC    COC 2694   7.982   5.672   3.261  0.3200  0.0391  0.1357
 2695COC    COC 2695   8.101   5.730   3.535 -0.4804 -0.0867 -0.4908
 2696COC    COC 2696   8.299   5.749   3.777  0.2548  0.1652  0.0946
 2697COC    COC 2697   8.596   5.714   3.737  0.1786 -0.0915  0.1383
 2698COC    COC 2698   8.797   5.510   3.740  0.1398  0.0479 -0.0523
 2699COC    COC 2699   8.778   5.352   4.032  0.1632  0.0645  0.1668
 2700COC    COC 2700   8.982   5.110   4.050  0.4824 -0.1888  0.1659
 2701COC    COC 2701   8.815   4.874   4.137  0.1816 -0.0597 -0.1013
 2702COC    COC 2702   8.538   4.800   4.280 -0.4135  0.3445  0.0025
 2703COC    COC 2703   8.472   4.498   4.332 -0.2673 -0.1530  0.0842
 2704COC    COC 2704   8.762   4.370   4.347  0.1849 -0.6353 -0.2149
 2705COC    COC 2705   8.847   4.223   4.612 -0.6010 -0.0238  0.3192
 2706COC    COC 2706   9.147   4.350   4.708  0.0049 -0.0735 -0.0616
 2707COC    COC 2707   9.229   4.540   4.979 -0.0255  0.0493 -0.0308
 2708COC    COC 2708   9.501   4.521   5.063  0.2331 -0.2072  0.5651
 2709COC    COC 2709   9.560   4.257   4.891 -0.0162  0.2017  0.1046
 2710COC    COC 2710   9.748   4.298   4.642 -0.0419 -0.1848 -0.1641
 2711COC    COC 2711   9.866   4.071   4.525 -0.0381  0.0452  0.2663
 2712COC    COC 2712   9.889   4.052   4.205 -0.2324  0.4393 -0.1470
 2713COC    COC 2713  10.163   3.961   4.129  0.2773 -0.2468 -0.2104
 2714COH    COH 2714  10.264   3.894   4.332 -0.3957  0.2078  0.0716
 2715COH    COH 2715   5.838   4.772   5.956  0.0955 -0.2241 -0.2531
 2716COC    COC 2716   5.849   4.960   5.771 -0.1679 -0.1549 -0.2176
 2717COC    COC 2717   5.821   4.753   5.524 -0.2902  0.0631 -0.2627
 2718COC    COC 2718   5.588   4.623   5.410  0.0100 -0.2043 -0.3908
 2719COC    COC 2719   5.455   4.388   5.358  0.0602  0.1394 -0.1965
 2720COC    COC 2720   5.588   4.123   5.265  0.2741 -0.1781 -0.1689
 2721COC    COC 2721   5.406   3.904   5.190  0.1791  0.2877  0.0457
 2722COC    COC 2722   5.457   3.633   5.077  0.0963  0.2326 -0.3140
 2723COC    COC 2723   5.269   3.408   5.063 -0.0636  0.1774  0.0553
 2724COC    COC 2724   4.996   3.452   4.924 -0.0531  0.0924  0.2020
 2725COC    COC 2725   4.991   3.516   4.610  0.5603 -0.0522 -0.2129
 2726COC    COC 2726   5.136   3.335   4.469 -0.1190  0.3443 -0.0664
 2727COC    COC 2727   5.373   3.378   4.278 -0.3103  0.2194  0.1666
 2728COC    COC 2728   5.442   3.651   4.221  0.4075 -0.4569 -0.2253
 2729COC    COC 2729   5.192   3.796   4.293  0.3164  0.3138 -0.2078
 2730COC    COC 2730   5.060   4.058   4.159 -0.1077 -0.0509 -0.3439
 2731COC    COC 2731   5.204   4.000   3.905  0.3120 -0.5839 -0.5578
 2732COC    COC 2732   5.495   4.042   3.834 -0.3022  0.2847 -0.1703
 2733COC    COC 2733   5.534   4.266   3.641 -0.3093  0.2734  0.4389
 2734COC    COC 2734   5.253   4.194   3.518 -0.3580  0.1764  0.1537
 2735COC    COC 2735   5.068   3.920   3.390  0.0833  0.4083  0.1796
 2736COC    COC 2736   4.898   3.802   3.152 -0.1342 -0.2899 -0.2559
 2737COC    COC 2737   4.931   3.546   3.038 -0.1359  0.3574 -0.3494
 2738COC    COC 2738   5.106   3.610   2.778  0.0028  0.2801 -0.4061
 2739COC    COC 2739   5.194   3.524   2.509 -0.3398  0.1489  0.0617
 2740COC    COC 2740   5.396   3.472   2.287  0.2902 -0.1614  0.1956
 2741COC    COC 2741   5.561   3.608   2.061 -0.4267 -0.2570  0.0374
 2742COC    COC 2742   5.853   3.693   2.095  0.0622  0.0272 -0.0171
 2743COC    COC 2743   5.927   3.777   2.401  0.4186  0.0681 -0.4151
 2744COC    COC 2744   6.052   3.536   2.594  0.2145  0.1544  0.0562
 2745COC    COC 2745   6.135   3.495   2.897 -0.1248 -0.5022  0.5266
 2746COC    COC 2746   6.056   3.239   2.958  0.0387  0.1960 -0.1387
 2747COC    COC 2747   6.064   3.042   3.210 -0.0419 -0.1720 -0.0041
 2748COC    COC 2748   5.920   3.047   3.459  0.2218  0.0339 -0.1280
 2749COC    COC 2749   5.653   3.211   3.522  0.0311 -0.3521 -0.2647
 2750COC    COC 2750   5.403   3.050   3.575  0.2671 -0.0831  0.0054
 2751COC    COC 2751   5.171   3.183   3.708 -0.2595 -0.2630 -0.0760
 2752COC    COC 2752   5.169   3.398   3.920 -0.3106  0.0055 -0.0101
 2753COC    COC 2753   4.875   3.463   4.078  0.2793  0.5525 -0.0569
 2754COC    COC 2754   4.592   3.523   4.157  0.4276 -0.1989  0.2979
 2755COC    COC 2755   4.474   3.501   3.886 -0.0908  0.3822  0.0227
 2756COC    COC 2756   4.411   3.688   3.636 -0.1445 -0.2585  0.2477
 2757COC    COC 2757   4.321   3.985   3.698  0.0639 -0.4547 -0.2389
 2758COC    COC 2758   4.175   4.259   3.816 -0.1595 -0.0914 -0.3876
 2759COC    COC 2759   4.265   4.453   3.990 -0.1110 -0.6334 -0.1316
 2760COH    COH 2760   4.354   4.568   4.237 -0.2297  0.8359  0.2541
 2761NCO    NCO 2761   0.431  10.315   6.906  0.4189 -0.0415 -0.0708
 2762CC1    CC1 2762   0.248  10.076   6.715  0.0278  0.0042  0.5115
 2763CC1    CC1 2763   0.410   9.876   6.669 -0.2515  0.2447  0.3507
 2764NCC    NCC 2764   0.620   9.646   6.656 -0.4060  0.2115 -0.1949
 2765CONH  CONH 2765   0.937   9.628   6.752  0.3676  0.0872 -0.1519
 2766CC1    CC1 2766   1.021   9.499   6.977 -0.0662 -0.0858 -0.1138
 2767CC1    CC1 2767   0.879   9.379   7.120  0.0531 -0.2414  0.2254
 2768CC1    CC1 2768   0.744   9.371   7.340 -0.2367  0.0584  0.1852
 2769NCO    NCO 2769   0.922   9.376   7.609  0.0723  0.2641 -0.1276
 2770CONH  CONH 2770   0.698   9.364   6.510  0.2016 -0.2120  0.4228
 2771CC1    CC1 2771   0.907   9.222   6.651 -0.2834  0.1870  0.0445
 2772CC1    CC1 2772   0.861   9.153   6.868  0.0242 -0.7434 -0.0734
 2773CC1    CC1 2773   0.772   9.065   7.044 -0.1976  0.3181  0.0958
 2774NCO    NCO 2774   0.929   8.964   7.269  0.5245 -0.5133 -0.4690
 2775NCO    NCO 2775   6.347   7.792   9.114  0.0560  0.0489  0.1759
 2776CC1    CC1 2776   6.145   7.564   9.024 -0.0744 -0.3462 -0.3761
 2777CC1    CC1 2777   5.940   7.513   8.963  0.1016  0.0455  0.1238
 2778NCC    NCC 2778   5.683   7.475   8.847 -0.0487 -0.2667  0.2097
 2779CONH  CONH 2779   5.373   7.455   8.936 -0.2254  0.1784 -0.0965
 2780CC1    CC1 2780   5.263   7.212   8.949  0.0605 -0.2881  0.2176
 2781CC1    CC1 2781   5.335   7.060   9.113 -0.3514  0.2155 -0.2714
 2782CC1    CC1 2782   5.361   6.795   9.190 -0.4121 -0.5470 -0.2257
 2783NCO    NCO 2783   5.125   6.784   9.382  0.0253  0.4588 -0.1120
 2784CONH  CONH 2784   5.613   7.331   8.581 -0.2151 -0.0278 -0.0335
 2785CC1    CC1 2785   5.655   7.074   8.559 -0.1692  0.0584 -0.1863
 2786CC1    CC1 2786   5.599   6.939   8.709  0.5104  0.3647 -0.2738
 2787CC1    CC1 2787   5.593   6.805   8.898  0.3058 -0.0386 -0.1756
 2788NCO    NCO 2788   5.816   6.816   9.111 -0.0808 -0.1163 -0.4722
 2789NCO    NCO 2789   8.368   5.413   1.763 -0.1714  0.2841 -0.1003
 2790CC1    CC1 2790   8.265   5.647   1.823  0.1612  0.0421 -0.2119
 2791CC1    CC1 2791   8.333   5.820   1.959 -0.1383  0.9075 -0.3193
 2792NCC    NCC 2792   8.417   5.933   2.209  0.3152 -0.3809  0.5163
 2793CONH  CONH 2793   8.376   5.805   2.518  0.0209  0.2537 -0.0384
 2794CC1    CC1 2794   8.521   5.573   2.615 -0.2835 -0.0842 -0.2356
 2795CC1    CC1 2795   8.607   5.367   2.536  0.0501  0.2040 -0.0845
 2796CC1    CC1 2796   8.700   5.176   2.468 -0.2147  0.3415  0.1753
 2797NCO    NCO 2797   8.951   5.145   2.532 -0.3742  0.1389 -0.0306
 2798CONH  CONH 2798   8.667   6.042   2.336 -0.1461  0.0258 -0.1687
 2799CC1    CC1 2799   8.879   6.205   2.176  0.2500 -0.0460  0.2086
 2800CC1    CC1 2800   9.019   6.269   2.299 -0.3697  0.1051 -0.0751
 2801CC1    CC1 2801   9.216   6.219   2.418 -0.0882 -0.0136 -0.1196
 2802NCO    NCO 2802   9.304   5.947   2.477 -0.6994 -0.2132  0.2317
 2803NCO    NCO 2803   9.015   8.883   1.853  0.1235  0.4645  0.2581
 2804CC1    CC1 2804   9.002   9.190   1.782 -0.1117  0.1693  0.0751
 2805CC1    CC1 2805   8.787   9.306   1.734 -0.2106 -0.4134 -0.0389
 2806NCC    NCC 2806   8.545   9.424   1.710  0.0174  0.2127  0.2343
 2807CONH  CONH 2807   8.461   9.746   1.669  0.1794  0.0968  0.1490
 2808CC1    CC1 2808   8.491   9.928   1.890  0.0919  0.5397 -0.1588
 2809CC1    CC1 2809   8.612  10.059   1.891  0.6545  0.4938 -0.1919
 2810CC1    CC1 2810   8.805  10.183   1.953 -0.2382  0.1180  0.2254
 2811NCO    NCO 2811   8.697   0.144   2.099 -0.2794  0.0176  0.2718
 2812CONH  CONH 2812   8.277   9.414   1.881 -0.0676 -0.1539 -0.0173
 2813CC1    CC1 2813   8.087   9.589   1.883  0.1900  0.2489 -0.0793
 2814CC1    CC1 2814   8.095   9.823   1.809 -0.2023  0.0884 -0.4872
 2815CC1    CC1 2815   8.093  10.021   1.797 -0.6554  0.0723 -0.1382
 2816NCO    NCO 2816   7.885  10.245   1.774  0.0923 -0.1811 -0.3669
 2817NCO    NCO 2817   8.950   4.536   1.666  0.0110 -0.1674 -0.1117
 2818CC1    CC1 2818   8.978   4.849   1.795  0.4930  0.1593  0.3078
 2819CC1    CC1 2819   8.868   5.091   1.833 -0.4347 -0.0161  0.1505
 2820NCC    NCC 2820   8.912   5.348   1.952  0.0493 -0.5616  0.1388
 2821CONH  CONH 2821   8.695   5.544   2.086  0.0076  0.1458  0.1136
 2822CC1    CC1 2822   8.745   5.781   2.077 -0.0985 -0.1744 -0.4954
 2823CC1    CC1 2823   8.692   5.976   1.943 -0.2434  0.4548 -0.0431
 2824CC1    CC1 2824   8.600   6.168   1.800  0.2260  0.5224  0.0629
 2825NCO    NCO 2825   8.620   6.483   1.912  0.2687 -0.1488  0.0352
 2826CONH  CONH 2826   9.128   5.569   2.103  0.1953 -0.1531  0.2617
 2827CC1    CC1 2827   9.068   5.839   2.194 -0.2222  0.2631 -0.0639
 2828CC1    CC1 2828   9.179   6.008   2.109 -0.1274 -0.1423  0.0639
 2829CC1    CC1 2829   9.383   6.142   2.035 -0.2088  0.1550 -0.3841
 2830NCO    NCO 2830   9.456   6.413   2.125  0.2180  0.0198 -0.0009
 2831NCO    NCO 2831   4.921  10.132   0.984 -0.2161 -0.3507  0.0729
 2832CC1    CC1 2832   4.691   0.002   0.949 -0.0040 -0.0489 -0.3501
 2833CC1    CC1 2833   4.829   0.167   0.779  0.3696 -0.2175  0.1149
 2834NCC    NCC 2834   4.986   0.357   0.663 -0.1170  0.4851 -0.0864
 2835CONH  CONH 2835   5.265   0.383   0.498 -0.1265 -0.0561 -0.0447
 2836CC1    CC1 2836   5.354   0.625   0.354  0.3020  0.1872  0.3696
 2837CC1    CC1 2837   5.473   0.566   0.135  0.3670  0.1213 -0.0693
 2838CC1    CC1 2838   5.613   0.644  10.275 -0.3143 -0.2929  0.6173
 2839NCO    NCO 2839   5.850   0.521  10.232  0.0149  0.0916 -0.0527
 2840CONH  CONH 2840   4.927   0.657   0.634  0.0027  0.2357  0.3879
 2841CC1    CC1 2841   4.781   0.746   0.425 -0.2672  0.0158 -0.2708
 2842CC1    CC1 2842   4.942   0.912   0.300 -0.1589 -0.3310 -0.2408
 2843CC1    CC1 2843   4.993   1.128   0.174 -0.1350  0.7775 -0.2610
 2844NCO    NCO 2844   5.108   1.146  10.255 -0.1506 -0.2162 -0.1592
 2845NCO    NCO 2845   5.573   1.271   8.975  0.0218  0.2828 -0.1547
 2846CC1    CC1 2846   5.336   1.255   8.847  0.0490  0.4832 -0.2695
 2847CC1    CC1 2847   5.390   1.357   8.652  0.1857  0.2363 -0.1046
 2848NCC    NCC 2848   5.294   1.434   8.397 -0.1020 -0.0448  0.1715
 2849CONH  CONH 2849   5.251   1.698   8.177 -0.2656  0.0174  0.6144
 2850CC1    CC1 2850   5.014   1.875   8.197 -0.0524  0.4037  0.1246
 2851CC1    CC1 2851   4.874   1.808   8.380  0.4211 -0.1414 -0.2953
 2852CC1    CC1 2852   4.681   1.821   8.565 -0.3276  0.1269 -0.0439
 2853NCO    NCO 2853   4.575   2.043   8.725  0.0331 -0.0350 -0.2165
 2854CONH  CONH 2854   5.056   1.313   8.221 -0.0869  0.6050 -0.1045
 2855CC1    CC1 2855   4.934   1.432   8.086  0.0667 -0.3707  1.1345
 2856CC1    CC1 2856   4.805   1.583   8.136  0.1410 -0.5991  0.2377
 2857CC1    CC1 2857   4.618   1.671   8.160 -0.7097  0.1048 -0.2973
 2858NCO    NCO 2858   4.441   1.793   7.932  0.1784 -0.4395  0.3279
 2859NCO    NCO 2859   5.045   1.404   9.941 -0.3697 -0.3662  0.3713
 2860CC1    CC1 2860   4.821   1.527   9.846  0.0934 -0.3539 -0.1788
 2861CC1    CC1 2861   4.776   1.483   9.624 -0.1405  0.7954  0.0308
 2862NCC    NCC 2862   4.848   1.433   9.385 -0.0625 -0.0445  0.2937
 2863CONH  CONH 2863   5.005   1.600   9.153 -0.1399  0.3749 -0.3893
 2864CC1    CC1 2864   5.274   1.670   9.214  0.0144 -0.0313  0.2217
 2865CC1    CC1 2865   5.448   1.708   9.043  0.2440 -0.4920 -0.1289
 2866CC1    CC1 2866   5.668   1.727   8.971 -0.0033 -0.0507  0.3593
 2867NCO    NCO 2867   5.754   1.616   8.724  0.2342 -0.0752  0.1189
 2868CONH  CONH 2868   4.798   1.238   9.167  0.0914  0.3812  0.0062
 2869CC1    CC1 2869   4.974   1.204   8.927  0.2537 -0.3038 -0.1214
 2870CC1    CC1 2870   4.966   1.324   8.751 -0.0158 -0.6512  0.2749
 2871CC1    CC1 2871   4.904   1.529   8.624  0.3579 -0.0187  0.0424
 2872NCO    NCO 2872   5.157   1.710   8.655  0.1207 -0.1917 -0.1780
 2873NCO    NCO 2873   8.789   9.710   2.176 -0.1648 -0.3814  0.2933
 2874CC1    CC1 2874   8.850   9.648   1.904  0.0403 -0.3172  0.0077
 2875CC1    CC1 2875   8.931   9.847   1.752  0.2777 -0.4363 -0.1440
 2876NCC    NCC 2876   8.984  10.065   1.598 -0.0039 -0.0671  0.1755
 2877CONH  CONH 2877   9.071  10.110   1.253  0.0171  0.2914 -0.1776
 2878CC1    CC1 2878   9.140   0.029   1.137  0.1180  0.1804  0.5982
 2879CC1    CC1 2879   9.347   0.059   1.112 -0.0454 -0.2804  0.2246
 2880CC1    CC1 2880   9.548   0.108   0.986  0.0814 -0.1549 -0.1455
 2881NCO    NCO 2881   9.695  10.174   1.013  0.1385  0.0471  0.2928
 2882CONH  CONH 2882   8.857   0.032   1.580  0.0373  0.0235 -0.0982
 2883CC1    CC1 2883   8.591   0.058   1.681 -0.2815  0.2217 -0.4042
 2884CC1    CC1 2884   8.408   0.175   1.604  0.6189  0.1544 -0.1865
 2885CC1    CC1 2885   8.245   0.351   1.546  0.0373  0.0637  0.8147
 2886NCO    NCO 2886   8.067   0.465   1.751 -0.0200  0.2258 -0.0338
 2887NCO    NCO 2887   2.135   7.205   0.012  0.0717  0.0165  0.0017
 2888CC1    CC1 2888   2.205   6.940  10.322 -0.1594 -0.3207 -0.1227
 2889CC1    CC1 2889   2.157   6.864  10.109  0.2015 -0.0614  0.5569
 2890NCC    NCC 2890   1.965   6.745   9.969  0.4178 -0.2579 -0.1815
 2891CONH  CONH 2891   1.929   6.434   9.869  0.2979 -0.2855  0.0238
 2892CC1    CC1 2892   2.114   6.320   9.843  0.2735  0.1349  0.0556
 2893CC1    CC1 2893   2.195   6.281   9.600 -0.0544 -0.0788  0.2966
 2894CC1    CC1 2894   2.280   6.334   9.405  0.0704 -0.2937  0.2181
 2895NCO    NCO 2895   2.171   6.457   9.230 -0.0444 -0.0475  0.1134
 2896CONH  CONH 2896   1.816   6.805   9.710 -0.2005 -0.1966 -0.2615
 2897CC1    CC1 2897   1.942   6.856   9.472  0.1988  0.2337 -0.0695
 2898CC1    CC1 2898   2.062   7.081   9.463 -0.0906  0.3302  0.1777
 2899CC1    CC1 2899   2.079   7.292   9.416 -0.6732 -0.3324  0.2151
 2900NCO    NCO 2900   1.896   7.478   9.204  0.0727 -0.1831 -0.0609
 2901NCO    NCO 2901   9.816   9.164   5.799 -0.0870  0.0763 -0.3421
 2902CC1    CC1 2902   9.935   8.970   5.971  0.0239 -0.2389 -0.2694
 2903CC1    CC1 2903  10.062   8.813   5.925  0.0739 -0.3443 -0.0551
 2904NCC    NCC 2904  10.184   8.561   5.891  0.2501 -0.1095 -0.0977
 2905CONH  CONH 2905   0.050   8.386   6.097  0.3439  0.0500  0.1633
 2906CC1    CC1 2906   0.267   8.301   6.040  0.0772 -0.0905  0.1602
 2907CC1    CC1 2907   0.375   8.170   5.899 -0.0735 -0.2712  0.0798
 2908CC1    CC1 2908   0.522   8.120   5.720 -0.1594 -0.1796 -0.1045
 2909NCO    NCO 2909   0.377   8.091   5.486  0.8567  0.3841 -0.0636
 2910CONH  CONH 2910   0.068   8.411   5.688  0.1434 -0.1575  0.1630
 2911CC1    CC1 2911   0.223   8.565   5.530 -0.0971  0.6508  0.2599
 2912CC1    CC1 2912   0.241   8.838   5.497  0.3268 -0.4017  0.0775
 2913CC1    CC1 2913   0.228   9.075   5.440 -0.3398  0.2435 -0.4671
 2914NCO    NCO 2914   0.425   9.215   5.656 -0.3866  0.1138  0.5082
 2915NCO    NCO 2915   4.997   0.349   9.879 -0.4369  0.0792  0.0443
 2916CC1    CC1 2916   4.832   0.054   9.883  0.1298  0.0914  0.2620
 2917CC1    CC1 2917   4.728   0.029   9.651 -0.0206 -0.3971  0.3028
 2918NCC    NCC 2918   4.703   0.095   9.435 -0.2126  0.3220  0.2454
 2919CONH  CONH 2919   4.503   0.293   9.292 -0.0198 -0.1976  0.5841
 2920CC1    CC1 2920   4.187   0.310   9.347  0.0071 -0.0026 -0.6980
 2921CC1    CC1 2921   4.067   0.458   9.219  0.0479 -0.3239  0.0020
 2922CC1    CC1 2922   3.945   0.542   9.015  0.8261 -0.0961 -0.0339
 2923NCO    NCO 2923   3.746   0.359   9.079  0.4484 -0.1675  0.2220
 2924CONH  CONH 2924   4.865   0.070   9.169 -0.2498 -0.0374 -0.1376
 2925CC1    CC1 2925   4.771   0.172   8.935  0.1926 -0.1907  0.2928
 2926CC1    CC1 2926   4.568   0.079   8.903 -0.2656  0.0211 -0.1652
 2927CC1    CC1 2927   4.405  10.249   8.970  0.4453 -0.3092 -0.1148
 2928NCO    NCO 2928   4.399   9.957   8.902  0.0758  0.0198  0.3821
 2929NCO    NCO 2929   8.075   7.076   1.412 -0.3898  0.0403  0.2018
 2930CC1    CC1 2930   8.249   6.832   1.561 -0.2103 -0.0577 -0.5442
 2931CC1    CC1 2931   8.225   6.706   1.769 -0.1764 -0.3453 -0.2721
 2932NCC    NCC 2932   8.177   6.483   1.902  0.3581  0.0929  0.2105
 2933CONH  CONH 2933   8.295   6.375   2.190  0.4653 -0.1293 -0.4018
 2934CC1    CC1 2934   8.172   6.303   2.387  0.1166 -0.0144 -0.5139
 2935CC1    CC1 2935   8.038   6.076   2.444 -0.1345 -0.1786 -0.1995
 2936CC1    CC1 2936   7.935   5.918   2.586  0.1419 -0.1356 -0.1329
 2937NCO    NCO 2937   7.994   6.010   2.865 -0.0544 -0.6428  0.2359
 2938CONH  CONH 2938   8.207   6.175   1.873  0.0965  0.1509  0.6155
 2939CC1    CC1 2939   7.980   5.988   1.951 -0.0330 -0.2448 -0.1297
 2940CC1    CC1 2940   7.844   5.945   2.149 -0.5532  0.0494 -0.2266
 2941CC1    CC1 2941   7.642   5.982   2.295 -0.1341  0.4197  0.2975
 2942NCO    NCO 2942   7.419   6.108   2.265 -0.1038 -0.0170 -0.0466
 2943NCO    NCO 2943   8.922   6.716   0.882 -0.4786  0.0366  0.2266
 2944CC1    CC1 2944   9.114   6.549   0.879 -0.1907 -0.0683  0.0444
 2945CC1    CC1 2945   9.125   6.316   0.866  0.0139  0.3187 -0.4381
 2946NCC    NCC 2946   9.119   6.036   0.976 -0.1178 -0.3187 -0.2047
 2947CONH  CONH 2947   9.177   5.911   1.252  0.0225 -0.0616  0.2605
 2948CC1    CC1 2948   9.202   6.079   1.433  0.0593  0.3072 -0.5724
 2949CC1    CC1 2949   9.025   6.250   1.525  0.3939  0.0862  0.2663
 2950CC1    CC1 2950   8.812   6.359   1.548  0.0356 -0.4493  0.1482
 2951NCO    NCO 2951   8.809   6.647   1.568  0.4316  0.0645  0.1861
 2952CONH  CONH 2952   8.953   5.759   0.919  0.0835 -0.3409  0.0266
 2953CC1    CC1 2953   8.880   5.567   1.129  0.3094 -0.1856 -0.2126
 2954CC1    CC1 2954   8.990   5.392   1.209  0.1712  0.0913  0.2252
 2955CC1    CC1 2955   9.045   5.201   1.334 -0.0930 -0.0152 -1.0249
 2956NCO    NCO 2956   9.177   5.046   1.549 -0.3028 -0.1992 -0.1064
 2957NCO    NCO 2957   5.357   0.467   8.924 -0.3250  0.2287  0.1489
 2958CC1    CC1 2958   5.160   0.404   8.722 -0.0236 -0.0474  0.2613
 2959CC1    CC1 2959   5.117   0.152   8.730 -0.4652 -0.0169 -0.0333
 2960NCC    NCC 2960   5.036  10.258   8.725 -0.0247  0.0500 -0.1072
 2961CONH  CONH 2961   4.762  10.112   8.728  0.1115 -0.0322  0.0872
 2962CC1    CC1 2962   4.574  10.216   8.541  0.0078  0.3239  0.0053
 2963CC1    CC1 2963   4.352  10.153   8.584  0.0792 -0.1487  0.0356
 2964CC1    CC1 2964   4.109  10.153   8.625 -0.0118 -0.0924 -0.3310
 2965NCO    NCO 2965   3.968   9.937   8.820  0.1527 -0.4589 -0.0757
 2966CONH  CONH 2966   5.078  10.032   8.954 -0.1082 -0.0095 -0.2685
 2967CC1    CC1 2967   5.287   9.925   9.037  0.0302 -0.1462  0.3268
 2968CC1    CC1 2968   5.462   9.913   8.922 -0.0497 -0.0795 -0.2661
 2969CC1    CC1 2969   5.698   9.939   8.876 -0.0536  0.2938  0.1261
 2970NCO    NCO 2970   5.791   9.696   8.739 -0.1424 -0.3011  0.2120
 2971NCO    NCO 2971   5.404   0.885   9.077  0.1163  0.1050 -0.4671
 2972CC1    CC1 2972   5.136   0.946   9.060  0.3647 -0.1085 -0.1917
 2973CC1    CC1 2973   4.888   0.866   9.127  0.0997  0.0532 -0.0630
 2974NCC    NCC 2974   4.610   0.815   9.131 -0.2406  0.2039  0.0167
 2975CONH  CONH 2975   4.426   0.662   8.922 -0.0090  0.2794 -0.1704
 2976CC1    CC1 2976   4.453   0.432   8.846  0.3321  0.2515 -0.4772
 2977CC1    CC1 2977   4.284   0.302   8.922 -0.2693 -0.0431  0.2660
 2978CC1    CC1 2978   4.109   0.109   8.888  0.0233 -0.4224 -0.5824
 2979NCO    NCO 2979   4.009   0.006   9.112  0.1886  0.0896  0.3289
 2980CONH  CONH 2980   4.382   0.733   9.331 -0.1272  0.2175 -0.2503
 2981CC1    CC1 2981   4.286   0.870   9.475  0.0209 -0.1407 -0.5615
 2982CC1    CC1 2982   4.058   0.796   9.548 -0.0643  0.4031  0.2825
 2983CC1    CC1 2983   3.859   0.727   9.637 -0.0479  0.3066  0.2108
 2984NCO    NCO 2984   3.722   0.651   9.449  0.2718  0.0061  0.1168
 2985NCO    NCO 2985   2.548   7.241   9.011 -0.1359 -0.0438  0.0186
 2986CC1    CC1 2986   2.376   7.414   9.162 -0.1262  0.1417  0.2447
 2987CC1    CC1 2987   2.260   7.552   8.998 -0.3091 -0.0938  0.2779
 2988NCC    NCC 2988   2.112   7.669   8.789  0.2672  0.2177 -0.0664
 2989CONH  CONH 2989   2.192   7.870   8.545 -0.0870 -0.0819  0.3034
 2990CC1    CC1 2990   2.350   7.738   8.341 -0.0542 -0.2492  0.0952
 2991CC1    CC1 2991   2.375   7.795   8.115 -0.5517 -0.0170  0.0627
 2992CC1    CC1 2992   2.517   7.888   7.924  0.2979  0.1992 -0.2374
 2993NCO    NCO 2993   2.696   7.634   7.850  0.0134 -0.2325 -0.5226
 2994CONH  CONH 2994   1.869   7.853   8.758  0.0004 -0.3151  0.0521
 2995CC1    CC1 2995   1.799   7.860   8.487  0.0662 -0.2644 -0.1622
 2996CC1    CC1 2996   1.797   7.678   8.382 -0.0257 -0.3540 -0.1593
 2997CC1    CC1 2997   1.770   7.543   8.157 -0.2313 -0.0202 -0.3132
 2998NCO    NCO 2998   1.927   7.299   8.119 -0.1277  0.0530 -0.1425
 2999NCO    NCO 2999   2.839   2.265   4.638  0.3846 -0.0399  0.0631
 3000CC1    CC1 3000   2.613   2.427   4.647 -0.4524  0.1231  0.4455
 3001CC1    CC1 3001   2.426   2.325   4.513 -0.3484 -0.0532 -0.5619
 3002NCC    NCC 3002   2.176   2.284   4.448 -0.1291 -0.1768 -0.2122
 3003CONH  CONH 3003   1.923   2.490   4.401  0.3327  0.0816  0.1598
 3004CC1    CC1 3004   1.943   2.725   4.267 -0.5879 -0.5444  0.0723
 3005CC1    CC1 3005   1.760   2.880   4.316  0.0315 -0.1027 -0.5980
 3006CC1    CC1 3006   1.655   3.044   4.490 -0.2702  0.0929 -0.1037
 3007NCO    NCO 3007   1.596   3.263   4.349 -0.2079  0.1171  0.1350
 3008CONH  CONH 3008   1.976   2.116   4.605 -0.1640  0.0485 -0.1603
 3009CC1    CC1 3009   2.045   1.975   4.843 -0.0209  0.3941  0.2156
 3010CC1    CC1 3010   2.055   2.086   5.029 -0.4911 -0.1748 -0.1749
 3011CC1    CC1 3011   2.022   2.152   5.249 -0.3037 -0.0068 -0.0724
 3012NCO    NCO 3012   1.900   2.394   5.239 -0.7972 -0.3158 -0.2168
 3013NCO    NCO 3013   9.623   0.382   2.541 -0.0178  0.0220 -0.2619
 3014CC1    CC1 3014   9.609   0.414   2.272  0.3064  0.0513 -0.4602
 3015CC1    CC1 3015   9.684   0.351   2.077  0.3492  0.4417  0.3285
 3016NCC    NCC 3016   9.656   0.223   1.834 -0.1305 -0.1194  0.3963
 3017CONH  CONH 3017   9.385   0.159   1.714 -0.1291 -0.3634  0.0959
 3018CC1    CC1 3018   9.323   0.068   1.474 -0.2421 -0.3949 -0.4734
 3019CC1    CC1 3019   9.463  10.223   1.420  0.4893 -0.6521  0.0364
 3020CC1    CC1 3020   9.486  10.004   1.341 -0.0683  0.1350 -0.5234
 3021NCO    NCO 3021   9.435   9.821   1.573 -0.3832  0.0124  0.1714
 3022CONH  CONH 3022   9.731   0.298   1.526 -0.1657 -0.2419  0.5034
 3023CC1    CC1 3023   9.529   0.326   1.317 -0.1006  0.2020  0.0128
 3024CC1    CC1 3024   9.307   0.375   1.361  0.0855  0.0834  0.2731
 3025CC1    CC1 3025   9.091   0.451   1.394 -0.3555 -0.5484 -0.7267
 3026NCO    NCO 3026   9.021   0.642   1.147 -0.2308  0.2985  0.1681
 3027NCO    NCO 3027   5.973   9.871   9.222  0.0786  0.2865 -0.1655
 3028CC1    CC1 3028   5.801   9.607   9.260 -0.0134  0.2041 -0.1848
 3029CC1    CC1 3029   5.620   9.759   9.254  0.6529 -0.1570 -0.1438
 3030NCC    NCC 3030   5.503  10.004   9.339  0.1923  0.0014  0.2548
 3031CONH  CONH 3031   5.194  10.146   9.363 -0.0291 -0.2896 -0.3375
 3032CC1    CC1 3032   5.056  10.186   9.615  0.3732 -0.1112  0.2328
 3033CC1    CC1 3033   4.868   9.993   9.643 -0.1264  0.1926 -0.0009
 3034CC1    CC1 3034   4.696   9.802   9.656 -0.4726  0.6060 -0.0525
 3035NCO    NCO 3035   4.366   9.843   9.637  0.0224  0.3325 -0.3539
 3036CONH  CONH 3036   5.553  10.287   9.181 -0.1439  0.1006 -0.5578
 3037CC1    CC1 3037   5.369   0.030   8.942 -0.4231  0.2416 -0.3445
 3038CC1    CC1 3038   5.440  10.225   8.756  0.1742  0.1644 -0.0817
 3039CC1    CC1 3039   5.530  10.094   8.614 -0.2206 -0.0733 -0.4152
 3040NCO    NCO 3040   5.801  10.161   8.450 -0.1762  0.1823  0.1535
 3041NCO    NCO 3041   2.286   8.500   7.653  0.0363 -0.2075  0.0286
 3042CC1    CC1 3042   2.185   8.541   7.909 -0.3083 -0.2688  0.2743
 3043CC1    CC1 3043   2.353   8.444   8.027 -0.0651 -0.3256 -0.4447
 3044NCC    NCC 3044   2.551   8.431   8.177  0.5068  0.2630  0.1474
 3045CONH  CONH 3045   2.755   8.618   8.307  0.0001  0.1615 -0.3947
 3046CC1    CC1 3046   2.684   8.788   8.496  0.0629  0.1411 -0.6984
 3047CC1    CC1 3047   2.642   8.783   8.711 -0.2234 -0.2868 -0.2965
 3048CC1    CC1 3048   2.487   8.726   8.868 -0.3557  0.0119  0.1292
 3049NCO    NCO 3049   2.270   8.545   8.830 -0.2798  0.1672  0.2946
 3050CONH  CONH 3050   2.529   8.211   8.459 -0.2752  0.0661  0.1546
 3051CC1    CC1 3051   2.761   8.106   8.574  0.0421 -0.3337  0.2591
 3052CC1    CC1 3052   2.957   8.185   8.481 -0.2780  0.0623  0.0501
 3053CC1    CC1 3053   3.069   8.260   8.322  0.2502 -0.1056 -0.3610
 3054NCO    NCO 3054   3.221   8.486   8.347 -0.0629  0.4646 -0.0957
 3055NCO    NCO 3055   4.471   3.593   7.978  0.1214 -0.1150 -0.2594
 3056CC1    CC1 3056   4.734   3.451   8.113 -0.2513  0.2490  0.5641
 3057CC1    CC1 3057   4.651   3.214   8.058 -0.2120  0.0155  0.1810
 3058NCC    NCC 3058   4.612   2.956   8.147 -0.4269  0.2364 -0.1790
 3059CONH  CONH 3059   4.344   2.742   8.224 -0.1714 -0.3708  0.0870
 3060CC1    CC1 3060   4.202   2.790   8.409  0.0371  0.2287  0.0182
 3061CC1    CC1 3061   4.105   2.968   8.448 -0.1555  0.0655  0.0456
 3062CC1    CC1 3062   3.935   3.135   8.447 -0.1100  0.3690  0.1023
 3063NCO    NCO 3063   3.716   3.170   8.646  0.2648 -0.1911  0.0466
 3064CONH  CONH 3064   4.722   2.667   8.055  0.0129  0.6747  0.0412
 3065CC1    CC1 3065   4.593   2.510   7.867  0.2439  0.2427 -0.3163
 3066CC1    CC1 3066   4.436   2.604   7.757 -0.0043  0.2991  0.2106
 3067CC1    CC1 3067   4.209   2.646   7.666  0.3590  0.2208 -0.1106
 3068NCO    NCO 3068   4.199   2.876   7.427  0.3108 -0.4204 -0.0901
 3069NCO    NCO 3069   7.453   4.617   4.627  0.2769 -0.1817  0.2604
 3070CC1    CC1 3070   7.275   4.559   4.451  0.1623  0.2649 -0.2130
 3071CC1    CC1 3071   7.066   4.684   4.480 -0.4445  0.1985  0.1887
 3072NCC    NCC 3072   6.796   4.766   4.546 -0.2235 -0.3700 -0.3075
 3073CONH  CONH 3073   6.529   4.732   4.418  0.1845  0.1643 -0.3028
 3074CC1    CC1 3074   6.532   4.608   4.170 -0.0882  0.0067  0.0028
 3075CC1    CC1 3075   6.538   4.757   3.982  0.5949 -0.1705 -0.3315
 3076CC1    CC1 3076   6.616   4.897   3.809  0.3240  0.2714  0.1571
 3077NCO    NCO 3077   6.419   4.842   3.627  0.3197  0.0932  0.3223
 3078CONH  CONH 3078   6.628   4.774   4.838 -0.4696 -0.1947 -0.1353
 3079CC1    CC1 3079   6.748   4.805   5.088 -0.0842 -0.4554 -0.1686
 3080CC1    CC1 3080   6.835   4.585   5.145 -0.1924  0.3826 -0.1387
 3081CC1    CC1 3081   6.999   4.443   5.175  0.3275  0.0328  0.2571
 3082NCO    NCO 3082   7.148   4.402   4.923 -0.3296  0.4028 -0.2169
 3083NCO    NCO 3083   4.393   2.118   8.153  0.1569  0.0870 -0.3141
 3084CC1    CC1 3084   4.325   1.970   8.411  0.4152 -0.2921  0.2715
 3085CC1    CC1 3085   4.346   1.741   8.436 -0.1522  0.0596 -0.0487
 3086NCC    NCC 3086   4.396   1.458   8.518  0.0881 -0.2199  0.1573
 3087CONH  CONH 3087   4.225   1.192   8.477  0.2644  0.4136  0.1209
 3088CC1    CC1 3088   4.292   1.003   8.324 -0.1731 -0.8122  0.0102
 3089CC1    CC1 3089   4.222   0.932   8.091  0.2497  0.3334 -0.0747
 3090CC1    CC1 3090   4.034   0.908   7.924 -0.0319  0.1187  0.2765
 3091NCO    NCO 3091   3.968   0.656   8.041  0.0554  0.7843  0.1032
 3092CONH  CONH 3092   4.616   1.310   8.350  0.3502 -0.3137 -0.2101
 3093CC1    CC1 3093   4.592   1.265   8.100 -0.3026 -0.5514  0.3207
 3094CC1    CC1 3094   4.369   1.292   8.039  0.3420  0.3594  0.1057
 3095CC1    CC1 3095   4.130   1.301   8.029  0.3789  0.2973  0.0759
 3096NCO    NCO 3096   4.077   1.541   8.190  0.6455 -0.1925 -0.1447
 3097NCO    NCO 3097   5.636   0.383   2.237 -0.4152  0.0052 -0.2070
 3098CC1    CC1 3098   5.321   0.424   2.232 -0.2627 -0.3354  0.7789
 3099CC1    CC1 3099   5.239   0.506   2.428  0.3493 -0.0114  0.2424
 3100NCC    NCC 3100   5.232   0.496   2.707 -0.0198 -0.1883 -0.2472
 3101CONH  CONH 3101   5.195   0.234   2.902 -0.1380 -0.0242 -0.2100
 3102CC1    CC1 3102   4.994   0.160   3.058 -0.1545 -0.1128  0.4197
 3103CC1    CC1 3103   4.919   0.351   3.216 -0.3180 -0.1775  0.8924
 3104CC1    CC1 3104   4.831   0.546   3.273  0.6098  0.3975  0.1885
 3105NCO    NCO 3105   4.708   0.496   3.468  0.4123 -0.0727  0.7159
 3106CONH  CONH 3106   5.307   0.676   2.960 -0.2019 -0.0351  0.2834
 3107CC1    CC1 3107   5.138   0.881   3.009  0.2032  0.2702 -0.2818
 3108CC1    CC1 3108   4.929   0.926   2.921  0.3341  0.3182  0.3153
 3109CC1    CC1 3109   4.751   1.079   2.915 -0.2525  0.0580  0.1531
 3110NCO    NCO 3110   4.540   0.954   3.099  0.0434  0.2673  0.1251
 3111NCO    NCO 3111   8.154   4.731   6.695  0.2208  0.2468 -0.3938
 3112CC1    CC1 3112   8.246   4.507   6.852  0.3249 -0.6927 -0.4243
 3113CC1    CC1 3113   8.074   4.369   6.909 -0.3868  0.4755 -0.1012
 3114NCC    NCC 3114   7.859   4.239   6.874 -0.1132  0.2355  0.0309
 3115CONH  CONH 3115   7.530   4.293   6.987 -0.1216 -0.3127 -0.1205
 3116CC1    CC1 3116   7.308   4.166   6.906 -0.4053 -0.3324 -0.2691
 3117CC1    CC1 3117   7.119   4.253   6.884  0.0426 -0.0944 -0.1358
 3118CC1    CC1 3118   6.897   4.273   6.785 -0.1530  0.0084  0.2811
 3119NCO    NCO 3119   6.806   4.534   6.878 -0.0054  0.0361  0.1374
 3120CONH  CONH 3120   7.759   3.924   6.922 -0.0349  0.2362 -0.2977
 3121CC1    CC1 3121   7.810   3.726   6.762 -0.1802  0.0976  0.2976
 3122CC1    CC1 3122   7.647   3.645   6.600  0.2487  0.4445 -0.0796
 3123CC1    CC1 3123   7.435   3.619   6.494  0.6294  0.3051 -0.3241
 3124NCO    NCO 3124   7.284   3.374   6.502 -0.0060  0.0658  0.0869
 3125NCO    NCO 3125   9.072   6.557   2.000  0.1271 -0.2931  0.3028
 3126CC1    CC1 3126   9.102   6.331   1.899 -0.0111 -0.2938 -0.2194
 3127CC1    CC1 3127   9.038   6.103   1.835  0.3862 -0.1534 -0.0176
 3128NCC    NCC 3128   9.111   5.879   1.753  0.4369  0.1089  0.2003
 3129CONH  CONH 3129   8.909   5.674   1.601 -0.1062 -0.2399  0.2455
 3130CC1    CC1 3130   8.660   5.686   1.679  0.3638 -0.1189 -0.3803
 3131CC1    CC1 3131   8.481   5.854   1.603  0.2340 -0.0134 -0.3404
 3132CC1    CC1 3132   8.257   5.913   1.552 -0.1703  0.9988  0.3799
 3133NCO    NCO 3133   7.986   5.800   1.557 -0.3812  0.1130  0.4064
 3134CONH  CONH 3134   9.329   5.734   1.599 -0.0288  0.0817 -0.2006
 3135CC1    CC1 3135   9.306   5.457   1.538 -0.4183 -0.4683 -0.1772
 3136CC1    CC1 3136   9.361   5.354   1.291  0.4162 -0.1968 -0.3150
 3137CC1    CC1 3137   9.295   5.167   1.128  0.1836 -0.1481  0.0394
 3138NCO    NCO 3138   9.445   4.881   1.095  0.2338 -0.4472 -0.1088
 3139NCO    NCO 3139   3.933   0.302   8.348 -0.0711 -0.1670  0.1208
 3140CC1    CC1 3140   4.093   0.124   8.543 -0.0491 -0.0039 -0.2622
 3141CC1    CC1 3141   4.294   0.187   8.556 -0.3990 -0.2025 -0.0083
 3142NCC    NCC 3142   4.566   0.277   8.511  0.4566  0.0355 -0.0757
 3143CONH  CONH 3143   4.808   0.149   8.343  0.1241  0.2824 -0.4419
 3144CC1    CC1 3144   4.889  10.208   8.375 -0.1038 -0.6082  0.2823
 3145CC1    CC1 3145   4.861   9.994   8.356  0.1357  0.2903 -0.0390
 3146CC1    CC1 3146   4.796   9.772   8.463  0.4405  0.1996 -0.4239
 3147NCO    NCO 3147   4.556   9.727   8.571 -0.2627 -0.1175  0.1092
 3148CONH  CONH 3148   4.722   0.547   8.530 -0.0169 -0.2400 -0.0087
 3149CC1    CC1 3149   4.867   0.618   8.760 -0.0490 -0.1260 -0.0659
 3150CC1    CC1 3150   4.937   0.551   8.976 -0.0895  0.3317  0.2605
 3151CC1    CC1 3151   5.012   0.518   9.209  0.5313  0.1160  0.1188
 3152NCO    NCO 3152   4.792   0.512   9.449 -0.2449  0.1594 -0.1778
 3153NCO    NCO 3153   7.581   5.988   0.115 -0.2500  0.1388 -0.5625
 3154CC1    CC1 3154   7.824   5.919   0.327 -0.0242  0.3095 -0.4051
 3155CC1    CC1 3155   8.021   5.993   0.370  0.4065  0.2602 -0.0030
 3156NCC    NCC 3156   8.307   6.052   0.400 -0.1030  0.1331 -0.2942
 3157CONH  CONH 3157   8.538   5.890   0.576  0.0693 -0.2306  0.3817
 3158CC1    CC1 3158   8.600   5.931   0.809  0.2695 -0.6774 -0.4269
 3159CC1    CC1 3159   8.495   5.985   1.023 -0.0518  0.0861  0.3358
 3160CC1    CC1 3160   8.475   5.966   1.231 -0.2658 -0.2031 -0.2066
 3161NCO    NCO 3161   8.773   6.029   1.315  0.1785 -0.2288  0.0745
 3162CONH  CONH 3162   8.527   5.997   0.144 -0.0980  0.0838 -0.3137
 3163CC1    CC1 3163   8.667   6.208   0.046  0.1994  0.2484  0.0880
 3164CC1    CC1 3164   8.837   6.109  10.223  0.4418 -0.0681 -0.2684
 3165CC1    CC1 3165   8.958   5.897  10.169  0.0582 -0.1053 -0.1618
 3166NCO    NCO 3166   9.247   5.884  10.236 -0.0854 -0.0784 -0.0834
 3167NCO    NCO 3167   9.208   7.428   2.612  0.1892  0.2980 -0.1088
 3168CC1    CC1 3168   9.200   7.273   2.328  0.0889  0.4070  0.0459
 3169CC1    CC1 3169   9.273   7.343   2.129 -0.4063 -0.3450 -0.0834
 3170NCC    NCC 3170   9.508   7.349   1.944  0.0670  0.1793  0.2730
 3171CONH  CONH 3171   9.778   7.173   1.948 -0.0742 -0.1099  0.1325
 3172CC1    CC1 3172   9.859   7.013   1.724  0.3557 -0.0626  0.3733
 3173CC1    CC1 3173  10.019   6.864   1.723  0.0423  0.6023 -0.1856
 3174CC1    CC1 3174  10.066   6.660   1.673  0.3152  0.0167  0.2739
 3175NCO    NCO 3175  10.277   6.588   1.523 -0.2034  0.3894  0.7748
 3176CONH  CONH 3176   9.490   7.263   1.610 -0.0203  0.0614 -0.2425
 3177CC1    CC1 3177   9.708   7.299   1.459  0.0778  0.0325  0.1484
 3178CC1    CC1 3178   9.926   7.302   1.501 -0.2535  0.9458  0.0054
 3179CC1    CC1 3179  10.139   7.303   1.548  0.3223 -0.4631 -0.1969
 3180NCO    NCO 3180  10.199   7.288   1.825  0.1329 -0.3132  0.4905
 3181NCO    NCO 3181   5.371   1.119   0.340  0.3670  0.4218  0.0368
 3182CC1    CC1 3182   5.411   0.923   0.134 -0.1496 -0.0669 -0.0174
 3183CC1    CC1 3183   5.491   0.982  10.273 -0.1982  0.3336 -0.0075
 3184NCC    NCC 3184   5.677   1.138  10.115 -0.4082  0.0605 -0.0741
 3185CONH  CONH 3185   5.973   1.227  10.209  0.2268  0.1373  0.1833
 3186CC1    CC1 3186   6.147   1.328  10.045  0.2330 -0.4793  0.6117
 3187CC1    CC1 3187   6.097   1.518   9.968 -0.2101 -0.2068 -0.2000
 3188CC1    CC1 3188   6.096   1.745   9.973  0.7900  0.0747  0.4323
 3189NCO    NCO 3189   6.231   1.905  10.098 -0.1016  0.5881  0.0782
 3190CONH  CONH 3190   5.637   1.325   9.852 -0.1578  0.0461 -0.0935
 3191CC1    CC1 3191   5.650   1.571   9.905 -0.2366 -0.3159  0.2132
 3192CC1    CC1 3192   5.745   1.619  10.116 -0.3206  0.0345 -0.0348
 3193CC1    CC1 3193   5.889   1.698  10.324  0.1996  0.3179 -0.1981
 3194NCO    NCO 3194   5.809   1.914   0.134  0.1829  0.2527 -0.1198
 3195NCO    NCO 3195   5.464   0.746   8.585  0.1672 -0.5373  0.0949
 3196CC1    CC1 3196   5.325   0.903   8.723  0.7125  0.1201  0.3008
 3197CC1    CC1 3197   5.118   1.001   8.674  0.1602  0.1015  0.3547
 3198NCC    NCC 3198   4.879   1.041   8.571 -0.0877  0.2542  0.0583
 3199CONH  CONH 3199   4.605   0.989   8.665 -0.6114 -0.0709  0.0556
 3200CC1    CC1 3200   4.476   1.145   8.799 -0.0003 -0.4751  0.0540
 3201CC1    CC1 3201   4.261   1.053   8.909  0.2275 -0.3143  0.0864
 3202CC1    CC1 3202   4.137   0.966   9.096 -0.4838 -0.1957 -0.2163
 3203NCO    NCO 3203   3.855   1.064   9.247 -0.0934 -0.2215  0.1036
 3204CONH  CONH 3204   4.806   0.901   8.293 -0.0011  0.0263  0.3256
 3205CC1    CC1 3205   4.548   0.852   8.195 -0.0654  0.0101 -0.0492
 3206CC1    CC1 3206   4.521   0.704   8.045 -0.5778 -0.1687  0.2427
 3207CC1    CC1 3207   4.492   0.587   7.821 -0.0907 -0.5694 -0.0932
 3208NCO    NCO 3208   4.221   0.540   7.638  0.0502  0.1381  0.1069
 3209NCO    NCO 3209   3.690   0.188  10.183 -0.4833  0.0477 -0.1130
 3210CC1    CC1 3210   3.390   0.087  10.181  0.5466 -0.2653  0.0213
 3211CC1    CC1 3211   3.335  10.278   9.948  0.5829  0.3534  0.1714
 3212NCC    NCC 3212   3.241  10.041   9.821  0.0664  0.1064 -0.2676
 3213CONH  CONH 3213   3.062   9.911   9.602 -0.0299  0.1236 -0.0636
 3214CC1    CC1 3214   2.879   9.641   9.619 -0.0984 -0.1613  0.2933
 3215CC1    CC1 3215   2.988   9.458   9.480 -0.3009 -0.2545 -0.3016
 3216CC1    CC1 3216   3.109   9.264   9.433  0.0729  0.0614 -0.0115
 3217NCO    NCO 3217   3.064   9.262   9.127 -0.1811  0.2181  0.2194
 3218CONH  CONH 3218   3.389   9.769   9.802 -0.1151  0.1558 -0.4338
 3219CC1    CC1 3219   3.235   9.546   9.806 -0.0648 -0.2093 -0.4925
 3220CC1    CC1 3220   3.040   9.450   9.835  0.2304 -0.1863 -0.1274
 3221CC1    CC1 3221   2.874   9.312   9.849  0.2716 -0.0352  0.0034
 3222NCO    NCO 3222   2.935   9.058   9.960 -0.1531  0.2741  0.2723
 3223NCO    NCO 3223   5.199   9.528   1.944  0.2790 -0.3508  0.1735
 3224CC1    CC1 3224   5.083   9.743   1.931  0.1147  0.4423  0.1894
 3225CC1    CC1 3225   5.172   9.900   2.081  0.1762 -0.0054  0.1142
 3226NCC    NCC 3226   5.334  10.037   2.221  0.5838  0.1634 -0.2943
 3227CONH  CONH 3227   5.227   0.001   2.399 -0.0216  0.1220 -0.1444
 3228CC1    CC1 3228   5.407   0.148   2.528  0.0958  0.2628 -0.1666
 3229CC1    CC1 3229   5.568   0.271   2.668 -0.2284 -0.4642 -0.3012
 3230CC1    CC1 3230   5.708   0.451   2.752  0.1844 -0.0193  0.0740
 3231NCO    NCO 3231   5.675   0.659   2.574 -0.2968 -0.0096  0.0001
 3232CONH  CONH 3232   5.482   9.996   2.500  0.0588  0.2466  0.1393
 3233CC1    CC1 3233   5.355  10.114   2.743 -0.2407 -0.1053 -0.6931
 3234CC1    CC1 3234   5.143  10.009   2.765  0.4002  0.2293 -0.1655
 3235CC1    CC1 3235   4.902  10.019   2.770  0.1223 -0.4230  0.5535
 3236NCO    NCO 3236   4.802   9.771   2.984  0.0650 -0.1727  0.1545
 3237NCO    NCO 3237   7.846   0.936   0.659  0.0461 -0.3639 -0.0336
 3238CC1    CC1 3238   7.975   0.696   0.861  0.2458 -0.3979 -0.0095
 3239CC1    CC1 3239   7.878   0.472   0.810  0.0790  0.2388 -0.3694
 3240NCC    NCC 3240   7.879   0.197   0.883  0.2861  0.2568 -0.0798
 3241CONH  CONH 3241   7.779  10.282   0.751  0.1246 -0.2885  0.0156
 3242CC1    CC1 3242   7.507  10.277   0.654 -0.0254  0.3488  0.1179
 3243CC1    CC1 3243   7.462  10.255   0.399 -0.4140 -0.1931 -0.0114
 3244CC1    CC1 3244   7.477   0.037   0.178 -0.1137  0.1766  0.2391
 3245NCO    NCO 3245   7.698   0.191   0.194  0.3397  0.0896 -0.0434
 3246CONH  CONH 3246   7.893   0.003   1.157  0.1617 -0.3474 -0.2818
 3247CC1    CC1 3247   8.108   0.033   1.324  0.0727 -0.0522  0.3600
 3248CC1    CC1 3248   8.326   0.035   1.252  0.5764  0.4425 -0.2266
 3249CC1    CC1 3249   8.584  10.322   1.316  0.7554 -0.0345 -0.3924
 3250NCO    NCO 3250   8.594  10.305   1.006 -0.1343 -0.4201 -0.1543
 3251NCO    NCO 3251   9.028   5.560   6.600  0.0752 -0.0377  0.2107
 3252CC1    CC1 3252   8.948   5.708   6.795  0.1451  0.7636 -0.1295
 3253CC1    CC1 3253   8.952   5.666   7.020 -0.0692  0.0083 -0.1523
 3254NCC    NCC 3254   9.084   5.729   7.262 -0.0431 -0.0411 -0.0403
 3255CONH  CONH 3255   9.386   5.771   7.338 -0.4582 -0.2329 -0.2380
 3256CC1    CC1 3256   9.504   5.976   7.229 -0.0125 -0.5884 -0.1268
 3257CC1    CC1 3257   9.546   6.166   7.303  0.4993 -0.2600 -0.8161
 3258CC1    CC1 3258   9.554   6.318   7.439 -0.0080  0.0439 -0.2673
 3259NCO    NCO 3259   9.357   6.237   7.659 -0.4399 -0.3823  0.3043
 3260CONH  CONH 3260   9.044   6.024   7.386  0.0388 -0.1754 -0.3030
 3261CC1    CC1 3261   9.199   6.246   7.268  0.0036 -0.0999 -0.3440
 3262CC1    CC1 3262   9.212   6.458   7.350 -0.0983 -0.0367  0.1732
 3263CC1    CC1 3263   9.275   6.588   7.494 -0.3198 -0.4236 -0.2239
 3264NCO    NCO 3264   9.125   6.791   7.641 -0.0736 -0.2256 -0.3955
 3265NCO    NCO 3265   9.517   6.887   2.713  0.0194 -0.0821  0.3754
 3266CC1    CC1 3266   9.349   7.030   2.566 -0.1763  0.0612  0.0494
 3267CC1    CC1 3267   9.427   6.973   2.343 -0.1966 -0.1333 -0.4182
 3268NCC    NCC 3268   9.516   6.847   2.114 -0.4088  0.2030  0.1907
 3269CONH  CONH 3269   9.768   6.703   1.977 -0.3523 -0.1067  0.2381
 3270CC1    CC1 3270   9.735   6.494   1.773  0.2949 -0.2061 -0.0787
 3271CC1    CC1 3271   9.796   6.522   1.509  0.5240 -0.2586 -0.2457
 3272CC1    CC1 3272   9.839   6.631   1.305  0.5583  0.0311  0.2562
 3273NCO    NCO 3273  10.029   6.580   1.098 -0.0090  0.0390 -0.4074
 3274CONH  CONH 3274   9.429   6.895   1.812  0.0505 -0.0772  0.2893
 3275CC1    CC1 3275   9.553   6.770   1.597 -0.1707  0.1418 -0.3507
 3276CC1    CC1 3276   9.656   6.914   1.456  0.1050 -0.0597 -0.1565
 3277CC1    CC1 3277   9.828   7.006   1.257  0.1653 -0.2238 -0.1570
 3278NCO    NCO 3278  10.085   6.942   1.267 -0.2301 -0.1868 -0.1677
 3279NCO    NCO 3279   8.827   2.837   8.437  0.2550 -0.0631  0.3316
 3280CC1    CC1 3280   8.644   2.641   8.263 -0.2514 -0.4103  0.4003
 3281CC1    CC1 3281   8.450   2.650   8.328 -0.1081 -0.1773  0.1133
 3282NCC    NCC 3282   8.234   2.518   8.415  0.0709 -0.1699  0.2260
 3283CONH  CONH 3283   8.123   2.342   8.689 -0.0201  0.0678 -0.1504
 3284CC1    CC1 3284   7.910   2.215   8.671  0.4466 -0.2647 -0.0791
 3285CC1    CC1 3285   7.758   2.147   8.857  0.2114  0.0339 -0.6385
 3286CC1    CC1 3286   7.659   2.040   9.032 -0.2247  0.4306 -0.4865
 3287NCO    NCO 3287   7.767   2.050   9.342  0.2748 -0.1957 -0.3213
 3288CONH  CONH 3288   7.940   2.439   8.280  0.0931 -0.2277 -0.2666
 3289CC1    CC1 3289   7.737   2.583   8.368 -0.2120 -0.0256  0.0395
 3290CC1    CC1 3290   7.589   2.707   8.223 -0.5886 -0.2851  0.3858
 3291CC1    CC1 3291   7.536   2.909   8.094 -0.2843 -0.2348  0.2287
 3292NCO    NCO 3292   7.796   3.035   7.938 -0.0496 -0.1748  0.6532
 3293NCO    NCO 3293   5.086   7.665   8.631 -0.0031 -0.0472  0.1277
 3294CC1    CC1 3294   5.368   7.804   8.515  0.4279  0.3955  0.5604
 3295CC1    CC1 3295   5.483   7.880   8.708 -0.2022 -0.0750  0.4506
 3296NCC    NCC 3296   5.435   7.916   8.995 -0.4099  0.0648 -0.4224
 3297CONH  CONH 3297   5.174   7.961   9.193  0.1860 -0.0046  0.0505
 3298CC1    CC1 3298   5.206   8.132   9.415  0.1346 -0.0967  0.4810
 3299CC1    CC1 3299   5.377   8.271   9.450  0.1438 -0.2861 -0.2491
 3300CC1    CC1 3300   5.569   8.417   9.471  0.5490 -0.0982 -0.4114
 3301NCO    NCO 3301   5.558   8.601   9.721  0.0315  0.2589  0.0541
 3302CONH  CONH 3302   5.617   8.021   9.248 -0.0859  0.1325  0.0886
 3303CC1    CC1 3303   5.539   7.991   9.526  0.1375  0.0787 -0.3065
 3304CC1    CC1 3304   5.378   7.952   9.686 -0.3385  0.2306  0.2903
 3305CC1    CC1 3305   5.164   7.861   9.802 -0.0577  0.1483 -0.1814
 3306NCO    NCO 3306   5.116   7.838  10.089  0.3524  0.1102  0.2100
 3307NCO    NCO 3307   7.591   4.224   5.392 -0.0113  0.6407  0.1203
 3308CC1    CC1 3308   7.546   4.016   5.518  0.2363 -0.7868  0.7135
 3309CC1    CC1 3309   7.465   4.080   5.734  0.5474 -0.4145 -0.1926
 3310NCC    NCC 3310   7.375   4.151   5.973 -0.0576  0.3041 -0.3065
 3311CONH  CONH 3311   7.305   4.418   6.114 -0.3884 -0.0985 -0.5632
 3312CC1    CC1 3312   7.219   4.459   6.380  0.3495  0.2878  0.3367
 3313CC1    CC1 3313   6.947   4.413   6.375 -0.4764  0.0975 -0.6846
 3314CC1    CC1 3314   6.710   4.458   6.421  0.0033 -0.1407 -0.1453
 3315NCO    NCO 3315   6.574   4.290   6.224 -0.0754 -0.1316  0.2676
 3316CONH  CONH 3316   7.312   3.992   6.238 -0.1852 -0.0073  0.0146
 3317CC1    CC1 3317   7.353   4.138   6.445 -0.2746  0.2368  0.1650
 3318CC1    CC1 3318   7.434   3.992   6.610 -0.3360 -0.0225  0.2339
 3319CC1    CC1 3319   7.394   3.841   6.773  0.1375 -0.0061  0.0166
 3320NCO    NCO 3320   7.186   3.711   6.782  0.1883  0.1848 -0.3580
 3321W        W 3321  10.055   0.356   8.685  0.1605  0.1056  0.0719
 3322W        W 3322   3.229   5.255   2.533 -0.0667 -0.0634 -0.1172
 3323W        W 3323   2.808   2.234   9.107 -0.0101 -0.0885  0.0157
 3324W        W 3324   8.320   1.539   0.898  0.1587 -0.1804  0.2485
 3325W        W 3325  10.179   4.279   1.322  0.1155 -0.0018 -0.1205
 3326W        W 3326   2.621   8.620   0.665  0.0799  0.2259 -0.0557
 3327W        W 3327   5.847   0.819   1.535  0.1474 -0.1495 -0.0011
 3328W        W 3328   3.265   1.832   6.928  0.0588  0.1097  0.0462
 3329W        W 3329   8.371   6.316   1.423 -0.0631  0.2299  0.2914
 3330W        W 3330   5.290   7.484   8.247 -0.3470 -0.2246 -0.1012
 3331W        W 3331   7.335   7.102   2.543  0.0035  0.1101  0.0245
 3332W        W 3332   5.502   4.806   1.518 -0.4189  0.0424 -0.0037
 3333W        W 3333   2.035   8.566   9.653 -0.1860 -0.1530 -0.1616
 3334W        W 3334   5.050   4.594   0.117 -0.1508  0.1535  0.1504
 3335W        W 3335   2.527   0.479   6.588  0.3353 -0.1303  0.0546
 3336W        W 3336  10.193   3.517   8.060 -0.1216  0.0351 -0.0900
 3337W        W 3337  10.020   0.035   1.873  0.0733 -0.0926  0.0099
 3338W        W 3338   4.550   5.828   4.862  0.0250  0.2780 -0.0294
 3339W        W 3339   8.837   6.875   5.794 -0.0853  0.1241 -0.0745
 3340W        W 3340   6.922   8.049   1.714  0.4550 -0.1453  0.1216
 3341W        W 3341  10.171   9.945   9.160  0.0282 -0.3281 -0.0561
 3342W        W 3342   8.521   8.617   3.959 -0.1758 -0.2773 -0.0855
 3343W        W 3343   6.646   2.754   1.070  0.2670  0.0676 -0.2479
 3344W        W 3344   4.977   4.272   1.832  0.0227 -0.0875  0.2153
 3345W        W 3345   4.715   5.788   6.210 -0.1415  0.1458  0.0014
 3346W        W 3346   4.761   4.405   0.942  0.1966  0.0844  0.1571
 3347W        W 3347   0.451   1.970   1.757  0.0067 -0.2294  0.0669
 3348W        W 3348   9.733   1.170   2.042 -0.2667 -0.0773  0.0029
 3349W        W 3349   8.687   8.078   3.877 -0.2006 -0.1058  0.0296
 3350W        W 3350   6.912   8.156   7.437  0.2014 -0.1604 -0.0422
 3351W        W 3351   3.104   8.278   3.389  0.0124 -0.1257 -0.0895
 3352W        W 3352   8.217   7.688   0.203  0.0571 -0.1238 -0.0133
 3353W        W 3353   6.918   3.677   2.418  0.2173  0.0731 -0.2585
 3354W        W 3354   8.912   9.905   7.361 -0.0111  0.1915  0.0042
 3355W        W 3355   3.783   7.379   0.969 -0.0831  0.0903 -0.1565
 3356W        W 3356   7.217   5.655   0.422  0.2076 -0.2169  0.0934
 3357W        W 3357   7.161   6.200   6.748 -0.0456 -0.1620  0.0978
 3358W        W 3358   9.867   3.182   0.346 -0.1089 -0.4209  0.1169
 3359W        W 3359   1.761   6.237   7.417 -0.2504 -0.2017  0.1785
 3360W        W 3360   7.135   8.368   6.703 -0.1371 -0.3621  0.2323
 3361W        W 3361   1.544   0.066   2.893 -0.0475 -0.1509  0.1265
 3362W        W 3362   5.383   6.928   1.436  0.0318  0.1559 -0.0656
 3363W        W 3363   4.169   7.278   0.523  0.4740  0.2501 -0.2467
 3364W        W 3364   8.059   9.747   9.462 -0.0231 -0.2920  0.0880
 3365W        W 3365   5.641   3.042   2.970 -0.2930  0.1434 -0.1217
 3366W        W 3366   9.466   9.177   7.059 -0.0827 -0.0402  0.0407
 3367W        W 3367   4.444   5.888   9.636 -0.0750 -0.0018 -0.2298
 3368W        W 3368   2.427   4.716   2.727  0.0154  0.0650  0.0482
 3369W        W 3369   7.434   0.325   0.530  0.0760 -0.0267  0.2293
 3370W        W 3370   6.901   8.169   2.464 -0.1261  0.0076 -0.1562
 3371W        W 3371   1.612   0.536   1.911 -0.2458  0.1959  0.0459
 3372W        W 3372   1.725   2.924   0.403 -0.2631 -0.2242  0.0564
 3373W        W 3373   1.350   2.047   8.660 -0.0250 -0.0418 -0.1735
 3374W        W 3374   2.661   4.339   6.431 -0.0402 -0.1945  0.1296
 3375W        W 3375   1.388   5.722   6.942 -0.2351  0.0503  0.0471
 3376W        W 3376   3.821   7.976   8.761 -0.0571 -0.2786 -0.0771
 3377W        W 3377   2.445   7.261   8.515  0.2019  0.1511 -0.0290
 3378W        W 3378   8.797   3.883   0.988 -0.0938  0.1982 -0.2394
 3379W        W 3379   4.242   5.483   7.113 -0.1862  0.1072  0.0430
 3380W        W 3380   9.212   7.220   3.612  0.2489  0.2637 -0.3867
 3381W        W 3381   3.236   8.949   1.516 -0.1383 -0.1408  0.0792
 3382W        W 3382   8.471   0.446   4.896  0.2110 -0.0588  0.1055
 3383W        W 3383   1.660   0.238   3.431 -0.2356 -0.0797  0.1597
 3384W        W 3384   7.698   5.563   6.359 -0.3100  0.3490 -0.0495
 3385W        W 3385   2.922   8.040   1.679 -0.1576 -0.0754 -0.1113
 3386W        W 3386   1.411   8.606   9.866  0.0509  0.1006 -0.3000
 3387W        W 3387   5.474   5.414   7.607 -0.2104  0.0305 -0.0566
 3388W        W 3388   1.584   3.579   3.949  0.0953 -0.0639 -0.0521
 3389W        W 3389   2.524   7.186   1.548 -0.2074  0.4154 -0.2679
 3390W        W 3390   8.133   3.159   0.124  0.0967 -0.1391  0.3836
 3391W        W 3391   3.083   5.202   3.944 -0.0748 -0.0862 -0.1992
 3392W        W 3392   9.331   1.077   8.055 -0.0444 -0.0148 -0.0417
 3393W        W 3393   4.439   6.552   5.806 -0.3645 -0.2093 -0.2572
 3394W        W 3394   6.427   8.022   6.660  0.0130 -0.0026 -0.0706
 3395W        W 3395   1.917   5.399   1.237  0.4274 -0.1565  0.0505
 3396W        W 3396   9.256  10.038  10.140 -0.1424 -0.1880  0.1043
 3397W        W 3397   8.645   9.776   8.232 -0.0720 -0.3005  0.2297
 3398W        W 3398   8.560   0.363   3.584  0.2445 -0.0088 -0.2009
 3399W        W 3399   7.633   0.276   1.609 -0.0495  0.0788 -0.1766
 3400W        W 3400   7.615   1.824   8.450 -0.1651 -0.1132  0.0459
 3401W        W 3401   3.696   5.317   5.419 -0.1489 -0.0626 -0.1982
 3402W        W 3402   0.690   5.945   9.927  0.3853  0.2920 -0.2019
 3403W        W 3403   4.259   4.506   2.160 -0.0490  0.0720  0.0857
 3404W        W 3404   2.934   2.403   1.357 -0.1328 -0.2072  0.0194
 3405W        W 3405   0.266   6.563   5.150  0.0395  0.1209  0.5662
 3406W        W 3406   6.809   7.176   8.205  0.1716 -0.2354  0.4343
 3407W        W 3407   1.134   7.511   1.726 -0.0199  0.0560 -0.1098
 3408W        W 3408   1.546   0.694   1.281  0.0069  0.3195 -0.2238
 3409W        W 3409   1.004   9.611   3.581 -0.0416 -0.0794  0.0206
 3410W        W 3410   7.339   5.940   7.406 -0.0080  0.0243 -0.0739
 3411W        W 3411   6.176   6.186   0.835 -0.4390  0.0365  0.2506
 3412W        W 3412   6.248   7.464   4.683 -0.0041 -0.1926 -0.1201
 3413W        W 3413   3.523   8.678   8.730 -0.1000 -0.0577  0.0297
 3414W        W 3414   0.703   6.738  10.256 -0.1072  0.0961  0.2700
 3415W        W 3415   7.437   5.470   7.280  0.0243 -0.4216  0.0221
 3416W        W 3416   5.643   3.386   7.423  0.3611 -0.1784 -0.0631
 3417W        W 3417   6.956   4.801   1.873 -0.0614 -0.0452 -0.4050
 3418W        W 3418   8.014   1.253   9.652 -0.1332  0.1297  0.0062
 3419W        W 3419   1.120   4.271   9.822 -0.0877 -0.0533 -0.1883
 3420W        W 3420   8.270   0.056   1.948  0.0038  0.3449 -0.1565
 3421W        W 3421   7.639   8.532   6.682 -0.0408  0.1536 -0.0297
 3422W        W 3422   9.363   8.815   2.876 -0.2194 -0.0272 -0.0190
 3423W        W 3423   7.419   0.730   0.254 -0.3313  0.0251  0.0410
 3424W        W 3424   6.029   9.572   0.405  0.1850  0.1485  0.0908
 3425W        W 3425   2.258   0.460   1.421  0.2448  0.1081  0.0832
 3426W        W 3426   1.077   9.603   0.070  0.1463 -0.0847  0.0186
 3427W        W 3427   2.326   8.697   6.289  0.1198 -0.2647  0.1439
 3428W        W 3428   6.265   4.262   0.480  0.1319 -0.0043  0.0111
 3429W        W 3429   3.360   8.792   2.478  0.0651 -0.0697  0.0343
 3430W        W 3430   4.661   8.630   9.931  0.0367 -0.3643  0.1533
 3431W        W 3431   8.331   4.881   4.690 -0.0652  0.1320  0.0801
 3432W        W 3432   2.812   0.797   8.792  0.1392  0.1619  0.1232
 3433W        W 3433   4.858   7.038   2.393 -0.2524  0.2646  0.0385
 3434W        W 3434   7.177   1.313   3.084 -0.0104  0.1974  0.1231
 3435W        W 3435   2.256   2.332   8.905 -0.1039 -0.0272 -0.2617
 3436W        W 3436   2.762   2.722   8.780  0.3041  0.0339  0.0692
 3437W        W 3437   5.751   5.356   8.045 -0.0839  0.0685  0.2233
 3438W        W 3438   8.898   7.189   0.274  0.2343  0.0664 -0.1607
 3439W        W 3439   1.705   7.976   9.199 -0.0428 -0.0634 -0.1662
 3440W        W 3440  10.211   3.288   1.304 -0.0360 -0.2566 -0.0852
 3441W        W 3441   5.949   8.463   4.252  0.0936  0.0426 -0.2177
 3442W        W 3442   7.758   6.404   0.146 -0.2974  0.1796 -0.2076
 3443W        W 3443   1.886   1.794   6.765  0.2567 -0.1635  0.3660
 3444W        W 3444   0.209   0.596   9.139  0.1480 -0.0719  0.3098
 3445W        W 3445   6.955  10.027   1.415 -0.3001 -0.2180  0.0594
 3446W        W 3446   6.656   7.335   0.163  0.0913 -0.4124  0.1987
 3447W        W 3447   1.054   4.649   6.583 -0.1727  0.1130 -0.1362
 3448W        W 3448   3.383   5.826   8.810  0.1187  0.1972  0.0995
 3449W        W 3449   1.897   1.183   5.765  0.3646  0.0014 -0.0164
 3450W        W 3450   1.410   8.065   1.237  0.2749  0.0020 -0.1360
 3451W        W 3451   4.746   6.757  10.174  0.1612  0.1476  0.0197
 3452W        W 3452   0.098   0.000   8.409 -0.0840 -0.0611 -0.0488
 3453W        W 3453   0.607   9.592  10.193 -0.0500 -0.3928 -0.2434
 3454W        W 3454   5.464   3.897   5.937  0.0175  0.1142 -0.1205
 3455W        W 3455   0.407   9.293   9.786 -0.1629  0.0462  0.1941
 3456W        W 3456   7.041   9.830   7.462 -0.0069  0.3478  0.1416
 3457W        W 3457   3.344  10.060   3.922  0.0604  0.2410 -0.1012
 3458W        W 3458   9.333   0.028   3.087  0.4207 -0.0269  0.1836
 3459W        W 3459   0.292   5.359   0.270  0.1332  0.3487 -0.2481
 3460W        W 3460   6.868   0.642   1.613  0.2101 -0.1980 -0.0319
 3461W        W 3461   9.013   4.791   3.707  0.0248  0.3257 -0.2746
 3462W        W 3462   5.524   7.135   6.891 -0.2075 -0.0117 -0.0606
 3463W        W 3463   3.642   6.171   7.485 -0.0626 -0.1354  0.0161
 3464W        W 3464   7.513   2.613   0.430 -0.0602  0.0782 -0.1874
 3465W        W 3465   1.460   7.282   6.101  0.2019 -0.1429 -0.0356
 3466W        W 3466   3.302   5.738   7.823  0.1690  0.0924 -0.0614
 3467W        W 3467   7.311   8.323   2.688  0.0435 -0.1317  0.2113
 3468W        W 3468   4.028   8.503   8.722  0.0384  0.1876  0.1388
 3469W        W 3469   7.473   7.040   4.841  0.5211  0.0791  0.2952
 3470W        W 3470   2.120   0.395   0.085 -0.0787  0.2181 -0.2064
 3471W        W 3471   1.637   5.054   7.035 -0.1975  0.0470 -0.0187
 3472W        W 3472   6.593   9.329   9.682 -0.0237  0.2740  0.0335
 3473W        W 3473   2.878   7.264   7.361  0.0344 -0.0548  0.1168
 3474W        W 3474   0.916   3.747   6.796 -0.3237  0.1078 -0.5219
 3475W        W 3475   8.922   3.699   1.861  0.1053  0.1803 -0.0469
 3476W        W 3476   9.056   1.110   9.900  0.3942  0.3444  0.2995
 3477W        W 3477   2.477   6.606   2.458 -0.1527 -0.0952  0.0367
 3478W        W 3478   8.125   9.127   3.069  0.2884 -0.0140 -0.1316
 3479W        W 3479   2.860   3.225   8.138  0.0392 -0.1103 -0.0924
 3480W        W 3480   0.947   0.059   4.771  0.0344  0.2794  0.2691
 3481W        W 3481   5.417   6.248   7.465 -0.0186 -0.0381 -0.0635
 3482W        W 3482   4.254   2.160   0.987 -0.1449 -0.0828 -0.0413
 3483W        W 3483   7.542   2.559   1.192 -0.0129 -0.0041 -0.0712
 3484W        W 3484   1.383   3.015   3.523  0.0482  0.0400 -0.0542
 3485W        W 3485   4.744   4.269   3.616  0.0767 -0.2002  0.0491
 3486W        W 3486  10.085   2.114   3.676  0.0256 -0.0081  0.0830
 3487W        W 3487   1.216   2.325   0.804 -0.0764 -0.2241 -0.4442
 3488W        W 3488   5.204   5.564   6.811  0.1600  0.0682  0.0984
 3489W        W 3489   0.319   6.562   8.210 -0.2370 -0.0777  0.1980
 3490W        W 3490  10.094   5.354   9.205  0.1070  0.0461 -0.2171
 3491W        W 3491   8.696   2.626   5.093  0.2061  0.0995  0.0224
 3492W        W 3492   5.601   0.178   0.100  0.0472  0.0490 -0.0377
 3493W        W 3493   2.389   9.895   4.004  0.0853 -0.4236  0.3265
 3494W        W 3494   8.396   4.059   0.163 -0.2085  0.3659 -0.1657
 3495W        W 3495   8.343   5.106   4.062 -0.0293 -0.0564  0.0686
 3496W        W 3496   2.243   1.166   3.380 -0.2864 -0.0840  0.0331
 3497W        W 3497   9.897   3.672   9.361 -0.1946 -0.3119  0.1515
 3498W        W 3498   5.245   0.659   1.057 -0.1431  0.1357 -0.1424
 3499W        W 3499   7.676   6.007  10.005 -0.0778 -0.3116  0.2299
 3500W        W 3500   2.290   6.010   1.800  0.0479 -0.0059 -0.0258
 3501W        W 3501   0.774   8.942   5.783 -0.2304  0.0678 -0.0376
 3502W        W 3502   5.598   8.866   3.860  0.0892 -0.0304  0.1186
 3503W        W 3503   4.207   9.319   9.872  0.0239 -0.0239 -0.1351
 3504W        W 3504   0.588   9.473   4.631  0.1899 -0.0778  0.2061
 3505W        W 3505   7.133   1.383   8.587 -0.1604 -0.2734  0.2373
 3506W        W 3506   8.628   3.873   2.697 -0.2177  0.1496  0.0608
 3507W        W 3507   6.587   1.154   0.373 -0.0664  0.2828 -0.3712
 3508W        W 3508   4.268   3.060   4.022 -0.0964  0.0340  0.0570
 3509W        W 3509   4.172   1.618   0.601 -0.1249 -0.0920  0.0690
 3510W        W 3510   9.734   5.837   7.615 -0.3686  0.0058  0.2697
 3511W        W 3511   8.119   6.531   3.820  0.1447 -0.3998  0.1287
 3512W        W 3512   9.591   5.421   1.853 -0.0939  0.0263  0.1964
 3513W        W 3513   0.298   4.437   8.283 -0.1693  0.2174 -0.3885
 3514W        W 3514   6.220   7.077   0.062  0.0558 -0.0867  0.1504
 3515W        W 3515   2.893   3.593   7.009 -0.2242 -0.0585 -0.1173
 3516W        W 3516   3.413   9.992   4.932  0.3574  0.2290  0.1851
 3517W        W 3517   6.447   2.991   8.700 -0.1147 -0.0013 -0.0343
 3518W        W 3518  10.144   4.659   0.809 -0.1408  0.2528 -0.0119
 3519W        W 3519   3.017   7.346   6.585  0.0631 -0.0390  0.1181
 3520W        W 3520   1.911   0.114   5.262  0.3315 -0.1074 -0.1955
 3521W        W 3521   7.197   4.696   7.015 -0.0630  0.0030 -0.0815
 3522W        W 3522   2.295   1.432   7.660 -0.0992 -0.0859  0.0307
 3523W        W 3523  10.008   3.537   2.196 -0.1547 -0.2282 -0.0491
 3524W        W 3524   2.495   9.602   3.342  0.0713  0.1262  0.3591
 3525W        W 3525   2.930   6.947   4.687 -0.0221 -0.0296 -0.1403
 3526W        W 3526   3.542   4.819   7.538  0.1669  0.2318  0.0907
 3527W        W 3527   8.710   6.980   8.788 -0.0118  0.1697  0.0573
 3528W        W 3528  10.235   5.839   9.467  0.0052  0.1356 -0.1462
 3529W        W 3529   2.026   4.748   4.523 -0.0712 -0.0039 -0.1250
 3530W        W 3530   6.665   0.859   5.372 -0.0795 -0.0222 -0.3851
 3531W        W 3531   7.825   6.396   2.212  0.1798 -0.1216  0.1850
 3532W        W 3532   7.182   7.123   9.453  0.1611  0.1937 -0.1609
 3533W        W 3533   4.291   4.612   5.816 -0.2074  0.0994  0.1719
 3534W        W 3534   4.471   4.991   1.499 -0.2369  0.4234  0.2551
 3535W        W 3535   3.539   4.193   1.380  0.1875  0.3705 -0.1337
 3536W        W 3536   7.626   5.624   3.574 -0.0969 -0.3425  0.0267
 3537W        W 3537   9.877   0.692   4.876  0.3348 -0.1404  0.0198
 3538W        W 3538   8.310   8.544   3.085 -0.0486  0.0015 -0.2056
 3539W        W 3539   5.981   3.931   5.069  0.0004 -0.0909 -0.0187
 3540W        W 3540   0.511   8.494   8.198 -0.1630  0.2376  0.0139
 3541W        W 3541   9.694   0.694   7.570 -0.0641  0.0300 -0.1639
 3542W        W 3542   6.421   6.815   1.985  0.0425  0.0047 -0.2334
 3543W        W 3543   8.606   9.681   2.689  0.1920  0.2740  0.0864
 3544W        W 3544   2.675   7.746   8.648  0.0275  0.0496  0.0042
 3545W        W 3545   7.908   8.445   9.195 -0.1332 -0.1134  0.1948
 3546W        W 3546   9.893   9.545   3.021  0.3049 -0.0286 -0.0042
 3547W        W 3547   5.407   1.849   4.982  0.2732 -0.0389  0.2255
 3548W        W 3548   7.088   1.346   2.084  0.0327 -0.0752 -0.2289
 3549W        W 3549   5.548   4.196   6.322  0.0212 -0.0601 -0.0344
 3550W        W 3550   0.137   7.433   4.705 -0.0125  0.1793 -0.2662
 3551W        W 3551   2.812   3.011   7.266 -0.2040  0.4402 -0.1255
 3552W        W 3552   3.904   9.887   3.151  0.2492 -0.2648 -0.2709
 3553W        W 3553   9.220   6.550   4.965  0.3142  0.1731 -0.0332
 3554W        W 3554   2.701   4.088  10.148  0.2048 -0.2228 -0.0044
 3555W        W 3555   2.264   5.117   5.495  0.1803  0.0014  0.2775
 3556W        W 3556   6.080   3.776   9.741  0.1482  0.0648  0.0077
 3557W        W 3557   1.156   8.558   5.790  0.1799 -0.0192  0.2064
 3558W        W 3558   9.107   2.414   2.097 -0.0191 -0.0737  0.1025
 3559W        W 3559  10.322   1.627   4.166 -0.0060 -0.0667  0.1366
 3560W        W 3560   1.041   9.477   9.767 -0.4479 -0.1228  0.1065
 3561W        W 3561   1.689   9.558   4.304 -0.0879  0.0579 -0.0867
 3562W        W 3562   2.149   7.909   6.618  0.1454  0.0482  0.0615
 3563W        W 3563   4.234   2.529   2.229 -0.0211  0.1595  0.0437
 3564W        W 3564   4.915   9.945   4.824  0.0869  0.1484  0.1510
 3565W        W 3565   8.071   6.541   2.933 -0.3040 -0.2346  0.0361
 3566W        W 3566   8.430   8.737   4.767 -0.2103 -0.0091 -0.0331
 3567W        W 3567   7.541   7.081   6.893  0.0742 -0.1783 -0.0865
 3568W        W 3568   3.343   4.566   4.057 -0.3456  0.1780 -0.1246
 3569W        W 3569   8.637   8.206   6.911 -0.0730  0.2373 -0.0015
 3570W        W 3570   7.575   1.182   9.397 -0.2196  0.1576 -0.1199
 3571W        W 3571   1.734   6.171   3.890  0.0249 -0.0110  0.3654
 3572W        W 3572   8.571   8.077   3.127 -0.1496  0.0368  0.0840
 3573W        W 3573   8.985   0.169   4.079 -0.0179  0.0551  0.0070
 3574W        W 3574   2.821   9.162   3.080 -0.1031  0.1085  0.1913
 3575W        W 3575   6.207   8.820   6.164  0.1331  0.0656  0.1821
 3576W        W 3576   3.193   9.885   7.307 -0.0320  0.0822  0.1323
 3577W        W 3577   5.143   9.602   0.193  0.2786 -0.0410 -0.2218
 3578W        W 3578   8.534   4.603   7.699  0.0299  0.1792  0.3028
 3579W        W 3579   2.377   1.531   9.611 -0.1653  0.0278 -0.2264
 3580W        W 3580   5.736   7.234   8.102  0.0023  0.1676 -0.2191
 3581W        W 3581   4.717   3.157   1.184  0.1240 -0.0046  0.0608
 3582W        W 3582   4.564  10.153  10.065 -0.0368  0.0563  0.1790
 3583W        W 3583   0.997   6.101   7.810  0.0101 -0.1771  0.0769
 3584W        W 3584   1.629  10.092   7.059 -0.1599 -0.1922 -0.3028
 3585W        W 3585   9.709   1.990   8.176 -0.0156 -0.1639  0.1999
 3586W        W 3586   6.441   3.704   8.815  0.2492 -0.1343  0.1110
 3587W        W 3587   8.771   7.530   2.787  0.0728 -0.0551  0.0493
 3588W        W 3588   4.224   6.004   3.340  0.0020  0.0795 -0.1088
 3589W        W 3589   3.650  10.103   5.726  0.0168  0.0867 -0.3500
 3590W        W 3590   0.333   2.070   5.005 -0.0242  0.0958  0.1349
 3591W        W 3591   4.092   5.763   4.638  0.0789  0.3177 -0.1166
 3592W        W 3592   9.980   6.971   0.836  0.1124  0.0458 -0.0203
 3593W        W 3593   7.975   7.385   7.136 -0.1755  0.2595 -0.0488
 3594W        W 3594   3.849   6.122   5.682  0.0624 -0.1046  0.0644
 3595W        W 3595   8.213   0.115   0.368  0.0498  0.0765 -0.0579
 3596W        W 3596   9.582   2.129  10.106 -0.0108 -0.3737  0.1880
 3597W        W 3597   4.758   9.314   3.873  0.1532  0.2303 -0.0752
 3598W        W 3598   7.190   4.651   0.225 -0.0160 -0.0993  0.0894
 3599W        W 3599   0.327   3.555   2.926  0.2415  0.1656 -0.0186
 3600W        W 3600  10.271   5.562   3.143  0.2914  0.1133 -0.2941
 3601W        W 3601   5.011   2.097   4.537 -0.2800 -0.4526  0.0759
 3602W        W 3602   2.148   7.809   4.427  0.2700  0.2745 -0.0641
 3603W        W 3603   0.317  10.196   9.454 -0.2260  0.1434 -0.1864
 3604W        W 3604   8.961   1.516   1.557 -0.2719 -0.0526  0.1470
 3605W        W 3605   7.223   3.526   7.504 -0.2293 -0.2083 -0.0488
 3606W        W 3606   5.344   1.752   9.977  0.1069 -0.2439  0.0295
 3607W        W 3607   3.875   3.199   0.609 -0.0308  0.2617  0.2465
 3608W        W 3608   5.468   0.440   9.994  0.0623 -0.1959 -0.0562
 3609W        W 3609   2.501   7.434   5.683 -0.2313  0.2967 -0.1612
 3610W        W 3610   3.176   5.447   5.323 -0.0156 -0.2931 -0.2491
 3611W        W 3611   0.346   0.890   2.910  0.0712 -0.0386 -0.2127
 3612W        W 3612   4.131   8.694   7.526 -0.1788 -0.0715 -0.1888
 3613W        W 3613   8.880   3.443   3.178  0.4882  0.0056 -0.1995
 3614W        W 3614   8.198   7.104   6.407  0.2318  0.0114  0.0237
 3615W        W 3615   4.593   3.778   2.510  0.0838 -0.3598 -0.2457
 3616W        W 3616   1.210   6.340   0.277  0.1591  0.3583 -0.0595
 3617W        W 3617   8.659   8.882   3.165 -0.1624  0.3166 -0.1985
 3618W        W 3618   3.860   8.337   2.693 -0.1975 -0.1676 -0.0710
 3619W        W 3619   7.062   5.134   9.805  0.1061  0.2732  0.0813
 3620W        W 3620   9.781   6.402   0.198  0.0816  0.3924  0.1272
 3621W        W 3621   7.227   6.978   6.157 -0.0322 -0.2219  0.2921
 3622W        W 3622   5.168   7.808   7.094 -0.1151  0.2014 -0.0590
 3623W        W 3623   9.188   1.640   2.925 -0.2529  0.0009 -0.2308
 3624W        W 3624   0.313   3.096   1.527 -0.1488  0.1857 -0.0070
 3625W        W 3625   9.830   4.587   1.215 -0.0172 -0.1751 -0.0470
 3626W        W 3626   5.830   3.356   4.249 -0.1295 -0.1773 -0.0593
 3627W        W 3627   2.703   2.102   2.425 -0.4047  0.0502  0.0043
 3628W        W 3628   9.606   2.472   3.433  0.1671  0.2740 -0.0018
 3629W        W 3629   6.123   2.003   5.752  0.0720 -0.1036  0.0377
 3630W        W 3630   8.004   1.400   7.290  0.1680 -0.0225  0.0734
 3631W        W 3631   5.551   7.854   4.888 -0.0710 -0.0184  0.0732
 3632W        W 3632   6.459   9.966   3.518  0.1679  0.1751  0.0849
 3633W        W 3633   7.520   1.804   9.643  0.1064 -0.2337  0.4949
 3634W        W 3634   3.452   7.416   5.501 -0.0029 -0.1153  0.1107
 3635W        W 3635   6.424   7.071   2.818 -0.0105  0.1215 -0.0040
 3636W        W 3636   1.575   1.409   1.607  0.0174 -0.4521 -0.1471
 3637W        W 3637   8.945   7.381   1.805  0.1701  0.1061 -0.0419
 3638W        W 3638   7.647   1.163   7.002 -0.5729  0.0091 -0.2153
 3639W        W 3639   3.419   2.533   0.735 -0.3619  0.3566 -0.1194
 3640W        W 3640   8.435   0.110   4.548 -0.1551 -0.2215 -0.1873
 3641W        W 3641   1.576   9.442   6.696  0.1069 -0.0415 -0.2745
 3642W        W 3642   8.161   2.756   8.822  0.1673  0.1318 -0.1677
 3643W        W 3643   5.423   4.667   6.194  0.1542 -0.1931 -0.1712
 3644W        W 3644   6.477   7.735   0.002  0.0293 -0.2749 -0.0395
 3645W        W 3645   8.615   2.132   0.643  0.1903  0.0363  0.1704
 3646W        W 3646   5.595   8.439   0.572 -0.5514  0.1561 -0.2206
 3647W        W 3647   4.597   2.403  10.142  0.2629 -0.1417 -0.1668
 3648W        W 3648   5.975   6.092  10.266  0.0394  0.1349  0.0535
 3649W        W 3649   9.193   3.189   2.171  0.1719 -0.1272 -0.0858
 3650W        W 3650   4.613   7.445   4.125 -0.3544  0.0868  0.1091
 3651W        W 3651   0.638   0.399   3.287 -0.0871  0.1945 -0.0667
 3652W        W 3652   7.331   6.636   5.127  0.2608  0.0296 -0.0530
 3653W        W 3653   0.135   1.816   9.714  0.0831  0.1012  0.3359
 3654W        W 3654   8.327   8.772   5.945 -0.1358  0.0659  0.0267
 3655W        W 3655   7.595   3.380   4.672 -0.0094  0.0427 -0.1728
 3656W        W 3656   2.275   9.468   3.772 -0.0811 -0.0376  0.1265
 3657W        W 3657   5.715   7.689   8.315 -0.1070  0.2346  0.0086
 3658W        W 3658   0.730   6.483   7.972 -0.0534 -0.4116  0.0560
 3659W        W 3659   4.511   7.512   9.557 -0.2394  0.1182 -0.0143
 3660W        W 3660   8.838   2.652   6.190  0.2568  0.0249 -0.0666
 3661W        W 3661   2.103   1.554   1.824  0.2470  0.2666  0.2063
 3662W        W 3662   4.085   3.776   8.329 -0.0464 -0.1214 -0.1277
 3663W        W 3663   4.058   4.927   1.906  0.2937  0.0120 -0.0048
 3664W        W 3664   8.908   1.373   9.290 -0.0763  0.0749  0.0432
 3665W        W 3665   6.904   0.687   7.407  0.2315 -0.0450  0.0525
 3666W        W 3666   2.272   3.671   4.315 -0.6472 -0.3652  0.3908
 3667W        W 3667   4.539   7.313   5.064  0.1307 -0.0004 -0.4659
 3668W        W 3668   2.962   1.034   8.367  0.0133 -0.0707 -0.0877
 3669W        W 3669  10.220   7.740   9.363  0.0322 -0.2315 -0.1010
 3670W        W 3670   5.463   8.974   8.234 -0.1484 -0.2381  0.1601
 3671W        W 3671   6.174   3.831   0.829  0.0796 -0.2327 -0.3342
 3672W        W 3672   7.869   5.072   7.245 -0.2490  0.1499 -0.0336
 3673W        W 3673   9.343   1.510   9.010  0.0330 -0.3436 -0.3696
 3674W        W 3674   2.536   3.931   7.389 -0.2937  0.0587 -0.3579
 3675W        W 3675   9.378   4.115   7.392  0.3027  0.0325 -0.1444
 3676W        W 3676   6.444   2.461   1.580  0.1189 -0.0550 -0.3401
 3677W        W 3677   7.308   1.839   3.671 -0.2509  0.1414  0.0148
 3678W        W 3678   3.782   4.853   4.061  0.0714  0.0964 -0.2037
 3679W        W 3679   9.993   1.994   1.477  0.0541 -0.3040 -0.0411
 3680W        W 3680   9.611   2.532   5.118  0.1616 -0.0156 -0.0932
 3681W        W 3681   5.043   0.941   2.009 -0.0735 -0.1987 -0.1988
 3682W        W 3682   1.871   7.687   1.857  0.0957 -0.0398  0.1446
 3683W        W 3683   0.666   2.239   0.692  0.1090  0.0146  0.1985
 3684W        W 3684   5.215   7.203   5.781  0.0409  0.3111  0.0580
 3685W        W 3685   9.927   4.522   4.947  0.1187 -0.0540 -0.2333
 3686W        W 3686   3.406   0.370   9.798  0.1193  0.0261 -0.1408
 3687W        W 3687   1.554   3.190   2.951  0.2110  0.0798 -0.2125
 3688W        W 3688   3.403   7.409   3.403  0.0681 -0.0474 -0.0763
 3689W        W 3689   8.898   6.441   6.065  0.1827 -0.1006  0.0824
 3690W        W 3690   3.078   0.561   1.822  0.4136 -0.1420 -0.0179
 3691W        W 3691   9.607   1.536   8.436 -0.0487  0.1227  0.1067
 3692W        W 3692   3.854   7.183   6.371 -0.3949 -0.0125 -0.0111
 3693W        W 3693   4.826   6.575   8.093  0.0652 -0.2571  0.2150
 3694W        W 3694   3.666   5.779  10.140  0.2662  0.0848  0.0480
 3695W        W 3695   2.378   5.376   7.649 -0.1149 -0.0698 -0.1855
 3696W        W 3696   7.937   1.253   8.836 -0.2578  0.1495  0.1234
 3697W        W 3697   6.182   5.965   1.304 -0.0810 -0.0937 -0.1261
 3698W        W 3698   4.949   5.099   0.256 -0.1736  0.2532 -0.1051
 3699W        W 3699   9.981   4.691   3.455  0.0195 -0.0194 -0.2425
 3700W        W 3700   2.860   4.995   7.718  0.0573 -0.2572  0.2815
 3701W        W 3701  10.208   0.150   6.889  0.0983  0.1039 -0.0690
 3702W        W 3702   0.789   9.282   1.726  0.0196 -0.0913  0.3374
 3703W        W 3703   8.170   1.942   5.896 -0.2567  0.0203  0.0581
 3704W        W 3704   4.270   5.881   0.305  0.0415 -0.1516  0.3913
 3705W        W 3705   6.891   2.984   8.215 -0.1833 -0.1334 -0.5098
 3706W        W 3706   3.091   6.230   3.990  0.0411 -0.0119  0.0251
 3707W        W 3707   0.976   6.623   1.570  0.2019 -0.1992  0.2757
 3708W        W 3708   2.323   4.309   3.030 -0.0355  0.1406  0.2463
 3709W        W 3709   9.128   1.457   8.475 -0.1603  0.3706  0.2338
 3710W        W 3710   1.978   3.009   9.603 -0.0143  0.0281 -0.2480
 3711W        W 3711   4.287   2.228   6.231 -0.4177 -0.3696  0.0180
 3712W        W 3712   6.157   8.399   6.882  0.0308 -0.0164 -0.1882
 3713W        W 3713   1.503   4.388   5.109 -0.0274  0.1586  0.2632
 3714W        W 3714   7.970   8.182   0.235  0.2982  0.1092  0.1470
 3715W        W 3715   0.987   4.093   6.417  0.1384  0.1522  0.2899
 3716W        W 3716   5.689   9.392   7.925 -0.0294  0.2176  0.3796
 3717W        W 3717   0.162   7.185   6.134  0.0115  0.0894 -0.0991
 3718W        W 3718   2.972   4.096   5.296  0.0644  0.0694 -0.0488
 3719W        W 3719   7.515   2.983   4.314  0.1972 -0.1352  0.2737
 3720W        W 3720   9.299   3.704   0.955 -0.0694  0.0095 -0.0245
 3721W        W 3721   0.664   4.556   7.305 -0.0306 -0.0368 -0.0571
 3722W        W 3722  10.328   1.253   6.395 -0.1089 -0.0047 -0.1473
 3723W        W 3723   1.118   5.583   5.099  0.3207  0.3293  0.2111
 3724W        W 3724   1.638   8.524   6.699 -0.1596  0.1655  0.0553
 3725W        W 3725   2.342   1.871   5.362 -0.1298 -0.0371 -0.2267
 3726W        W 3726   6.379   2.100   2.783  0.1233  0.0718 -0.0258
 3727W        W 3727   5.452   4.180   4.350  0.0582  0.0312 -0.3209
 3728W        W 3728   3.877   8.626   1.109  0.0919 -0.3459  0.2300
 3729W        W 3729   3.083   0.621   5.140  0.2159 -0.3471 -0.0890
 3730W        W 3730   7.391   4.983   9.113  0.0282 -0.0637  0.0071
 3731W        W 3731   0.831   2.011   8.589 -0.1651  0.0923  0.2071
 3732W        W 3732   0.446   1.616   5.716 -0.4964 -0.0119  0.2145
 3733W        W 3733   8.065   2.214   7.856  0.2697  0.1597  0.1190
 3734W        W 3734   1.005   6.696   9.853 -0.2355 -0.0108 -0.0839
 3735W        W 3735   1.618   6.251   2.225 -0.0542 -0.0725 -0.2400
 3736W        W 3736   2.427   8.806   1.052 -0.1616 -0.3336  0.0576
 3737W        W 3737   0.824   7.172   0.202 -0.2659  0.1063  0.2912
 3738W        W 3738   8.135   0.074   6.734 -0.1138  0.3244  0.0119
 3739W        W 3739   7.240   3.677  10.012  0.0759 -0.3246  0.3069
 3740W        W 3740   2.793   8.051   6.141 -0.2301  0.3584  0.0506
 3741W        W 3741   0.405   0.805   7.303  0.2528  0.1392  0.2664
 3742W        W 3742   8.905   8.317   8.303  0.2317 -0.2737 -0.0030
 3743W        W 3743   0.364   6.375   7.370 -0.0593  0.0274  0.0975
 3744W        W 3744  10.060   1.511  10.121  0.0324  0.0480  0.1954
 3745W        W 3745   1.072   5.725   6.523  0.3432 -0.0393  0.0940
 3746W        W 3746   6.383   4.136   8.445 -0.1574  0.1489 -0.3400
 3747W        W 3747   5.141   5.343   2.351  0.1442  0.0240  0.1383
 3748W        W 3748   2.864   6.505   4.432 -0.2949  0.1729  0.0754
 3749W        W 3749  10.061   2.620   3.534 -0.1719  0.2778  0.0652
 3750W        W 3750   8.715   7.322   6.447 -0.0306  0.2006  0.0261
 3751W        W 3751   7.209   7.551   9.150 -0.3169 -0.0609  0.0379
 3752W        W 3752   9.571   4.581   0.529 -0.1348  0.0528 -0.0978
 3753W        W 3753   1.844   1.189   0.122  0.1555 -0.2052 -0.1153
 3754W        W 3754   7.704   2.740   3.930  0.1138 -0.3516  0.1954
 3755W        W 3755   8.167   4.837   1.434  0.0179  0.0995  0.2269
 3756W        W 3756   9.437   7.681   8.976 -0.3116  0.1911  0.1475
 3757W        W 3757   8.749   4.240   9.242 -0.3828  0.1380 -0.3626
 3758W        W 3758   9.068   8.409   7.878 -0.0129 -0.1640 -0.0290
 3759W        W 3759   5.463   1.107   1.738  0.4060 -0.1681 -0.5336
 3760W        W 3760   6.543   7.835   5.524 -0.3680 -0.1473 -0.1154
 3761W        W 3761   8.638   1.893   6.154  0.3241 -0.2598  0.0107
 3762W        W 3762   7.247   7.412   5.075  0.3220 -0.1526  0.2039
 3763W        W 3763   2.670   2.413   0.043  0.0051 -0.1304  0.0568
 3764W        W 3764   1.882   9.806   2.728  0.0708  0.0941  0.3154
 3765W        W 3765   1.910   1.614   5.224  0.2503  0.1020 -0.0904
 3766W        W 3766   9.035   9.143   6.609  0.1914  0.0709  0.1187
 3767W        W 3767   9.757   9.437   6.122  0.1302  0.0469 -0.1420
 3768W        W 3768   5.155   9.165   6.991  0.0521  0.0695  0.0234
 3769W        W 3769   2.206   9.422   1.058  0.0019  0.4017  0.2915
 3770W        W 3770   0.935   1.086   5.822 -0.0916 -0.0547  0.2350
 3771W        W 3771   1.774   2.086   0.530 -0.0016 -0.2116 -0.0930
 3772W        W 3772   0.329   5.471   7.971 -0.2955  0.2148  0.0678
 3773W        W 3773   6.324   1.437   4.576 -0.0770 -0.1281  0.0374
 3774W        W 3774   5.089   5.572   0.284 -0.4654  0.4855  0.2623
 3775W        W 3775   4.467   1.820   4.641 -0.1645  0.1037  0.0093
 3776W        W 3776   7.390   7.752   1.611  0.0259  0.0487 -0.2437
 3777W        W 3777   3.655   2.157   6.912  0.2465 -0.0727  0.1287
 3778W        W 3778   3.399   1.210   6.736 -0.1242  0.4965 -0.0673
 3779W        W 3779   6.954   0.005   8.930 -0.0033 -0.2044 -0.0937
 3780W        W 3780   3.660   6.006   1.232 -0.1198  0.3077  0.1342
 3781W        W 3781   8.649   1.787   5.194  0.0932 -0.0533 -0.0104
 3782W        W 3782   0.415   6.197   2.128  0.4072 -0.0635  0.1357
 3783W        W 3783   4.599   5.856   1.012 -0.1175 -0.0619  0.0578
 3784W        W 3784   0.062   9.773   1.151 -0.0048 -0.0361  0.0631
 3785W        W 3785   7.520   3.586   0.699  0.0848  0.2075 -0.2618
 3786W        W 3786   6.887   8.620   7.708 -0.1191 -0.0223  0.0728
 3787W        W 3787   0.142   5.710   2.700 -0.0497  0.4890  0.1211
 3788W        W 3788   2.030   9.797   8.849  0.0642 -0.2385 -0.1016
 3789W        W 3789   1.392   5.342   3.589  0.0887  0.2400 -0.1804
 3790W        W 3790   5.714   4.529   3.936  0.1834  0.3666  0.1883
 3791W        W 3791   4.289   1.998   6.928  0.1335 -0.0692  0.0726
 3792W        W 3792   8.964   4.251  10.202 -0.0569  0.2083 -0.2724
 3793W        W 3793   1.971   9.641   3.228 -0.0535 -0.0308 -0.1610
 3794W        W 3794   9.794   7.183   9.641  0.0797 -0.0599 -0.1256
 3795W        W 3795   0.032   8.262   1.371  0.0417 -0.1180 -0.3550
 3796W        W 3796   2.277   8.753   8.357 -0.0662  0.4804 -0.0513
 3797W        W 3797   7.428   0.431   4.027  0.0698  0.0401  0.3261
 3798W        W 3798   7.846   4.550   9.830  0.3103  0.1394  0.0234
 3799W        W 3799   9.115   8.715   6.209 -0.0053  0.1846 -0.3583
 3800W        W 3800   5.694   0.498   3.187 -0.1731 -0.0606 -0.1287
 3801W        W 3801   7.417   2.788   9.842  0.1585  0.2323 -0.2794
 3802W        W 3802   1.012   4.734   7.642  0.2482  0.1320  0.0139
 3803W        W 3803   1.955   7.355   1.431 -0.3949 -0.0181 -0.1779
 3804W        W 3804   4.778   4.819   4.340  0.0297  0.0533  0.1226
 3805W        W 3805   6.986   5.688   2.120 -0.0914 -0.0382 -0.0192
 3806W        W 3806   3.185   0.425   8.043 -0.0240  0.2204  0.4393
 3807W        W 3807   1.686   6.207   6.264 -0.2713 -0.0376  0.1192
 3808W        W 3808  10.134   1.500   3.141  0.1052 -0.1529  0.0335
 3809W        W 3809   9.409   0.624   5.268 -0.0734  0.1036 -0.0069
 3810W        W 3810   4.614   4.382   6.442 -0.0767 -0.1272  0.0993
 3811W        W 3811   3.018   4.799   4.849  0.1123 -0.0599  0.0092
 3812W        W 3812   9.786   4.072   2.282 -0.0700 -0.1949 -0.0963
 3813W        W 3813   1.097   9.878   9.429 -0.2208 -0.1068  0.1647
 3814W        W 3814   8.071   5.308   1.473 -0.1434  0.0634 -0.3402
 3815W        W 3815   4.256   8.555   8.089 -0.2241 -0.0739  0.2992
 3816W        W 3816   6.441   8.231   0.047 -0.2364 -0.2414  0.1526
 3817W        W 3817   3.557   8.170   5.651 -0.0646 -0.0352  0.0199
 3818W        W 3818   4.377   5.782   6.634  0.2526  0.0340 -0.1505
 3819W        W 3819  10.271   9.633   7.261  0.1333 -0.0059 -0.2972
 3820W        W 3820   4.955   8.804   8.168 -0.2462 -0.2576  0.0106
 3821W        W 3821   3.516   7.075   6.829  0.3363 -0.0244 -0.2797
 3822W        W 3822   4.394   9.980   4.543  0.2380 -0.0148 -0.1897
 3823W        W 3823   2.560   2.280   6.123  0.0630  0.2804 -0.1277
 3824W        W 3824   7.458   3.219   1.983  0.1263 -0.3027 -0.2807
 3825W        W 3825   3.709   7.232   2.654  0.0275  0.1336  0.1499
 3826W        W 3826   6.091   1.304   8.281 -0.2511  0.0198  0.2548
 3827W        W 3827   6.099   1.516   7.277 -0.2276 -0.0506 -0.0277
 3828W        W 3828   8.623   8.249   5.003  0.2308 -0.0075 -0.2257
 3829W        W 3829   7.069   4.290   1.876 -0.1363  0.0629 -0.0326
 3830W        W 3830   2.293   5.795   3.150  0.1124  0.0087 -0.0786
 3831W        W 3831   8.686   7.593   0.420  0.0750 -0.0027 -0.1143
 3832W        W 3832   7.647   9.017   7.794 -0.2610 -0.1252 -0.0695
 3833W        W 3833   4.883   5.920   0.049  0.3796  0.2582  0.0219
 3834W        W 3834   0.885   8.105   3.363 -0.1437  0.2172 -0.0875
 3835W        W 3835   8.802   1.057   4.397  0.1247 -0.1745 -0.0783
 3836W        W 3836   1.809   6.410   9.461 -0.1456  0.2417 -0.0276
 3837W        W 3837   4.312   9.568   7.874 -0.1642  0.2420 -0.0790
 3838W        W 3838   9.817   7.439   5.079 -0.0048  0.0411  0.0377
 3839W        W 3839   3.951   3.024   5.610  0.2408 -0.1096 -0.1733
 3840W        W 3840   3.450   0.466   1.502  0.0307 -0.3316  0.2097
 3841W        W 3841   1.005   9.206   2.687  0.2937 -0.0177 -0.0533
 3842W        W 3842   8.819   8.016   2.719 -0.1185 -0.2677  0.3025
 3843W        W 3843   8.285   2.783   0.822  0.1878 -0.3796 -0.0390
 3844W        W 3844   9.489   4.771   9.205 -0.0525 -0.2186 -0.6001
 3845W        W 3845   2.397   0.620   9.223 -0.1508 -0.2593 -0.1515
 3846W        W 3846   3.662   6.826   5.985 -0.0186 -0.0180  0.0569
 3847W        W 3847   2.327   9.094   4.187  0.2292  0.2977  0.1740
 3848W        W 3848   5.689   0.392   9.319  0.2289 -0.2294  0.1614
 3849W        W 3849   2.299   1.446   6.731 -0.2433  0.1088  0.0414
 3850W        W 3850   3.836   7.337   3.134  0.3557 -0.0841  0.3650
 3851W        W 3851   8.883   4.750   3.086  0.2283  0.2802 -0.1591
 3852W        W 3852   8.688   8.464   0.594 -0.1100 -0.3425 -0.1003
 3853W        W 3853   1.290   2.412   7.791  0.1305 -0.1793 -0.2579
 3854W        W 3854   0.666   3.221   3.026  0.1457 -0.0859  0.0488
 3855W        W 3855   1.677   1.192   1.132  0.6373 -0.2738 -0.3478
 3856W        W 3856   5.142   2.102   1.303  0.1340 -0.2683  0.0178
 3857W        W 3857   0.698   0.976   7.640  0.0322  0.2281  0.3336
 3858W        W 3858   1.595   8.864   1.393 -0.0163 -0.2524 -0.0307
 3859W        W 3859  10.291   4.317   4.471 -0.1740  0.0791 -0.0243
 3860W        W 3860   0.193   6.877   2.689 -0.1026  0.0480  0.1217
 3861W        W 3861   3.155   8.548   9.009 -0.0745  0.1611 -0.0847
 3862W        W 3862   0.440   3.668   6.940  0.1904 -0.1271 -0.1380
 3863W        W 3863   9.632   8.918   1.246 -0.1777 -0.0098  0.0239
 3864W        W 3864   0.513   2.570   6.709 -0.1561  0.1161 -0.1430
 3865W        W 3865   9.379   3.818   6.441  0.2672 -0.1104 -0.2633
 3866W        W 3866   2.027   8.716   0.696  0.1979 -0.0777 -0.0518
 3867W        W 3867   1.167   1.469   9.852 -0.3084 -0.4151  0.3540
 3868W        W 3868   5.385   5.071   6.505 -0.3232  0.1100 -0.0885
 3869W        W 3869   6.613   5.734   3.961  0.1092  0.0096 -0.1037
 3870W        W 3870   0.436   5.850   3.892  0.1507 -0.3517 -0.0134
 3871W        W 3871   5.975   2.917   4.771 -0.0682 -0.2062  0.2200
 3872W        W 3872   7.322   9.879   7.020 -0.0375 -0.0906  0.2184
 3873W        W 3873   1.463   9.402   8.206  0.3555 -0.3631  0.2642
 3874W        W 3874   9.313   2.050   2.296 -0.5000  0.0874 -0.0789
 3875W        W 3875   7.601   6.838   9.330  0.1400 -0.0473 -0.1671
 3876W        W 3876   2.623   5.282   6.084  0.1593 -0.3339 -0.0754
 3877W        W 3877   1.277   9.026   8.548 -0.0028  0.1330 -0.1871
 3878W        W 3878   4.901   9.965   4.318  0.4273  0.3112 -0.3308
 3879W        W 3879   3.316   9.985   6.797  0.1865  0.0023  0.0356
 3880W        W 3880   4.611   3.221   6.772  0.1695  0.1384  0.0165
 3881W        W 3881   7.900   1.339   1.399  0.1937  0.2482  0.1145
 3882W        W 3882   5.227   6.215   6.505 -0.1764  0.0668 -0.0013
 3883W        W 3883   4.415   4.778   5.108 -0.3219 -0.1024  0.0573
 3884W        W 3884   6.105   8.701   1.787 -0.1276 -0.0913 -0.0288
 3885W        W 3885   6.799   2.150   1.758  0.0789  0.2198  0.2633
 3886W        W 3886   5.040   6.308   3.715  0.2024 -0.3060 -0.1265
 3887W        W 3887   1.949   6.179  10.280 -0.1120  0.0592 -0.3085
 3888W        W 3888   2.439   4.800   8.583  0.0915 -0.1406 -0.2929
 3889W        W 3889   7.580   7.725   6.383 -0.0435  0.0339 -0.0397
 3890W        W 3890  10.269   7.472   4.242 -0.1461 -0.0642  0.0983
 3891W        W 3891   3.388   1.210   9.988  0.0461  0.0060 -0.0538
 3892W        W 3892   3.405   3.261   8.213  0.5725 -0.0054 -0.1406
 3893W        W 3893   3.998   4.822   0.029  0.2137  0.0659 -0.2433
 3894W        W 3894   4.333   5.541   3.197 -0.3349 -0.2236  0.2518
 3895W        W 3895   6.702   4.716   9.186  0.0294  0.3003 -0.2043
 3896W        W 3896   7.282   1.535   9.981  0.2619 -0.1088 -0.1355
 3897W        W 3897   0.658   5.885   2.758  0.3387 -0.1886  0.3474
 3898W        W 3898   8.921   8.685   5.293  0.1194 -0.0317  0.2963
 3899W        W 3899   9.230   2.214   7.980  0.1630  0.3940 -0.0461
 3900W        W 3900   4.360   4.181   6.015  0.0835 -0.3361  0.0520
 3901W        W 3901   6.360   4.535   1.500 -0.1203 -0.1520 -0.0773
 3902W        W 3902   5.184   7.192   3.241  0.0266  0.0312  0.2375
 3903W        W 3903   8.529   2.527   3.088 -0.0416 -0.1216  0.0657
 3904W        W 3904   6.401   8.238   9.563 -0.2083 -0.4415  0.1590
 3905W        W 3905   2.685   8.559   9.169 -0.3187  0.2593  0.0317
 3906W        W 3906   6.525   1.216   7.946  0.0843  0.1152 -0.0489
 3907W        W 3907   1.756   8.327   0.295 -0.0943 -0.1629  0.0935
 3908W        W 3908   5.684   6.965   5.975  0.1386  0.1396  0.0966
 3909W        W 3909   2.865   3.061   2.425  0.0456  0.2138  0.0614
 3910W        W 3910   0.656   0.622   5.265  0.0517  0.1557  0.1100
 3911W        W 3911   5.736   9.045   6.378  0.0330 -0.1489  0.0105
 3912W        W 3912   1.866   4.059   5.011 -0.2273  0.1369 -0.0073
 3913W        W 3913   3.208   7.127   5.156 -0.0605  0.1245 -0.1950
 3914W        W 3914   3.371   3.010   9.532  0.5309 -0.3716 -0.5645
 3915W        W 3915   5.574   8.348   4.685 -0.1077  0.3400  0.0473
 3916W        W 3916   2.791   9.278   5.774  0.2558 -0.1934 -0.2532
 3917W        W 3917   5.043   4.974   5.961 -0.2945 -0.2305  0.2714
 3918W        W 3918   8.895  10.321   5.828 -0.1591  0.3967 -0.0939
 3919W        W 3919   4.733   3.864   3.929  0.2333  0.0299  0.2064
 3920W        W 3920   2.654   8.604   4.451 -0.0846 -0.0306  0.0049
 3921W        W 3921   1.751   2.650   6.612  0.0383  0.0715 -0.3512
 3922W        W 3922   0.731   6.010   6.317 -0.3960 -0.2219  0.1263
 3923W        W 3923   4.601   5.568   5.352  0.0462 -0.0583  0.0063
 3924W        W 3924   4.052   1.242   3.716 -0.2697  0.1218  0.0595
 3925W        W 3925   0.202   1.113   8.640 -0.1260 -0.2750 -0.1010
 3926W        W 3926   2.265   5.177   0.037 -0.2927  0.1745  0.0907
 3927W        W 3927   2.760   6.635   7.706 -0.1102  0.0931  0.2952
 3928W        W 3928   2.771   5.537   3.702  0.0741 -0.0902  0.0856
 3929W        W 3929   5.554   4.820   3.571 -0.1773 -0.0882  0.0760
 3930W        W 3930   0.068   7.430   3.468  0.0433 -0.0114  0.1243
 3931W        W 3931   6.350   1.883   4.929 -0.1071  0.3310 -0.1324
 3932W        W 3932   8.988   2.777   0.116  0.1502 -0.0898 -0.0612
 3933W        W 3933   5.446   7.684   3.891 -0.0351  0.0041 -0.1748
 3934W        W 3934   7.882   4.219   0.072  0.1551 -0.0842  0.1473
 3935W        W 3935   0.680   1.933   2.231 -0.2019  0.0509  0.0711
 3936W        W 3936   4.545   3.315   4.735 -0.1310  0.1355  0.2546
 3937W        W 3937   6.399   5.056   2.177 -0.1750  0.2549  0.3101
 3938W        W 3938   3.840   8.690   5.311  0.2709 -0.3802  0.1028
 3939W        W 3939   9.352   1.459   9.509 -0.0653 -0.0373 -0.0335
 3940W        W 3940   6.058   9.800   2.069  0.0595 -0.0141 -0.0265
 3941W        W 3941   2.251   1.563   8.654 -0.2741 -0.3247 -0.0630
 3942W        W 3942   0.691   2.047   6.409 -0.4247  0.1374  0.3454
 3943W        W 3943   6.851   2.985   5.122 -0.0663  0.0574 -0.0364
 3944W        W 3944   9.937   2.137   0.176 -0.0086 -0.2031  0.0781
 3945W        W 3945   7.912   2.492   3.044  0.0543  0.0563  0.3579
 3946W        W 3946   0.088   7.850   7.644 -0.0783  0.0647 -0.1041
 3947W        W 3947   8.786   6.578   4.682 -0.0104 -0.3494  0.2147
 3948W        W 3948   4.662   9.943   9.259 -0.2655 -0.2414  0.1065
 3949W        W 3949   4.594   3.526   8.960  0.1716  0.1098  0.0070
 3950W        W 3950   6.785   5.548   1.213  0.1412 -0.2924 -0.3009
 3951W        W 3951   0.968   1.405   7.658  0.2017  0.3835 -0.0928
 3952W        W 3952   7.028   0.403   0.887  0.0323  0.1080  0.0369
 3953W        W 3953   2.334   4.425   1.403 -0.0670  0.1388 -0.1937
 3954W        W 3954   5.679   1.510   1.541 -0.3478 -0.1728  0.0861
 3955W        W 3955   9.974   6.781   9.341  0.2719  0.0021  0.0633
 3956W        W 3956   7.432   3.534   0.242  0.0553 -0.1036 -0.0270
 3957W        W 3957   9.347   9.993   6.635 -0.0211 -0.0233 -0.1256
 3958W        W 3958   0.786   8.523   2.458 -0.2284 -0.0774  0.0486
 3959W        W 3959   2.869   4.388   7.381 -0.0022 -0.1898  0.0927
 3960W        W 3960   6.619   5.006   8.257 -0.0783 -0.0623  0.2297
 3961W        W 3961   5.748   5.792   9.748  0.1168  0.4038  0.0277
 3962W        W 3962   4.993   8.680   5.826 -0.2093  0.0804  0.0830
 3963W        W 3963   4.715   2.383   4.817 -0.1543  0.1409 -0.2767
 3964W        W 3964   4.110   9.905   9.232 -0.2340 -0.1133 -0.0145
 3965W        W 3965   8.660   6.443   3.740  0.1636 -0.0681  0.2069
 3966W        W 3966   0.159  10.094   3.509 -0.1034  0.0518 -0.3239
 3967W        W 3967   2.756   3.874   3.556  0.0135  0.0449  0.2843
 3968W        W 3968   5.326   4.813   6.995 -0.0612 -0.0510  0.1450
 3969W        W 3969   2.530   7.189   4.637 -0.3443 -0.0721 -0.0783
 3970W        W 3970   6.446   5.753   6.963 -0.0103 -0.2082  0.1299
 3971W        W 3971   6.207   7.765   6.250 -0.4259 -0.4531  0.2091
 3972W        W 3972   0.819   1.671   8.197 -0.1032 -0.0792 -0.1365
 3973W        W 3973   7.560   9.013   3.942 -0.1696 -0.1581 -0.0157
 3974W        W 3974   6.323   6.078   6.384 -0.0477 -0.0134  0.3230
 3975W        W 3975   2.369   3.342   8.152  0.2871 -0.0212 -0.1567
 3976W        W 3976   0.734   8.993   4.544 -0.1889  0.0887 -0.0073
 3977W        W 3977   7.122   2.433   3.993  0.1305  0.0437  0.0652
 3978W        W 3978   8.949   4.523   5.810 -0.0611 -0.2448  0.1053
 3979W        W 3979   2.046   3.845   7.311 -0.0921 -0.0662  0.1575
 3980W        W 3980   7.252   3.573   8.784  0.0792  0.0628  0.0795
 3981W        W 3981   2.831  10.178   4.156 -0.0255 -0.1610 -0.2727
 3982W        W 3982   3.049   6.762   3.960  0.1186  0.2182 -0.0682
 3983W        W 3983   3.605   6.480   2.164 -0.4014 -0.1329  0.0223
 3984W        W 3984   4.237   7.173   4.670 -0.0835  0.0463 -0.2129
 3985W        W 3985   0.566   3.542   3.442 -0.0587  0.1113 -0.2870
 3986W        W 3986   9.210   3.763   0.124 -0.2222  0.0709 -0.3001
 3987W        W 3987   4.432   3.017   8.812 -0.1775  0.3113 -0.0426
 3988W        W 3988   2.091   1.977   6.131  0.0763  0.3223 -0.1811
 3989W        W 3989   4.166   2.566   0.052 -0.2082 -0.2549  0.2795
 3990W        W 3990   7.654   4.756   2.518 -0.1856 -0.0614  0.0871
 3991W        W 3991   9.852   0.338   6.572 -0.0828  0.1087 -0.1688
 3992W        W 3992   0.361   0.795   1.620 -0.1853  0.1816 -0.1256
 3993W        W 3993   9.317   2.418   0.329 -0.1410 -0.0468 -0.0828
 3994W        W 3994   5.075   1.454   4.410  0.0133  0.2380  0.2385
 3995W        W 3995   9.554   1.861   6.921 -0.2609 -0.1947  0.1041
 3996W        W 3996   8.014   1.643   3.330 -0.0253  0.0893 -0.0469
 3997W        W 3997   2.176   6.800   2.848 -0.0157 -0.1205 -0.0717
 3998W        W 3998   3.606   8.279   6.224  0.1673 -0.1229 -0.0984
 3999W        W 3999   9.038   4.940   4.511 -0.1112 -0.1317  0.0593
 4000W        W 4000   3.900   5.223   9.308  0.1872  0.3978  0.0110
 4001W        W 4001  10.198   4.271   7.526  0.2125  0.3910 -0.1643
 4002W        W 4002   1.985   3.079   1.952  0.0769  0.0908  0.2391
 4003W        W 4003   5.565   1.747   0.645  0.0286  0.0427 -0.3923
 4004W        W 4004   1.171   8.207   0.402 -0.3046 -0.0291 -0.0681
 4005W        W 4005   5.623   2.174   5.757  0.3470  0.1206  0.1642
 4006W        W 4006   5.509   7.349   7.392  0.0958 -0.0723  0.0835
 4007W        W 4007   2.933   2.047  10.103 -0.1316 -0.1609  0.0786
 4008W        W 4008   0.354   3.203   0.522 -0.1925 -0.2576  0.0165
 4009W        W 4009   1.848   9.127   3.255  0.0486 -0.0521  0.2245
 4010W        W 4010   8.340   5.246   9.099  0.0953  0.1895 -0.0403
 4011W        W 4011   4.069   3.860   2.481 -0.0275  0.2850 -0.0557
 4012W        W 4012   7.297   6.692   8.150  0.1390  0.0719 -0.0154
 4013W        W 4013   4.127   8.263   2.176  0.0501  0.0677  0.0341
 4014W        W 4014   4.192   7.002   8.578  0.0334 -0.1619 -0.1536
 4015W        W 4015   8.230   9.052   7.838  0.2278  0.0471 -0.2114
 4016W        W 4016   2.241   9.197   5.527  0.0182  0.3018  0.0270
 4017W        W 4017   7.418   0.750   0.773  0.1695 -0.0666 -0.0389
 4018W        W 4018   4.042   6.771   4.965 -0.1043  0.1316 -0.2451
 4019W        W 4019   9.688   3.591   3.056 -0.0560 -0.1123  0.0971
 4020W        W 4020   6.464   4.759   6.376  0.1597 -0.1772 -0.0033
 4021W        W 4021   4.950   1.168   5.340 -0.0506  0.1771 -0.1977
 4022W        W 4022   6.765   2.614   4.347  0.0107 -0.4948  0.0542
 4023W        W 4023   2.060   3.061   2.858 -0.0562  0.2367 -0.2548
 4024W        W 4024   1.391   5.681   3.951 -0.0582 -0.2215 -0.1402
 4025W        W 4025   0.125   9.447   5.323  0.2778  0.0557 -0.2838
 4026W        W 4026  10.246   2.731   3.094 -0.0883 -0.0461 -0.4345
 4027W        W 4027   7.184   4.730   8.430  0.0631  0.0056 -0.2668
 4028W        W 4028   9.634   1.009   4.472 -0.0367  0.2321 -0.0897
 4029W        W 4029   8.555   0.740   8.814  0.0648 -0.1423 -0.1580
 4030W        W 4030   2.957   6.988   6.957  0.1330  0.1046 -0.1234
 4031W        W 4031   9.714   4.343   1.828  0.1382 -0.0894 -0.0087
 4032W        W 4032   3.390   2.583   6.072 -0.2491  0.1588 -0.0411
 4033W        W 4033   7.696   9.609   5.519 -0.0661  0.1021  0.1629
 4034W        W 4034   7.413   4.202   4.231 -0.2082  0.1156  0.0097
 4035W        W 4035   8.337   9.381  10.128  0.0953 -0.1196  0.1705
 4036W        W 4036   9.599   6.935   3.720  0.2408 -0.2060  0.3134
 4037W        W 4037   6.991  10.228   6.199  0.0243 -0.0524  0.0324
 4038W        W 4038   4.945   4.919   7.340  0.0663  0.1455  0.1924
 4039W        W 4039   4.616   8.075   0.961 -0.2719 -0.2552 -0.2705
 4040W        W 4040   2.454   4.977   2.295  0.1970 -0.0680  0.0844
 4041W        W 4041   2.768   4.359   2.831  0.2359  0.2114  0.1395
 4042W        W 4042   8.147   7.116   0.896 -0.0612 -0.0892 -0.0135
 4043W        W 4043   7.372   2.076  10.042  0.3144  0.1463 -0.1438
 4044W        W 4044   4.553   2.662   6.345  0.2672 -0.2402  0.0941
 4045W        W 4045   4.230   0.646   8.506  0.0577 -0.0824  0.2279
 4046W        W 4046   4.894   6.479   1.654  0.0051 -0.1911 -0.0872
 4047W        W 4047   7.541   5.483   8.047 -0.1105  0.1720 -0.4705
 4048W        W 4048   4.327  10.242   1.886 -0.1376 -0.3209  0.1107
 4049W        W 4049   8.265   3.729   7.564 -0.2240 -0.4060 -0.1035
 4050W        W 4050   2.141   0.764   5.708 -0.1572 -0.0375  0.2921
 4051W        W 4051   4.055   2.167   0.453 -0.0462 -0.1933  0.0594
 4052W        W 4052   9.362   7.692   3.397 -0.1267  0.0560 -0.1535
 4053W        W 4053   7.724   3.772   3.256  0.2483  0.1503 -0.0958
 4054W        W 4054   2.573   9.478   6.777 -0.1384  0.0272  0.2933
 4055W        W 4055   5.743   2.354   2.452  0.0521 -0.1515 -0.3050
 4056W        W 4056   6.554   7.145   7.200 -0.0304  0.0794 -0.2259
 4057W        W 4057   0.114   3.825   1.551 -0.1327  0.0962 -0.1796
 4058W        W 4058   8.060   9.181   4.013  0.1635  0.1260 -0.0083
 4059W        W 4059   0.905   1.187   8.097  0.2607 -0.1487  0.2407
 4060W        W 4060   3.168   4.260   7.755  0.1713  0.1687 -0.3885
 4061W        W 4061   7.730   9.598   5.027 -0.1642 -0.0265  0.3079
 4062W        W 4062   4.680   9.705  10.166  0.2650 -0.0851 -0.1331
 4063W        W 4063   6.025   2.635   0.380 -0.0102 -0.0258  0.0756
 4064W        W 4064   0.376   4.122   6.026  0.2726 -0.0888 -0.0668
 4065W        W 4065   2.053   4.887   6.408 -0.4723 -0.1871 -0.1568
 4066W        W 4066   1.801   6.041   3.264  0.1494 -0.0045 -0.2322
 4067W        W 4067   6.980  10.023   2.257  0.2702 -0.1334  0.0582
 4068W        W 4068   6.774   0.706   9.654 -0.0377  0.1120 -0.1335
 4069W        W 4069   7.931   8.381   0.747 -0.0256 -0.0085 -0.3774
 4070W        W 4070   1.899   2.621   5.615  0.1315 -0.3828 -0.2773
 4071W        W 4071   3.489   8.036   9.768 -0.0840  0.0010  0.3705
 4072W        W 4072   9.953   9.873   2.638  0.1584 -0.0886 -0.0948
 4073W        W 4073   8.563   8.937   1.829  0.0670 -0.0863 -0.0426
 4074W        W 4074   5.307   9.058   5.802  0.0066 -0.0712 -0.0839
 4075W        W 4075   3.904   4.716   3.585  0.0125 -0.0936 -0.1382
 4076W        W 4076   0.478   8.789   8.679 -0.1793  0.3425  0.1042
 4077W        W 4077   2.193   3.750   2.685  0.0089 -0.0275 -0.0888
 4078W        W 4078   7.662   9.154   5.244  0.3513  0.0334 -0.0948
 4079W        W 4079   5.131   2.385   6.529 -0.0494  0.0933  0.1675
 4080W        W 4080   9.952   4.449   9.549  0.4597  0.0679  0.0506
 4081W        W 4081   6.341   6.469   5.956  0.2468 -0.0796  0.0929
 4082W        W 4082   6.625   7.917   3.120  0.0757  0.3764  0.0227
 4083W        W 4083   8.727   5.464   9.424 -0.0012  0.3625  0.3034
 4084W        W 4084   4.177   8.817   9.932 -0.1251  0.2510  0.0850
 4085W        W 4085   1.866   9.233   2.439 -0.0261  0.0207  0.1413
 4086W        W 4086   5.249   5.069   4.577  0.1501  0.0840  0.0186
 4087W        W 4087   1.648   3.084   2.466 -0.2470  0.0679 -0.0031
 4088W        W 4088   1.492   2.409   5.418 -0.0600  0.1732  0.3337
 4089W        W 4089  10.262   2.718   1.432 -0.1788 -0.1213  0.0192
 4090W        W 4090   1.882   9.977   5.490 -0.0706 -0.0113 -0.3038
 4091W        W 4091   8.504   1.587   2.316 -0.1314  0.1357 -0.3856
 4092W        W 4092   2.946   7.090   6.062  0.0469 -0.0024  0.0547
 4093W        W 4093   2.303   3.845   8.273  0.0706 -0.0046 -0.0632
 4094W        W 4094   8.546   6.942   1.242  0.0990  0.0200 -0.2425
 4095W        W 4095   6.560   7.409   5.926 -0.0955 -0.2459  0.0263
 4096W        W 4096   3.039   6.866   1.325 -0.0827 -0.3577 -0.0740
 4097W        W 4097  10.287   2.862   9.973  0.1773 -0.0832 -0.0108
 4098W        W 4098   9.036   0.816   7.116 -0.1143 -0.0117 -0.0580
 4099W        W 4099   3.907   9.930   4.723 -0.2767  0.1274 -0.1077
 4100W        W 4100   5.591   1.034   5.564  0.0558 -0.2298  0.0332
 4101W        W 4101   5.291   1.470   7.782  0.1923 -0.1244 -0.1418
 4102W        W 4102   3.205   8.677   4.248 -0.0563 -0.1222 -0.0358
 4103W        W 4103   5.191   0.101   7.992 -0.1288  0.2336  0.1475
 4104W        W 4104   0.618   9.866   1.067  0.0402  0.2807 -0.1089
 4105W        W 4105   1.159   1.129   6.427  0.0795  0.4202  0.4149
 4106W        W 4106   7.994   8.187   5.326  0.2061  0.2858  0.0613
 4107W        W 4107   4.403   8.114   4.720 -0.0332 -0.1681  0.3747
 4108W        W 4108   3.115   3.166  10.108 -0.0362  0.0068  0.0439
 4109W        W 4109   4.886   1.574   6.112 -0.0231 -0.0127 -0.0441
 4110W        W 4110   9.542   0.130   5.268  0.1496 -0.0243 -0.0665
 4111W        W 4111   9.778   4.139   8.710  0.2431 -0.2593 -0.1981
 4112W        W 4112   0.495   3.118   2.004  0.1459  0.1160  0.0817
 4113W        W 4113   5.729   3.933   3.388 -0.4599  0.0658 -0.1588
 4114W        W 4114   8.441   6.965   5.580  0.0561  0.0264  0.1331
 4115W        W 4115   2.277   6.106   1.211  0.0465  0.0553 -0.0256
 4116W        W 4116   6.062   3.945   1.638 -0.0488 -0.0426  0.1656
 4117W        W 4117   1.737   9.308   4.749 -0.0538 -0.1983  0.0303
 4118W        W 4118   3.128   1.392   8.085 -0.2966 -0.1219 -0.0003
 4119W        W 4119   8.531   8.218   4.323 -0.0859 -0.0620  0.0493
 4120W        W 4120   9.125   2.367  10.224 -0.0878 -0.0528  0.3583
 4121W        W 4121   0.691   0.822   9.564 -0.0850  0.2064  0.1052
 4122W        W 4122   9.555   6.549   3.357 -0.2230 -0.0511 -0.2783
 4123W        W 4123   4.277   1.505   5.519  0.0181 -0.1552 -0.0876
 4124W        W 4124   2.563   0.855   1.272 -0.0223  0.3091 -0.0130
 4125W        W 4125   1.542   5.451   2.642 -0.0820  0.0487  0.0719
 4126W        W 4126   7.231   3.105   6.018 -0.2258 -0.1688  0.1893
 4127W        W 4127   0.608   5.024   9.851 -0.1919 -0.0463 -0.2926
 4128W        W 4128   0.470   0.558   3.747  0.1338  0.0695 -0.0351
 4129W        W 4129   3.447   0.097   5.278  0.1703  0.2120  0.4461
 4130W        W 4130   5.915   6.633   1.540 -0.0965 -0.0346  0.1681
 4131W        W 4131   2.737   2.327   4.210  0.2606 -0.0709 -0.0217
 4132W        W 4132   5.776   5.672   1.693  0.2054 -0.2695 -0.3128
 4133W        W 4133   9.925   5.985   7.169  0.2078 -0.0046 -0.0672
 4134W        W 4134   3.859   7.363   5.185 -0.3024 -0.1791 -0.1938
 4135W        W 4135   2.641   7.656   4.440 -0.0604 -0.1721  0.0253
 4136W        W 4136   8.697  10.313   4.940 -0.1214 -0.1722 -0.0375
 4137W        W 4137  10.037   0.746   0.492  0.1291 -0.3950  0.0500
 4138W        W 4138   1.378  10.204   4.994 -0.2083 -0.0513  0.0070
 4139W        W 4139   7.271   5.032   7.399  0.0331  0.0591 -0.3407
 4140W        W 4140   1.592   8.938   8.935 -0.0456  0.2038  0.1609
 4141W        W 4141   5.609  10.214   0.640 -0.1530  0.0802  0.2768
 4142W        W 4142  10.224   6.430   5.512  0.2846 -0.1030  0.0247
 4143W        W 4143   8.743   1.338   6.205  0.0263  0.2232  0.4103
 4144W        W 4144   3.479   3.271   7.673 -0.0092 -0.1951 -0.2662
 4145W        W 4145   7.102   1.155   0.797 -0.0954  0.0066  0.2183
 4146W        W 4146   7.353   6.294   7.848 -0.0170  0.0363  0.0299
 4147W        W 4147   0.632   4.834   2.543  0.1211 -0.0693 -0.0884
 4148W        W 4148   1.168   6.983   1.892 -0.2454 -0.4697 -0.2634
 4149W        W 4149   3.360   4.687   9.136 -0.2269 -0.3860 -0.2052
 4150W        W 4150   4.157   2.735   5.273  0.2606  0.2856 -0.3411
 4151W        W 4151   6.834   3.650   5.404  0.2332  0.2992  0.2540
 4152W        W 4152   0.593   0.872   3.342 -0.2158 -0.2495 -0.0537
 4153W        W 4153   9.697   1.104   9.262  0.0839 -0.2135  0.0032
 4154W        W 4154   8.783   3.960   0.454 -0.0139  0.2002  0.1226
 4155W        W 4155   5.258   0.909   8.126  0.0340 -0.3472 -0.1495
 4156W        W 4156   5.147   4.575   4.537 -0.2150 -0.0202  0.3218
 4157W        W 4157   3.044  10.055   2.841  0.1015 -0.2749 -0.1365
 4158W        W 4158   7.893   5.778   7.150 -0.1221 -0.0591  0.0124
 4159W        W 4159   0.817   1.898   7.720 -0.0061  0.4073  0.2859
 4160W        W 4160   5.560   8.547   6.330 -0.0243 -0.2554  0.1398
 4161W        W 4161   8.210   7.939   9.002  0.2085  0.0132  0.0865
 4162W        W 4162  10.134   8.499   0.598 -0.1208  0.3261 -0.1239
 4163W        W 4163   4.212   4.200   9.589  0.0382  0.3457  0.0043
 4164W        W 4164   1.718   6.999  10.293  0.0503 -0.1613  0.1025
 4165W        W 4165   8.136   7.813   6.920 -0.0376  0.0931  0.0483
 4166W        W 4166   6.514   7.957   1.374 -0.1305  0.0066  0.1141
 4167W        W 4167   8.202   6.108   9.810 -0.0386 -0.0114  0.3058
 4168W        W 4168   8.379   4.579   7.227  0.1700 -0.0921  0.3284
 4169W        W 4169   0.117   1.857   6.664 -0.3370 -0.1030 -0.0919
 4170W        W 4170   0.723   3.584   2.154  0.0913  0.1626 -0.0668
 4171W        W 4171   5.026   5.847   3.577  0.1063  0.1054 -0.0487
 4172W        W 4172   9.828   8.761   6.799  0.2325 -0.0009  0.0564
 4173W        W 4173  10.325   4.045   6.398 -0.1559 -0.0083  0.2119
 4174W        W 4174   4.868   5.950   1.823  0.0586  0.0798 -0.2297
 4175W        W 4175   4.397   4.228   5.074 -0.0120  0.0959 -0.0303
 4176W        W 4176   8.944  10.231   9.800 -0.1126 -0.0702  0.3204
 4177W        W 4177   6.903   6.721   8.459 -0.1357  0.0169  0.0991
 4178W        W 4178   9.927   9.585   6.621 -0.1650  0.0450 -0.0161
 4179W        W 4179   1.917   6.518   4.808 -0.2548  0.5674 -0.0204
 4180W        W 4180   1.440   6.687   8.476 -0.2943 -0.1163 -0.3637
 4181W        W 4181   1.922   5.894   1.444  0.3461  0.0806 -0.1585
 4182W        W 4182   0.957   5.847   4.637  0.1873 -0.3295 -0.3062
 4183W        W 4183   2.984   3.186   2.942 -0.2616  0.1020 -0.0310
 4184W        W 4184   9.020   3.188   3.652  0.0019 -0.1391 -0.1659
 4185W        W 4185   1.152  10.184   8.289  0.0080 -0.0727 -0.2264
 4186W        W 4186   7.438   0.231   6.184  0.1301  0.0556  0.0875
 4187W        W 4187   2.688   4.913   0.152 -0.0953  0.4636 -0.1664
 4188W        W 4188   4.114   9.428   6.868  0.3874 -0.3566  0.2434
 4189W        W 4189   1.508   0.363   8.874 -0.1266 -0.1544  0.0701
 4190W        W 4190   3.728   1.559   4.957  0.0271  0.2430  0.2127
 4191W        W 4191   1.184   3.086   4.558  0.1675 -0.2005  0.2433
 4192W        W 4192   4.323   5.439   6.220  0.1234  0.1329  0.0335
 4193W        W 4193   1.855   3.575   1.706  0.4265 -0.1095  0.0745
 4194W        W 4194   2.711   9.141   9.537 -0.1097  0.2136  0.1648
 4195W        W 4195   0.056   3.752   5.940  0.0673  0.1052  0.1117
 4196W        W 4196   1.569   9.954   4.105 -0.2114 -0.1021 -0.1584
 4197W        W 4197   1.734   6.720   3.921 -0.1654 -0.0205  0.0180
 4198W        W 4198   5.573   7.726   3.380 -0.3684 -0.2681 -0.1366
 4199W        W 4199   0.375   2.917   3.404  0.0317  0.0401  0.1854
 4200W        W 4200  10.245   7.812   2.212  0.1777 -0.2791  0.0892
 4201W        W 4201   1.733   1.644   7.893 -0.0616 -0.1731 -0.1567
 4202W        W 4202   0.107   5.420   1.388  0.0003 -0.0387 -0.0907
 4203W        W 4203   2.433   5.524   7.142 -0.1008  0.2164 -0.0867
 4204W        W 4204   6.919   8.809   2.450  0.0280 -0.3510  0.2007
 4205W        W 4205   5.215  10.015   3.659 -0.1592 -0.0585  0.1924
 4206W        W 4206   3.998   6.925   1.391 -0.0211 -0.1046 -0.1349
 4207W        W 4207   9.538   1.906   8.766 -0.1825  0.3469  0.0410
 4208W        W 4208   5.486   1.395   4.732  0.2839  0.1689 -0.2091
 4209W        W 4209   5.991  10.261   9.026 -0.1753 -0.2571 -0.1098
 4210W        W 4210   7.167   0.800   5.915 -0.0942 -0.2093  0.0756
 4211W        W 4211   6.029   8.619   9.539 -0.5360 -0.3158 -0.1757
 4212W        W 4212   3.852   5.055   3.205  0.0114  0.2063  0.0090
 4213W        W 4213   6.534   0.270   4.077 -0.1416  0.1141  0.2019
 4214W        W 4214   9.879   6.432   3.791 -0.1475 -0.1135 -0.1748
 4215W        W 4215   5.009   2.849  10.198  0.3529  0.1771  0.2367
 4216W        W 4216   6.354   6.896   1.449 -0.0586 -0.0171  0.1391
 4217W        W 4217   4.270   8.022   5.642 -0.0008 -0.0812 -0.0987
 4218W        W 4218  10.240   5.499   7.688 -0.1136  0.3215 -0.0839
 4219W        W 4219   5.920   7.236  10.031  0.2055 -0.3168 -0.1549
 4220W        W 4220   7.939   4.529   4.371 -0.0212 -0.1771 -0.2188
 4221W        W 4221   4.228   6.583   3.498  0.0047  0.2645 -0.1082
 4222W        W 4222   7.892   5.849   9.487 -0.1684  0.0009 -0.0376
 4223W        W 4223   8.366   0.429   0.755 -0.1523  0.1169  0.1048
 4224W        W 4224   7.421   5.864   3.170  0.1821  0.2629 -0.1269
 4225W        W 4225   7.805   2.703   6.355 -0.2619 -0.0260  0.3308
 4226W        W 4226   2.026   5.109   4.947 -0.0208  0.0812  0.0990
 4227W        W 4227   0.499   7.615   3.340 -0.0626 -0.2007  0.1353
 4228W        W 4228   0.723   0.504   0.268  0.0811  0.1057 -0.3502
 4229W        W 4229   7.789   0.791   9.621 -0.0257 -0.0575  0.2276
 4230W        W 4230   0.991   3.770   8.380  0.1803 -0.4539 -0.0593
 4231W        W 4231   1.865   5.259  10.085 -0.0777 -0.0378 -0.0500
 4232W        W 4232   7.557   9.644   9.379 -0.3494 -0.0075  0.0092
 4233W        W 4233   8.578   4.860   9.302  0.0693 -0.0688 -0.0411
 4234W        W 4234   6.105   3.685   6.948 -0.0600 -0.1632 -0.1391
 4235W        W 4235   6.705   4.582   8.590 -0.2877  0.1332 -0.2039
 4236W        W 4236   3.845   8.257   8.325 -0.0488 -0.0517  0.0512
 4237W        W 4237   2.291   8.821   3.752  0.2325 -0.2062  0.0587
 4238W        W 4238   9.671   9.198   0.158  0.1487  0.2117 -0.3087
 4239W        W 4239   8.569   3.509   9.172 -0.1576 -0.1114  0.1301
 4240W        W 4240   5.663   1.118   6.066  0.0040  0.2040  0.0444
 4241W        W 4241   2.431   0.819   3.056  0.1193 -0.0734 -0.2597
 4242W        W 4242   8.939   4.387   9.709 -0.2389  0.2380 -0.5760
 4243W        W 4243   4.255   1.006  10.127 -0.0644 -0.0234  0.1812
 4244W        W 4244   4.172   1.709   1.994 -0.1357 -0.2492 -0.1106
 4245W        W 4245   7.497   0.451   5.664 -0.1762 -0.0645 -0.1085
 4246W        W 4246   6.692  10.127   2.658  0.0045 -0.0151 -0.0997
 4247W        W 4247   2.975   5.157   1.350 -0.3171  0.0585 -0.0910
 4248W        W 4248   7.627   7.028   0.911 -0.0466  0.1722 -0.0144
 4249W        W 4249   7.871   7.578   2.714 -0.0727 -0.2689  0.2925
 4250W        W 4250   8.429   6.245   6.925  0.1255 -0.4318 -0.1520
 4251W        W 4251   1.860   4.498   9.503  0.0774  0.0094  0.1035
 4252W        W 4252   4.482   2.504   4.403 -0.2908  0.1921  0.0669
 4253W        W 4253   3.843   8.250   1.735 -0.1068 -0.1530 -0.0333
 4254W        W 4254   4.643   5.305   7.465 -0.0107  0.0684 -0.0231
 4255W        W 4255   0.669   9.734   0.335  0.2650  0.0607  0.0037
 4256W        W 4256   2.344  10.171   8.996 -0.0498 -0.0078  0.2840
 4257W        W 4257   3.319   3.228   1.203 -0.2110  0.1149 -0.0512
 4258W        W 4258   0.151   6.568   3.071 -0.0459  0.2197 -0.0180
 4259W        W 4259   9.422   3.197   4.065 -0.2763  0.0461  0.1932
 4260W        W 4260   2.717   6.416   1.976  0.2212 -0.2528 -0.0040
 4261W        W 4261   8.430   6.244   2.696  0.3349 -0.0633 -0.2589
 4262W        W 4262   3.941   6.581   5.636  0.3518 -0.2579  0.1630
 4263W        W 4263   2.857   8.924   5.252 -0.1055 -0.5380  0.3742
 4264W        W 4264   8.946   2.402   8.396  0.3459 -0.2524  0.0153
 4265W        W 4265   9.636   4.425   5.906 -0.1101  0.0474  0.0191
 4266W        W 4266   8.701   0.514   8.437 -0.1103 -0.2062  0.0493
 4267W        W 4267   9.537   1.066   6.175 -0.2968  0.0314 -0.2683
 4268W        W 4268   4.730   9.490   4.923  0.1397 -0.0519 -0.0415
 4269W        W 4269   9.339   1.365   7.592  0.2392  0.0974  0.3927
 4270W        W 4270   5.246   4.364   8.014 -0.2348 -0.1053  0.2973
 4271W        W 4271   2.040   8.360   9.250 -0.2243  0.0239  0.1690
 4272W        W 4272   2.096   8.629   1.449 -0.0313  0.2213  0.1460
 4273W        W 4273   4.794   5.123   9.593 -0.1085  0.0486  0.4135
 4274W        W 4274   2.910   3.456   9.486  0.0401 -0.3438  0.3484
 4275W        W 4275   8.324   3.630   3.905  0.0784  0.0802  0.3061
 4276W        W 4276   1.113   3.433   3.163  0.1280 -0.1345  0.0348
 4277W        W 4277  10.285   4.695   4.042 -0.5799 -0.0555 -0.1670
 4278W        W 4278   8.174   4.404   6.417  0.2939 -0.2707  0.2326
 4279W        W 4279   8.873   6.812   5.177  0.0260 -0.0532 -0.1328
 4280W        W 4280   2.622   4.485   4.640  0.2724 -0.4039  0.2601
 4281W        W 4281   1.166   9.087   0.282  0.0357 -0.0683  0.2144
 4282W        W 4282   5.916   8.576   4.946 -0.2882 -0.0072 -0.4303
 4283W        W 4283   6.560   9.753   2.359 -0.0493 -0.1413 -0.0116
 4284W        W 4284   2.546   7.062   6.742 -0.1650  0.0503 -0.2718
 4285W        W 4285   0.335   1.247   2.253 -0.0498 -0.1468  0.1392
 4286W        W 4286   1.696   9.964   1.804  0.1219 -0.1971 -0.1023
 4287W        W 4287   4.071   4.745   9.500 -0.1924  0.0703  0.2917
 4288W        W 4288   2.973   4.306   3.866 -0.5512 -0.1575 -0.1678
 4289W        W 4289   0.713   7.928   1.668 -0.0581 -0.1696 -0.0516
 4290W        W 4290   7.339   0.085   8.616 -0.0654 -0.0750  0.1708
 4291W        W 4291   7.901   2.480   0.759  0.4104 -0.1132 -0.0724
 4292W        W 4292   1.599   4.311   3.698  0.3570 -0.0299 -0.0655
 4293W        W 4293   2.753   9.969   6.993  0.3389 -0.0418  0.1271
 4294W        W 4294   6.760   5.115   6.068 -0.1698  0.2503  0.0206
 4295W        W 4295   2.757   4.162   0.329 -0.1853  0.0156 -0.1217
 4296W        W 4296   7.241   6.510   2.373  0.1910 -0.1440  0.0906
 4297W        W 4297   1.852   0.186   5.809 -0.0329  0.1486 -0.4878
 4298W        W 4298   2.821   8.416   5.581  0.3187 -0.1516 -0.3810
 4299W        W 4299   6.885   0.927   7.838 -0.1688 -0.1390  0.3084
 4300W        W 4300   2.147   6.385   0.366  0.0282 -0.1034  0.0921
 4301W        W 4301  10.203   3.315  10.257  0.1016 -0.1295 -0.2144
 4302W        W 4302   3.659   9.985   9.154 -0.0700  0.1635 -0.0214
 4303W        W 4303   6.764   5.507   0.233  0.1229  0.1181  0.0840
 4304W        W 4304   8.866   5.087   9.815  0.2410  0.0404 -0.0327
 4305W        W 4305   6.920   9.793   5.115  0.0341 -0.2538  0.1062
 4306W        W 4306   7.945   4.799   0.912 -0.2162  0.0830  0.0204
 4307W        W 4307   6.279   9.987   2.971 -0.1921  0.1305  0.0865
 4308W        W 4308   8.761  10.118   0.152  0.0729  0.1943  0.2910
 4309W        W 4309   4.102   1.156   4.228 -0.2004  0.0292  0.0983
 4310W        W 4310   0.663   0.697   8.544 -0.0849 -0.1240  0.0362
 4311W        W 4311   8.535   6.960   3.795 -0.1849  0.0377  0.0780
 4312W        W 4312   3.308   8.612   5.235  0.1578  0.1202 -0.3514
 4313W        W 4313   1.215   4.322   0.410 -0.0897  0.1455 -0.0693
 4314W        W 4314   9.536   7.436   8.137  0.3476 -0.0762 -0.0010
 4315W        W 4315   7.723   5.886   5.450 -0.1847  0.1222  0.0682
 4316W        W 4316   6.488   6.419   7.390 -0.0407 -0.1729 -0.3500
 4317W        W 4317   5.351   5.007   9.538 -0.1186 -0.0007  0.2334
 4318W        W 4318   7.622   9.649   3.503  0.0208  0.2773  0.0177
 4319W        W 4319   4.654   1.430   0.541  0.0606 -0.0669  0.1323
 4320W        W 4320   4.137   0.118   5.987 -0.3225 -0.1294 -0.2410
 4321W        W 4321   2.847   9.396   3.555 -0.0995 -0.0483  0.0803
 4322W        W 4322   8.313   1.004   0.199  0.1702  0.0250  0.0811
 4323W        W 4323   8.758   9.972   6.766  0.0542 -0.1479  0.1030
 4324W        W 4324   4.128   5.520   9.698 -0.2362 -0.2046 -0.1265
 4325W        W 4325   6.551   6.228   3.549 -0.3105 -0.2506  0.0939
 4326W        W 4326   0.277   4.508   6.306  0.1162 -0.4295 -0.2084
 4327W        W 4327   1.804   8.756   8.516 -0.0499  0.0620  0.1331
 4328W        W 4328   1.237   2.027   7.274  0.1765  0.2085 -0.0725
 4329W        W 4329   0.640   2.521   3.743  0.0108  0.1231  0.1141
 4330W        W 4330   9.358   8.987   3.656 -0.2053 -0.3063 -0.2479
 4331W        W 4331   7.034   6.410   8.827  0.0636  0.2031  0.2262
 4332W        W 4332  10.298   5.974   3.595 -0.0199  0.0502 -0.1416
 4333W        W 4333   0.756   6.127   9.094 -0.0608 -0.1106  0.0727
 4334W        W 4334   3.498   6.028   0.305  0.2693 -0.2098 -0.0453
 4335W        W 4335   1.590   4.879   4.860 -0.0071 -0.2846 -0.0669
 4336W        W 4336   8.069   8.323   8.258 -0.1211 -0.0197  0.5322
 4337W        W 4337   1.207   6.617   3.772 -0.0823  0.0357 -0.2254
 4338W        W 4338   8.322   7.588   9.904  0.2674 -0.1325 -0.0848
 4339W        W 4339   9.204   7.599   1.483  0.0456  0.0776 -0.0966
 4340W        W 4340   8.279   5.648   0.236 -0.1179  0.2151  0.3614
 4341W        W 4341   8.407   6.668   3.355  0.2462  0.0212 -0.0285
 4342W        W 4342   5.093   8.022   2.575 -0.1211  0.3417  0.1431
 4343W        W 4343   0.024   5.005   5.024  0.2171  0.0858 -0.0112
 4344W        W 4344   2.320   6.716   4.574 -0.2533  0.4440 -0.1337
 4345W        W 4345   5.071   8.678   4.643 -0.2072  0.1349 -0.0554
 4346W        W 4346   1.643   7.968  10.131  0.0077  0.2335 -0.0566
 4347W        W 4347   9.912   3.454   7.156 -0.1153 -0.1389  0.1374
 4348W        W 4348   1.540   6.493  10.218 -0.4179  0.0498 -0.1648
 4349W        W 4349   1.283   7.998   8.298  0.1381  0.1645  0.0595
 4350W        W 4350  10.078   3.167   5.383  0.4352  0.1864  0.1963
 4351W        W 4351   1.398   9.341   7.195  0.1154 -0.1506  0.0597
 4352W        W 4352   9.326   7.742   1.968  0.3958 -0.2242 -0.1617
 4353W        W 4353   2.696   2.482   2.757 -0.1352  0.0867  0.0493
 4354W        W 4354   8.189   0.664   2.485  0.1459 -0.2684  0.1123
 4355W        W 4355   7.241   7.405   4.574  0.1677  0.0401 -0.2206
 4356W        W 4356   6.731   6.258   0.721 -0.1944  0.2380 -0.0238
 4357W        W 4357   3.019   0.224   3.848  0.2505  0.0080  0.4459
 4358W        W 4358  10.268   9.349   9.904 -0.1717 -0.0799  0.1603
 4359W        W 4359   8.162   4.542  10.211  0.0599  0.0277 -0.0336
 4360W        W 4360   4.865   9.507   8.823 -0.3803  0.0736 -0.1023
 4361W        W 4361   1.585   9.778   8.512 -0.2267 -0.1962 -0.3633
 4362W        W 4362   5.370   2.674   6.923  0.0083 -0.3833 -0.0933
 4363W        W 4363   2.011   6.496   2.432  0.0809 -0.1294 -0.0623
 4364W        W 4364   4.512   1.636   3.671  0.0526 -0.2499 -0.1231
 4365W        W 4365   4.470   8.075   6.298 -0.1228  0.1247 -0.1328
 4366W        W 4366   4.466   4.741   8.167  0.2153  0.0522  0.1694
 4367W        W 4367   8.500   4.278   4.881 -0.0472  0.0964 -0.2219
 4368W        W 4368  10.071   7.239   8.313 -0.0740 -0.0446  0.0457
 4369W        W 4369   8.605   4.224   3.678 -0.3092 -0.0631 -0.2848
 4370W        W 4370   8.097   5.718   0.705 -0.4589  0.0346  0.0938
 4371W        W 4371   1.232   3.082   4.036 -0.0427  0.0370 -0.0912
 4372W        W 4372   2.649   0.538   4.787  0.3028  0.2656  0.0474
 4373W        W 4373   2.451  10.088   8.087 -0.0721  0.2176  0.0533
 4374W        W 4374   9.239   7.221   3.114  0.2348  0.0842  0.1067
 4375W        W 4375   7.722   4.078   7.565  0.1244 -0.1340  0.0188
 4376W        W 4376   0.105   2.756   9.495  0.0206 -0.0651  0.0993
 4377W        W 4377   9.766   1.663   3.564  0.1672  0.2520 -0.1449
 4378W        W 4378   9.915   9.950   3.357  0.1002 -0.0205  0.0916
 4379W        W 4379   6.297   3.988   7.390 -0.0289  0.0864  0.0815
 4380W        W 4380   4.130   0.405   4.018  0.0376 -0.1631 -0.0627
 4381W        W 4381   3.091   3.994   1.088 -0.0808  0.0786  0.1420
 4382W        W 4382   4.307   4.921   4.139  0.1353  0.1477 -0.1417
 4383W        W 4383   7.083   4.733   9.534  0.2528  0.0303 -0.0626
 4384W        W 4384   4.164   6.729   0.461 -0.2154  0.3095  0.2902
 4385W        W 4385   7.608   0.597  10.133  0.3308  0.0205 -0.2547
 4386W        W 4386   8.898   0.782   2.148  0.0714  0.1540 -0.0205
 4387W        W 4387   3.599  10.214   7.159 -0.0103 -0.1400 -0.0864
 4388W        W 4388   8.013   3.583   5.191  0.0580 -0.3575 -0.1862
 4389W        W 4389   9.844   3.955   6.159 -0.4359 -0.1552 -0.2870
 4390W        W 4390   6.840   7.783   7.766 -0.2067 -0.0941 -0.1987
 4391W        W 4391   9.704   4.907   3.133 -0.0452 -0.0595 -0.1145
 4392W        W 4392   8.559   9.486   6.658 -0.1015 -0.1831 -0.2166
 4393W        W 4393   0.614   1.846   5.344  0.1494 -0.2724 -0.0100
 4394W        W 4394   0.651  10.319   3.584 -0.1894  0.0981 -0.1479
 4395W        W 4395   2.086   3.942   1.455 -0.1097 -0.0925  0.0025
 4396W        W 4396   6.282   9.747   4.655  0.0272 -0.2162 -0.1296
 4397W        W 4397   5.120   8.154   4.833 -0.0615 -0.2365 -0.1976
 4398W        W 4398   1.806   1.970  10.315 -0.2833  0.1598 -0.0605
 4399W        W 4399   1.704   5.164   6.151  0.0126 -0.1043  0.2197
 4400W        W 4400   6.864   5.047   7.816  0.0148  0.0348  0.1175
 4401W        W 4401   1.417   0.189   5.554 -0.1676  0.1849  0.0586
 4402W        W 4402   1.077   2.048   9.651  0.0212 -0.0581 -0.3021
 4403W        W 4403   5.956   0.547   6.420 -0.0927  0.0475 -0.3729
 4404W        W 4404   5.646   9.941   3.879 -0.1659 -0.1368  0.1981
 4405W        W 4405   0.427   9.000   3.870 -0.0288 -0.2037  0.0862
 4406W        W 4406   5.878   8.161   8.263  0.0920  0.1882 -0.1463
 4407W        W 4407   9.516   1.417   0.476 -0.2336 -0.0113  0.1618
 4408W        W 4408   1.629   7.592   7.518  0.2238 -0.2659 -0.0926
 4409W        W 4409   3.431   7.013   2.274  0.1806 -0.0321  0.1186
 4410W        W 4410   7.553   3.223   3.865 -0.0238  0.0195  0.0410
 4411W        W 4411   5.644   1.448   7.416 -0.1509  0.0581 -0.0258
 4412W        W 4412   4.174   7.549   9.926 -0.1200  0.3459  0.0118
 4413W        W 4413   7.995   2.628   9.541  0.1344  0.1140  0.2070
 4414W        W 4414   7.348   9.511   5.820  0.0712 -0.2163 -0.1696
 4415W        W 4415   1.071   7.619   7.596  0.2607  0.0495  0.4021
 4416W        W 4416   6.371   5.781   4.896  0.0944  0.0029 -0.0348
 4417W        W 4417   2.967  10.009   3.620 -0.0432 -0.1181 -0.0796
 4418W        W 4418   5.194   1.731   3.024  0.1603  0.3216  0.0755
 4419W        W 4419   7.882   0.423   4.089 -0.0756 -0.0627  0.0449
 4420W        W 4420   0.329  10.174   8.897  0.0046 -0.0225 -0.0067
 4421W        W 4421   9.646   1.791   2.673 -0.3061  0.3698 -0.2009
 4422W        W 4422   9.128   0.449   9.844 -0.0020  0.0144 -0.1228
 4423W        W 4423   3.509   6.211   7.018 -0.3452  0.3317 -0.4444
 4424W        W 4424   2.739   0.423   3.333 -0.0824  0.1400  0.0837
 4425W        W 4425   9.645   7.286   8.606 -0.1326  0.0290  0.0405
 4426W        W 4426   6.301   2.564   6.259  0.1099 -0.2458  0.0238
 4427W        W 4427   8.690   0.508   7.543  0.0178  0.0041 -0.0673
 4428W        W 4428   4.315   5.247   6.652  0.3420  0.0368  0.2110
 4429W        W 4429   9.410   0.620   6.353  0.0294 -0.0821  0.1455
 4430W        W 4430  10.096   7.916   0.189 -0.0076  0.0098 -0.2835
 4431W        W 4431   7.801   3.246   0.457  0.0766 -0.2705  0.0982
 4432W        W 4432   5.811   9.544   2.983  0.0314 -0.2204  0.0916
 4433W        W 4433   9.794   5.866   0.184  0.0300  0.2451 -0.2652
 4434W        W 4434   7.144   8.813   5.712  0.2651  0.1199 -0.1316
 4435W        W 4435   3.861   6.525   7.830  0.0312 -0.3063  0.0124
 4436W        W 4436   2.795   5.044   2.725  0.0817 -0.0865  0.0141
 4437W        W 4437   1.218   3.382   2.606  0.0653  0.1318  0.1943
 4438W        W 4438   5.799   3.161   0.894  0.1229  0.1458 -0.2436
 4439W        W 4439   1.250   2.088   4.080 -0.0435  0.0398 -0.1935
 4440W        W 4440   6.500   6.581   4.997 -0.1026 -0.1392  0.2655
 4441W        W 4441   1.068  10.004   3.233 -0.1763  0.1647 -0.1557
 4442W        W 4442   8.979   2.926   0.961  0.2884 -0.0832 -0.0166
 4443W        W 4443   9.792   0.829   9.654  0.1321 -0.1471 -0.0543
 4444W        W 4444  10.046   1.999   9.989 -0.0271 -0.0243  0.2989
 4445W        W 4445   2.329   9.970   2.970  0.0996  0.0995 -0.2603
 4446W        W 4446   5.033   4.217   5.216  0.1406 -0.0500  0.0826
 4447W        W 4447   4.250   4.463   7.788  0.0784 -0.1929  0.1243
 4448W        W 4448   2.658   6.912   4.217  0.2027  0.0491  0.0446
 4449W        W 4449   5.055   7.091   4.180  0.2143  0.3487  0.0786
 4450W        W 4450   4.061   6.891   7.107 -0.3826 -0.1730  0.4356
 4451W        W 4451   8.126   9.997   1.376 -0.1826 -0.1152 -0.0925
 4452W        W 4452   6.776   1.323   7.526  0.1172  0.1585  0.0152
 4453W        W 4453   0.473   1.293   0.419 -0.0582 -0.3911 -0.1431
 4454W        W 4454   7.670   7.727   0.140 -0.0850 -0.1539  0.3738
 4455W        W 4455   1.395   2.174   2.102  0.1324 -0.1653  0.0973
 4456W        W 4456   8.113   3.262   8.993 -0.1294  0.0483 -0.0582
 4457W        W 4457   3.527   4.692  10.185  0.1473  0.1788  0.2626
 4458W        W 4458   3.772   9.484   0.918  0.1879  0.0118 -0.0170
 4459W        W 4459   4.705   3.708   1.836 -0.0930 -0.1794  0.1780
 4460W        W 4460   7.684   5.138   7.726  0.3371 -0.0740  0.3763
 4461W        W 4461   8.102   7.909   1.122 -0.0824  0.0463 -0.0012
 4462W        W 4462   3.649   4.376   9.632  0.0769 -0.4159  0.5582
 4463W        W 4463   5.173   4.576   2.842 -0.0601  0.0491  0.3304
 4464W        W 4464   9.561   0.696   1.294  0.1594  0.2412  0.0173
 4465W        W 4465   1.406   2.774   5.737 -0.2320  0.2182  0.2319
 4466W        W 4466   8.483  10.236   6.290  0.0638 -0.2776 -0.1195
 4467W        W 4467   1.982   4.401   0.659  0.0064 -0.3018  0.3206
 4468W        W 4468   9.206   1.207   1.956  0.0027 -0.0700 -0.0400
 4469W        W 4469   7.946   2.892   8.343  0.2550 -0.1890 -0.3234
 4470W        W 4470   6.971   9.472   9.328 -0.2358  0.1355  0.1446
 4471W        W 4471   5.977   3.959   7.747  0.2145  0.0704 -0.1206
 4472W        W 4472   1.491   2.516   1.217  0.0867 -0.1712 -0.4594
 4473W        W 4473   8.013   7.215   7.671  0.0511  0.2696 -0.2046
 4474W        W 4474   2.781   6.759   5.115 -0.0153  0.4173  0.1965
 4475W        W 4475   4.149   1.451   6.643 -0.1952  0.2037  0.4430
 4476W        W 4476   0.799   1.939   2.885 -0.0415  0.3264  0.0136
 4477W        W 4477   8.819   7.785   6.268 -0.3914 -0.3764  0.0325
 4478W        W 4478   8.101   5.428   4.582  0.0455 -0.0003 -0.1840
 4479W        W 4479   0.239   1.208   3.262 -0.2616  0.1772  0.2140
 4480W        W 4480   6.637   0.482   8.778  0.4185  0.1552 -0.0393
 4481W        W 4481  10.048   2.546   9.079 -0.2542  0.2045 -0.1197
 4482W        W 4482   4.772   4.924  10.076 -0.1530  0.1605 -0.0252
 4483W        W 4483   2.320   2.418   2.266 -0.1453 -0.2339 -0.0127
 4484W        W 4484   8.166   1.697   7.939  0.1070  0.1031 -0.0365
 4485W        W 4485   1.022   4.370   4.331  0.1832 -0.2282 -0.0418
 4486W        W 4486   3.451   2.350   0.271 -0.0734  0.1104 -0.3052
 4487W        W 4487   0.544   5.772   4.856 -0.0803  0.2252  0.0838
 4488W        W 4488   1.911   4.039   2.984  0.0131 -0.2075 -0.1715
 4489W        W 4489   4.641   7.054   0.769  0.0999  0.1179 -0.3132
 4490W        W 4490   2.854   0.063   8.218  0.0863 -0.2275  0.1822
 4491W        W 4491   1.928   4.476   2.724  0.2236  0.2057 -0.0833
 4492W        W 4492   3.661   8.941   7.541  0.2593 -0.2292  0.1233
 4493W        W 4493   4.874   3.005   7.750 -0.1441  0.2127 -0.0324
 4494W        W 4494   5.607   2.731   1.087 -0.0269 -0.3210  0.0435
 4495W        W 4495   0.524   1.989   9.476  0.2151  0.1999 -0.2276
 4496W        W 4496   2.222   0.890   0.196  0.0243 -0.0298  0.0960
 4497W        W 4497   1.738   7.493   2.355  0.2018  0.0485 -0.4902
 4498W        W 4498   5.754   9.151   0.646  0.0643  0.0317 -0.1487
 4499W        W 4499   7.896   6.368   9.297 -0.1200  0.4451  0.1112
 4500W        W 4500   7.434   8.813   2.681 -0.0491  0.2695 -0.0135
 4501W        W 4501   3.303   7.430   7.133  0.0613  0.1579 -0.0714
 4502W        W 4502   3.286   9.967   5.417  0.1664 -0.0983  0.2599
 4503W        W 4503   6.872   3.908   8.597 -0.2211  0.0440  0.0092
 4504W        W 4504   4.053   3.550   1.273 -0.1961  0.1257  0.3742
 4505W        W 4505   2.525   3.462   9.039 -0.0766  0.1993  0.1613
 4506W        W 4506   5.615   1.919   3.274 -0.0335 -0.1162  0.2956
 4507W        W 4507   6.699   6.365   6.589  0.1337  0.1847  0.0593
 4508W        W 4508   6.208   5.494   2.510  0.0697  0.1509 -0.1619
 4509W        W 4509   8.482   2.391   5.966  0.5655 -0.0043  0.0892
 4510W        W 4510   6.540  10.166   4.867  0.3588 -0.0189  0.1192
 4511W        W 4511   2.595   2.832   0.318 -0.1894  0.0575  0.2454
 4512W        W 4512   1.148   4.541   8.507  0.1269  0.1144  0.2815
 4513W        W 4513   7.642   6.877   2.131  0.0349 -0.3029 -0.1072
 4514W        W 4514   6.043   4.227   7.045  0.0631 -0.3079  0.2334
 4515W        W 4515   5.453   6.387   1.481  0.0380 -0.1378  0.1305
 4516W        W 4516   3.316   2.737   1.196 -0.3427 -0.0614 -0.1341
 4517W        W 4517   0.410   7.876   1.242 -0.0914  0.0255  0.2739
 4518W        W 4518   8.462   0.579   2.072  0.0524 -0.1256  0.1859
 4519W        W 4519   0.695   6.494   7.008 -0.0854  0.2873  0.2001
 4520W        W 4520   9.263   9.222   6.122  0.2510 -0.1241  0.0451
 4521W        W 4521   3.840   3.568   2.074  0.0422 -0.2565 -0.2211
 4522W        W 4522   9.479   5.887   0.639  0.1584 -0.2220  0.0613
 4523W        W 4523   4.239   5.218   0.419 -0.0895  0.1428  0.0468
 4524W        W 4524  10.053   8.076   1.772  0.1814 -0.0897 -0.0112
 4525W        W 4525   3.967   8.535   3.797  0.2946 -0.1364  0.3179
 4526W        W 4526   6.198   0.824   0.659  0.2643 -0.1600 -0.1061
 4527W        W 4527   0.614   9.558   8.022  0.2159  0.0509 -0.1796
 4528W        W 4528   7.792   4.962   5.044 -0.0939 -0.0760  0.0943
 4529W        W 4529   5.908   7.454   3.943  0.0997 -0.1432  0.3161
 4530W        W 4530   1.390   0.955   1.694 -0.2841  0.1065  0.0625
 4531W        W 4531   0.843   9.841   2.797 -0.0415 -0.2272 -0.0702
 4532W        W 4532   7.370   2.106   7.130  0.1996  0.1170 -0.2044
 4533W        W 4533   6.030  10.148   1.665  0.0009 -0.1079  0.1454
 4534W        W 4534   5.136   2.605   1.337 -0.1446 -0.4461 -0.1105
 4535W        W 4535   3.284   5.530   0.308 -0.1922  0.1630  0.1619
 4536W        W 4536   2.609   6.364   0.265 -0.3128  0.1049 -0.1941
 4537W        W 4537   8.469   1.820   3.130 -0.1830 -0.1658 -0.0187
 4538W        W 4538   4.269   9.342   3.402  0.0058 -0.1851 -0.1490
 4539W        W 4539   0.061   1.177   7.255 -0.0851  0.1705  0.0130
 4540W        W 4540   2.620   4.261   1.876  0.3793 -0.1020 -0.1337
 4541W        W 4541   3.490   3.493   2.998  0.0950  0.0160 -0.1700
 4542W        W 4542   9.340   2.520   9.246  0.1804 -0.1120 -0.0589
 4543W        W 4543   0.109   7.705   8.496  0.0618  0.0277  0.0162
 4544W        W 4544   4.599   7.049   6.365 -0.2643  0.2465 -0.3996
 4545W        W 4545   2.824   9.339   0.006  0.0028  0.3895  0.2048
 4546W        W 4546   6.690   0.139   2.299 -0.1537 -0.2393  0.2678
 4547W        W 4547   0.129   0.814   2.438  0.0752  0.3117  0.1229
 4548W        W 4548   6.280   0.975   8.729  0.0111  0.1532  0.1045
 4549W        W 4549   7.573   1.379   0.593  0.3516  0.0885  0.0761
 4550W        W 4550   1.478   6.632   5.706 -0.1278 -0.0369  0.1591
 4551W        W 4551   7.874   7.596   3.258  0.0407  0.3732 -0.1717
 4552W        W 4552   5.913   5.899   2.622 -0.1030  0.1694 -0.1062
 4553W        W 4553   0.131   1.106   1.291 -0.2160 -0.0630  0.1409
 4554W        W 4554   9.538   6.107   8.063 -0.0049  0.1738 -0.1396
 4555W        W 4555   2.220   6.018   8.310 -0.2159 -0.1905  0.2870
 4556W        W 4556   0.621   3.767   0.181 -0.1185  0.0568  0.4047
 4557W        W 4557   0.494   8.295   8.867  0.2611  0.0772 -0.1455
 4558W        W 4558   6.595   9.259   1.848  0.0816 -0.0011  0.1214
 4559W        W 4559  10.007   8.443   7.923  0.1360  0.0275  0.0070
 4560W        W 4560   5.907   8.098   9.676  0.0220 -0.1406  0.4054
 4561W        W 4561   7.305   6.470  10.097 -0.0702 -0.2107 -0.1471
 4562W        W 4562   5.066   2.769   3.621  0.4521 -0.1444 -0.1356
 4563W        W 4563   4.985   2.184   2.206  0.2197 -0.4694 -0.5111
 4564W        W 4564   0.340   8.490   6.401 -0.1427 -0.0311  0.1703
 4565W        W 4565   6.140   1.111   4.198 -0.1323  0.0223 -0.3003
 4566W        W 4566   4.241   9.160   1.017  0.2262  0.0043  0.1935
 4567W        W 4567   7.788   7.693   9.791 -0.0261  0.0674 -0.0038
 4568W        W 4568   2.733   7.948   5.076 -0.1546  0.0720  0.2939
 4569W        W 4569   0.216   1.366   9.463 -0.2626 -0.3145  0.1064
 4570W        W 4570   0.868   8.769   8.403  0.0037  0.5578 -0.4818
 4571W        W 4571   5.560   8.531   2.747 -0.2905  0.0500  0.0531
 4572W        W 4572   0.898   8.142   1.221  0.5145 -0.0716  0.1326
 4573W        W 4573   2.207   8.197   2.370 -0.1830 -0.3793  0.0456
 4574W        W 4574   7.449   1.601   1.313 -0.1484  0.0529  0.1548
 4575W        W 4575   5.223   9.239   0.530 -0.0348 -0.0939 -0.2901
 4576W        W 4576   6.611   9.102   9.157 -0.1396 -0.2192 -0.2511
 4577W        W 4577   8.828   1.233   8.802 -0.0581 -0.2378 -0.2439
 4578W        W 4578   7.617   6.164   7.037 -0.0184 -0.0120 -0.1235
 4579W        W 4579   3.971   3.639   2.918 -0.3362 -0.1081 -0.0173
 4580W        W 4580   9.368   4.182   2.567  0.2192 -0.2032  0.0710
 4581W        W 4581   7.770   8.739   9.851  0.1238 -0.1207 -0.0579
 4582W        W 4582   3.942   9.845   1.875 -0.0087 -0.1909 -0.2751
 4583W        W 4583   8.425   6.466   0.359  0.2301  0.0145 -0.1425
 4584W        W 4584   2.838   5.214   5.007  0.0464 -0.0120 -0.0860
 4585W        W 4585   1.452   1.190   3.964  0.0249  0.1096 -0.0026
 4586W        W 4586   6.762   8.104   5.110  0.0794 -0.1915 -0.1221
 4587W        W 4587   6.306   8.087   2.663 -0.1051 -0.1841 -0.0852
 4588W        W 4588   0.630   2.709   5.228  0.1435 -0.0747  0.0431
 4589W        W 4589   0.700   5.095   2.008 -0.2431  0.0571 -0.1088
 4590W        W 4590   3.527   2.344   8.357  0.0516 -0.0374 -0.1215
 4591W        W 4591   7.363   5.944   9.505 -0.0172 -0.1270 -0.1326
 4592W        W 4592   0.323   4.088   5.075  0.2549 -0.2018  0.0427
 4593W        W 4593   6.257   6.726   7.070 -0.0977  0.1814 -0.3525
 4594W        W 4594   9.610   7.380   2.373  0.1294 -0.0411  0.4378
 4595W        W 4595   6.525   2.307   6.599  0.0987  0.1245 -0.0240
 4596W        W 4596  10.062   3.198   4.874  0.0460 -0.4003  0.0806
 4597W        W 4597   3.908   0.018   2.257  0.0945  0.0938  0.1131
 4598W        W 4598   7.458   7.342   1.378 -0.0886  0.0128  0.2213
 4599W        W 4599   9.364   6.357  10.130 -0.1765 -0.0860 -0.0110
 4600W        W 4600   3.582   4.052   5.383  0.0766  0.2456 -0.1152
 4601W        W 4601   8.189   6.907   4.189 -0.0029  0.0301  0.1133
 4602W        W 4602  10.154   3.528   3.988 -0.0221 -0.2155 -0.0543
 4603W        W 4603   1.037   5.147   2.647 -0.1949  0.0428  0.0519
 4604W        W 4604   9.098   2.160   6.981 -0.1010  0.1334  0.3452
 4605W        W 4605   7.601   3.868  10.254 -0.1827  0.2164 -0.0372
 4606W        W 4606   8.496   5.278  10.086  0.0049 -0.1252 -0.1764
 4607W        W 4607   8.014   1.351   2.462 -0.0681  0.0053 -0.1278
 4608W        W 4608   3.604   3.124   6.921 -0.0161 -0.0568 -0.1626
 4609W        W 4609   6.218   0.922   0.131  0.0483  0.0925 -0.0929
 4610W        W 4610   5.312   4.951   3.176  0.3931 -0.1299 -0.1759
 4611W        W 4611   2.952   1.444   0.036 -0.0293  0.0795  0.1033
 4612W        W 4612   8.727   5.516   7.592 -0.0407  0.0098  0.0110
 4613W        W 4613   1.170   8.582   5.231  0.3236 -0.1264 -0.0777
 4614W        W 4614   5.674   6.105   8.365 -0.2074  0.3384 -0.0795
 4615W        W 4615   7.774   6.947   4.496  0.0107 -0.0574  0.0781
 4616W        W 4616   8.154   1.043   5.449  0.2723  0.0923  0.0613
 4617W        W 4617   3.858   5.514   5.882 -0.1583  0.2319 -0.0810
 4618W        W 4618  10.131   8.670   1.145  0.1203  0.2722 -0.1280
 4619W        W 4619   1.092   2.458   8.829 -0.1017  0.0351 -0.0890
 4620W        W 4620   3.897   2.161   1.839  0.0759  0.0953  0.4976
 4621W        W 4621   8.869   1.763   8.902  0.2830 -0.1215 -0.0023
 4622W        W 4622   8.006   1.420   4.040  0.0853 -0.0508 -0.3213
 4623W        W 4623   3.884   3.539   9.996  0.1491 -0.0173  0.0191
 4624W        W 4624   1.360   2.882   5.000 -0.1085  0.1620  0.0152
 4625W        W 4625   6.554   4.317   2.795  0.3349  0.1188  0.0009
 4626W        W 4626   5.255   9.089   7.757  0.0253 -0.0805  0.0120
 4627W        W 4627   1.915   0.757   9.125 -0.2916 -0.3131 -0.0239
 4628W        W 4628   1.503   1.669   2.036  0.1502 -0.1279  0.3342
 4629W        W 4629   1.260   7.446   0.496 -0.0307 -0.2350 -0.3606
 4630W        W 4630   4.362   8.277   7.636  0.2528 -0.2402  0.1571
 4631W        W 4631   5.217   6.656   7.708 -0.2095 -0.0028  0.3778
 4632W        W 4632   6.540   8.873   0.114  0.0150  0.1715  0.1472
 4633W        W 4633   6.846   8.509   3.991 -0.1249 -0.1496  0.1486
 4634W        W 4634   7.071   7.805   3.289 -0.0796 -0.1444 -0.3998
 4635W        W 4635   7.363   4.112   0.971 -0.2137  0.1488 -0.0546
 4636W        W 4636   5.861   5.383   2.829 -0.1725  0.1523 -0.1397
 4637W        W 4637   4.876   3.705   0.316 -0.1952 -0.0865  0.1124
 4638W        W 4638   1.002   0.354   8.610  0.0866  0.0481  0.0831
 4639W        W 4639   4.715   2.616   0.239  0.0309  0.1412  0.0239
 4640W        W 4640   1.666   1.861   9.508 -0.0425  0.0016  0.1814
 4641W        W 4641   4.830   4.582   4.882 -0.0588  0.2703 -0.2178
 4642W        W 4642   9.691   0.211   7.774  0.0922  0.2524 -0.0101
 4643W        W 4643   4.920   4.059   7.700  0.1842  0.0941 -0.0596
 4644W        W 4644   1.780   1.214   7.638  0.0269  0.1957 -0.0351
 4645W        W 4645   1.966   7.213   9.839  0.0554 -0.0364 -0.2314
 4646W        W 4646   3.341   6.919   3.560 -0.1202 -0.0212  0.2149
 4647W        W 4647   0.702   5.081   7.452 -0.6057  0.1785 -0.1338
 4648W        W 4648   3.101   4.911   7.256  0.2381  0.2538  0.2398
 4649W        W 4649   8.034   8.085   3.099  0.1520  0.0806  0.3148
 4650W        W 4650   6.229   1.048   2.222 -0.0536 -0.0424 -0.0635
 4651W        W 4651   7.707   3.201   5.105  0.0195 -0.1275  0.2171
 4652W        W 4652   0.192   2.332   9.214  0.3485 -0.2589 -0.0859
 4653W        W 4653   8.454   1.310   1.468  0.1216 -0.0189 -0.3616
 4654W        W 4654   5.978   2.615   4.034 -0.1728  0.1890  0.2405
 4655W        W 4655   2.184   8.153  10.321  0.1612 -0.2052  0.2732
 4656W        W 4656   2.171   0.867   4.227  0.1364  0.0333  0.3187
 4657W        W 4657   4.861   6.967   6.755  0.3283 -0.0701 -0.0713
 4658W        W 4658   2.496   0.176   7.761 -0.1878  0.0288 -0.0035
 4659W        W 4659   5.616   1.854   1.163  0.3812  0.0802 -0.1776
 4660W        W 4660   4.735   5.279   4.029  0.1556  0.0413 -0.0707
 4661W        W 4661   2.142   2.292   0.808  0.1969  0.3406 -0.5078
 4662W        W 4662   1.160   6.323   8.679 -0.1257  0.1162 -0.0533
 4663W        W 4663   8.852   1.291   6.699  0.0687  0.0221 -0.1744
 4664W        W 4664   9.170   0.252   7.798  0.0542  0.1725 -0.0967
 4665W        W 4665   3.653   4.926   8.260 -0.2319 -0.1919  0.0267
 4666W        W 4666   7.870   7.744   2.011  0.1156 -0.0291  0.1642
 4667W        W 4667   4.383   4.775   9.057  0.0780  0.2877  0.0211
 4668W        W 4668   1.996   9.397   0.525  0.0955  0.0738  0.1774
 4669W        W 4669   3.318   9.056   7.167  0.2641  0.1083  0.0377
 4670W        W 4670   1.492   3.971  10.232 -0.0297 -0.1390  0.2276
 4671W        W 4671   0.798   2.445   6.178 -0.2090 -0.0318  0.2606
 4672W        W 4672   2.958   8.088   4.385 -0.1281 -0.1512 -0.4074
 4673W        W 4673   6.817   3.758   9.162  0.2309  0.0311  0.1622
 4674W        W 4674   5.076   2.148  10.036 -0.2132  0.0326 -0.0942
 4675W        W 4675   0.153   2.810   8.988 -0.0573  0.1262  0.1925
 4676W        W 4676   2.278   0.264   5.621  0.2081 -0.2636  0.1597
 4677W        W 4677   4.050   6.329  10.003  0.1060 -0.0044  0.3481
 4678W        W 4678   1.848   4.052   9.624 -0.2543  0.0425  0.0207
 4679W        W 4679   8.475   2.055   6.656 -0.2393  0.0498  0.4524
 4680W        W 4680   0.368   7.429   0.555  0.0115  0.1446 -0.3773
 4681W        W 4681   0.819   2.013   5.875 -0.2622 -0.1501 -0.1091
 4682W        W 4682   1.847   2.999   3.311 -0.1785 -0.0948  0.0701
 4683W        W 4683   1.685   2.509   0.710  0.1213  0.0241  0.0990
 4684W        W 4684   7.966   3.693   0.321  0.1386 -0.1317 -0.2169
 4685W        W 4685   0.085   0.026   0.473 -0.0446  0.3006  0.2747
 4686W        W 4686   0.966   5.657   3.693  0.0707  0.3532 -0.0018
 4687W        W 4687   1.170   6.297   1.941  0.0875 -0.0479 -0.0890
 4688W        W 4688   5.344   2.499   2.253 -0.0499  0.0124  0.0966
 4689W        W 4689   5.659   8.563   8.152  0.0313  0.1043 -0.2903
 4690W        W 4690   6.001   2.171   6.187 -0.1498 -0.0177  0.2042
 4691W        W 4691   8.350   7.806   5.962  0.0424 -0.1475  0.1244
 4692W        W 4692   7.151   5.188   8.262  0.0097  0.0132  0.1213
 4693W        W 4693   6.816   1.685   6.585 -0.0856  0.0497 -0.3376
 4694W        W 4694   5.740   6.650   6.864  0.0338  0.2011  0.1612
 4695W        W 4695   1.491   8.242   4.968  0.2135 -0.3974 -0.0732
 4696W        W 4696   5.082   0.209   7.511 -0.0241 -0.1496  0.0616
 4697W        W 4697   4.354   7.913   0.556 -0.2009 -0.0163 -0.0654
 4698W        W 4698   3.257   2.454   4.230 -0.3655 -0.0365 -0.3250
 4699W        W 4699   0.797   8.739   7.816  0.0437 -0.2943 -0.1936
 4700W        W 4700   5.658   0.914   6.827  0.2432  0.1392 -0.0007
 4701W        W 4701   8.638  10.061   5.474 -0.0213 -0.3341 -0.0692
 4702W        W 4702   2.286   2.135   3.252  0.3177  0.0070  0.2472
 4703W        W 4703   8.805   6.248   0.616 -0.1370  0.0594 -0.3322
 4704W        W 4704   3.846   2.668   0.417  0.0447  0.1238 -0.0072
 4705W        W 4705   1.514   5.868   5.256  0.0830 -0.1277  0.0285
 4706W        W 4706   1.912   9.825   0.166  0.2068 -0.0547 -0.2104
 4707W        W 4707   9.009   8.108   4.347  0.1023  0.2606  0.0074
 4708W        W 4708   8.189   4.776   2.496  0.2891 -0.2389 -0.0219
 4709W        W 4709   5.083   4.729   5.495  0.1170  0.1593  0.2498
 4710W        W 4710   6.933   8.803   9.534  0.2755  0.1735  0.3219
 4711W        W 4711   3.202   4.151   2.942 -0.2550  0.1173 -0.0708
 4712W        W 4712   9.990  10.181   6.480 -0.2567  0.2222 -0.1162
 4713W        W 4713   8.582   5.226   4.437 -0.0848 -0.1495  0.0493
 4714W        W 4714   4.218   9.502   0.553 -0.1441 -0.1741 -0.2566
 4715W        W 4715   7.861   5.377   6.855  0.2685 -0.1325  0.0451
 4716W        W 4716   5.519   2.492   7.947 -0.0341 -0.2095 -0.1493
 4717W        W 4717   5.736   8.925   2.932  0.0059 -0.2582  0.2704
 4718W        W 4718   3.285   1.217   3.173  0.0157  0.0147  0.1444
 4719W        W 4719   8.684   9.107   7.605  0.1099  0.1517 -0.0840
 4720W        W 4720   0.849   9.795   6.236  0.1111 -0.0756  0.0876
 4721W        W 4721   4.233   7.723   5.011  0.0238  0.0915  0.0201
 4722W        W 4722   3.079   2.593   6.407  0.2363 -0.1694 -0.0258
 4723W        W 4723   1.421   5.142   1.222 -0.2094  0.1355 -0.0723
 4724W        W 4724   1.423   5.939   1.735 -0.3261  0.4969 -0.3942
 4725W        W 4725   2.849   6.783   0.234  0.0886  0.1154  0.0754
 4726W        W 4726   1.058   0.376   7.532  0.3291 -0.0767  0.0856
 4727W        W 4727   1.846   3.821   4.547  0.0215  0.0041  0.1160
 4728W        W 4728  10.250   7.057  10.308  0.2215 -0.0402 -0.1430
 4729W        W 4729   2.469   8.161   8.949  0.1111  0.2069  0.2009
 4730W        W 4730   8.990   9.899   4.992  0.2756 -0.1455  0.0918
 4731W        W 4731   6.896   8.304   9.489  0.2838 -0.0589  0.1001
 4732W        W 4732  10.221   9.500   4.801 -0.2293 -0.2111 -0.0062
 4733W        W 4733   2.429   8.331   5.913  0.0431  0.0118  0.1118
 4734W        W 4734   4.762   6.045   5.244  0.0390  0.0462  0.0174
 4735W        W 4735   7.336   9.981   8.295 -0.2803  0.1979 -0.0836
 4736W        W 4736   8.439   3.498   8.090 -0.0206 -0.1743 -0.2745
 4737W        W 4737   7.064   6.107   3.368  0.2586  0.2756  0.1469
 4738W        W 4738   0.100   3.842   0.005 -0.1258  0.0115 -0.1179
 4739W        W 4739   3.678   0.280   7.975  0.1270 -0.0969 -0.0491
 4740W        W 4740   0.951   4.274   2.763  0.0946  0.0784 -0.1086
 4741W        W 4741   1.474   9.833   0.419  0.1635 -0.3018  0.1401
 4742W        W 4742   3.482   6.949   3.059 -0.0877 -0.0969  0.1170
 4743W        W 4743   0.363   8.852   3.342 -0.1468  0.0221 -0.0098
 4744W        W 4744   4.456   2.599   6.836 -0.2689 -0.3264  0.2535
 4745W        W 4745   9.791   2.060   5.488 -0.1820  0.0004  0.0416
 4746W        W 4746   9.011   2.281   5.114 -0.0828  0.2532 -0.0972
 4747W        W 4747   2.973   4.754   3.675 -0.2909 -0.0175  0.1433
 4748W        W 4748   3.375   9.159   0.930  0.0468  0.0209 -0.2609
 4749W        W 4749   1.940   1.237   8.789  0.1617  0.1023  0.1798
 4750W        W 4750   3.769   2.142   0.828 -0.0168 -0.3150  0.0182
 4751W        W 4751   1.122   6.986   0.686  0.0542  0.2254 -0.1557
 4752W        W 4752   6.480  10.276   9.097  0.1205 -0.3501 -0.0394
 4753W        W 4753   9.041   3.756   2.444  0.4503  0.1481 -0.1070
 4754W        W 4754   3.998   4.043   7.859  0.1487 -0.1747 -0.2343
 4755W        W 4755   8.525   1.650   8.359 -0.0029  0.3349 -0.3607
 4756W        W 4756   7.762   5.728   7.659 -0.1372 -0.1316  0.1300
 4757W        W 4757   7.160   0.925   9.205 -0.0651  0.1747  0.0755
 4758W        W 4758   3.978   1.635   4.423 -0.0481  0.1316  0.0397
 4759W        W 4759   7.679   3.669   6.142 -0.2395  0.2141  0.1381
 4760W        W 4760   2.169   3.607   7.726  0.3650 -0.2430 -0.1407
 4761W        W 4761   0.854   0.406   6.139 -0.1290  0.0994  0.0094
 4762W        W 4762   6.078   8.192   9.189  0.1407  0.0475  0.0842
 4763W        W 4763   0.556   7.828   7.655  0.1961 -0.1951  0.1578
 4764W        W 4764   2.946   2.491   5.041  0.1503  0.2210 -0.0866
 4765W        W 4765   1.837   9.520   7.241  0.2477  0.0034 -0.3084
 4766W        W 4766   0.632   0.364   1.690 -0.1192  0.2844 -0.2142
 4767W        W 4767   2.775   7.394   0.262 -0.1328  0.0634  0.0579
 4768W        W 4768   6.061   7.288   8.497  0.0203  0.1633 -0.1084
 4769W        W 4769   5.397   9.619   2.689  0.2955  0.1116  0.3064
 4770W        W 4770  10.030   5.777   1.673 -0.0795  0.1779  0.1865
 4771W        W 4771   6.059   7.218   6.917  0.2698  0.2342  0.0843
 4772W        W 4772   4.909   8.883   0.793  0.0666  0.0314  0.0484
 4773W        W 4773   2.148   2.798   5.241 -0.0929  0.1232  0.1431
 4774W        W 4774   0.202   5.130   4.095  0.0291  0.0234  0.2391
 4775W        W 4775   6.211   4.172   2.117 -0.3070  0.0544 -0.2853
 4776W        W 4776   2.223   0.526   3.455  0.1143  0.3847 -0.0688
 4777W        W 4777   9.014   3.670   6.855  0.1691  0.2365 -0.3382
 4778W        W 4778   4.764   4.438  10.013  0.0388 -0.1703 -0.1506
 4779W        W 4779   8.809   8.645   9.770 -0.0951  0.2874  0.2263
 4780W        W 4780   6.740   3.523   1.598 -0.1947 -0.3220  0.1953
 4781W        W 4781   1.142   9.851   5.805  0.0788 -0.0828  0.0083
 4782W        W 4782  10.309   8.431   1.948 -0.1625  0.0797  0.1533
 4783W        W 4783   4.940   9.609   6.959 -0.0384 -0.1707 -0.1658
 4784W        W 4784   2.940   0.022   5.027  0.2343  0.1639 -0.3925
 4785W        W 4785   6.927   9.251   4.993 -0.1830 -0.0826  0.0601
 4786W        W 4786   3.613   1.581   8.116  0.2615 -0.0558  0.2095
 4787W        W 4787   4.898   5.301   8.517 -0.2176  0.0138  0.3959
 4788W        W 4788   7.053   6.893   4.554 -0.2005  0.1792  0.1081
 4789W        W 4789   5.069   7.641   3.440  0.1563  0.0769  0.1453
 4790W        W 4790   9.245   0.860   7.596  0.0632  0.1558 -0.1049
 4791W        W 4791   6.927   5.721   6.671 -0.1376 -0.0393 -0.2152
 4792W        W 4792   5.541   6.397   9.238  0.0837 -0.1329  0.3289
 4793W        W 4793   8.208  10.204   0.843  0.2217  0.2280 -0.1817
 4794W        W 4794   6.125   1.641   5.319 -0.1725 -0.1011  0.0512
 4795W        W 4795   2.005   3.531   9.535 -0.0515  0.1607 -0.0937
 4796W        W 4796   2.733   9.523   1.079 -0.0594 -0.0576 -0.0334
 4797W        W 4797   8.044   8.246   7.273 -0.2749 -0.0146  0.3390
 4798W        W 4798   3.077   7.089  10.173  0.0598  0.1060  0.3079
 4799W        W 4799   7.767   0.906   2.471  0.0042  0.0602  0.0713
 4800W        W 4800   1.203   6.281   2.487 -0.0542 -0.0548  0.1514
 4801W        W 4801   5.974   6.834   8.635  0.3485 -0.1018 -0.1783
 4802W        W 4802   5.331   1.431   9.569  0.1213  0.1104 -0.0554
 4803W        W 4803   6.081   5.350   3.964 -0.0076 -0.0142  0.1431
 4804W        W 4804   4.574   0.723   9.796  0.1844 -0.1054  0.2430
 4805W        W 4805   8.638   0.329   9.807  0.0514 -0.2407  0.2539
 4806W        W 4806   3.069   8.269   3.914 -0.1447 -0.0928  0.5047
 4807W        W 4807   0.088   5.671   6.090 -0.2640  0.0037 -0.1381
 4808W        W 4808   9.929   5.032   4.089 -0.2639  0.4968  0.0859
 4809W        W 4809   2.004   9.487   6.274  0.1421  0.0707  0.1069
 4810W        W 4810   6.202   4.888   7.347  0.1315 -0.4268 -0.1231
 4811W        W 4811   6.382   5.686   8.364 -0.1409 -0.3129 -0.2198
 4812W        W 4812   5.731   4.307   7.962  0.0890  0.0203 -0.2061
 4813W        W 4813   4.002   5.024   1.414  0.0810  0.0004  0.0352
 4814W        W 4814   4.032   1.630   2.540  0.1749  0.1220  0.1403
 4815W        W 4815   4.829   3.586   7.684  0.0194 -0.0242 -0.2772
 4816W        W 4816   5.605   7.089   1.899  0.1649 -0.5568 -0.3143
 4817W        W 4817   8.384   7.325   6.011 -0.0634 -0.0298 -0.0637
 4818W        W 4818   6.776   2.627   2.502  0.1327  0.1890  0.0616
 4819W        W 4819   8.544   2.104   8.098  0.3527 -0.0539  0.3107
 4820W        W 4820   3.359   1.845   8.519 -0.1232 -0.3159  0.0910
 4821W        W 4821   0.038   9.005   8.648  0.0960  0.2490  0.2656
 4822W        W 4822   3.383   6.139   6.471 -0.0291  0.2304 -0.2261
 4823W        W 4823   9.866   8.062   9.098  0.0237  0.3133  0.1838
 4824W        W 4824   1.916   6.376   5.502 -0.0931 -0.0314 -0.1614
 4825W        W 4825   8.667   9.499   3.212  0.0182 -0.2050 -0.0991
 4826W        W 4826   2.647   1.253   2.104 -0.0427  0.3461  0.0617
 4827W        W 4827   7.174   4.412   3.361  0.1856  0.1414  0.4917
 4828W        W 4828   3.111   9.430   5.428 -0.2173  0.2105 -0.2829
 4829W        W 4829   1.004   3.127   2.234 -0.0070  0.1511 -0.2142
 4830W        W 4830   7.064   2.380   9.629  0.1260 -0.0370 -0.0541
 4831W        W 4831   4.668   1.218   3.951 -0.1722 -0.1640  0.3308
 4832W        W 4832   6.410   1.826   3.278 -0.0794 -0.0998 -0.1044
 4833W        W 4833  10.282   0.061   9.961  0.3786 -0.4331 -0.0725
 4834W        W 4834   3.979   0.292   6.959  0.0891  0.1827  0.0282
 4835W        W 4835   2.512   6.765   8.788  0.1544 -0.1717  0.1325
 4836W        W 4836   5.074   2.646   5.024  0.0962  0.2289  0.1321
 4837W        W 4837   5.796   0.607   4.874  0.1798 -0.1448 -0.0874
 4838W        W 4838  10.111   0.385   2.181 -0.1628 -0.2625  0.1945
 4839W        W 4839   5.416   6.260   4.500  0.0653  0.2138 -0.0793
 4840W        W 4840   7.262   4.576   5.404  0.0277 -0.1179 -0.1813
 4841W        W 4841   2.961   9.059   6.201 -0.0293  0.4034 -0.1351
 4842W        W 4842   2.676   0.259   5.973 -0.1183  0.0968  0.0630
 4843W        W 4843   8.363   0.448   2.877 -0.1843  0.1648  0.1038
 4844W        W 4844   7.533   2.403   5.554 -0.2106 -0.4580 -0.0525
 4845W        W 4845   5.426   2.011   2.223  0.1268 -0.4795  0.2987
 4846W        W 4846   8.239   7.681   5.080 -0.0615 -0.4391 -0.5044
 4847W        W 4847  10.030   1.128   5.974  0.3293  0.0572 -0.2626
 4848W        W 4848   6.454  10.193   8.202 -0.1547 -0.1622 -0.1211
 4849W        W 4849   2.917   0.266   1.011 -0.1245 -0.1697 -0.4059
 4850W        W 4850   8.603   0.718   3.208 -0.0124  0.0890  0.1043
 4851W        W 4851   3.641   3.977   3.227 -0.4608  0.0741  0.0542
 4852W        W 4852   8.731   3.090   9.471 -0.1962  0.0996 -0.0770
 4853W        W 4853   2.067   6.440   4.140 -0.2196 -0.3234  0.1190
 4854W        W 4854   3.548   7.012   9.220  0.1542 -0.0413  0.2547
 4855W        W 4855   0.828   7.433   0.677 -0.3013 -0.0152  0.1723
 4856W        W 4856   0.439   4.330   4.564  0.0879 -0.0947  0.0210
 4857W        W 4857   8.103   2.185   0.403  0.0555 -0.0844  0.3297
 4858W        W 4858   6.265   5.941   5.835 -0.1803 -0.1070 -0.0833
 4859W        W 4859   9.379   1.000   6.747  0.0727 -0.0585  0.0339
 4860W        W 4860   7.312   8.371   1.450  0.1065  0.2762 -0.0337
 4861W        W 4861   4.313   9.215   7.554  0.0607 -0.0298 -0.4095
 4862W        W 4862   0.086   4.554   5.835 -0.2984  0.1874 -0.0760
 4863W        W 4863   9.654   1.128   5.147 -0.0904  0.2433 -0.1451
 4864W        W 4864   6.783   7.880   8.306  0.1061 -0.0637 -0.0833
 4865W        W 4865   0.065   3.213   3.190 -0.0267 -0.1559 -0.0535
 4866W        W 4866   6.238   5.262   6.722 -0.1246 -0.2032  0.1134
 4867W        W 4867   3.135   7.013   2.697  0.2756  0.1064  0.1144
 4868W        W 4868   6.788   2.224   8.877  0.3296  0.0153  0.1935
 4869W        W 4869   4.667   6.348   0.223 -0.3109 -0.0608 -0.1850
 4870W        W 4870   3.816   8.248   7.363  0.0187  0.0499  0.2810
 4871W        W 4871   8.975   6.139   9.845  0.0915 -0.0444 -0.0762
 4872W        W 4872   9.096   4.287   3.664  0.1903 -0.0519  0.3709
 4873W        W 4873   7.353  10.124   3.268  0.2017 -0.2746 -0.0247
 4874W        W 4874   8.305   4.387   8.314  0.3059  0.0847  0.0680
 4875W        W 4875   9.039   4.721   8.999  0.3073 -0.2202  0.1140
 4876W        W 4876   2.491   1.567   4.021 -0.0043 -0.1049 -0.1911
 4877W        W 4877   5.823   2.134   4.695 -0.1434 -0.1445  0.1882
 4878W        W 4878   3.559   4.085   1.979 -0.1678  0.0995 -0.1247
 4879W        W 4879   5.366   9.993   0.232 -0.0136  0.0052 -0.0003
 4880W        W 4880   5.919   7.723   1.305  0.1200  0.0868 -0.0798
 4881W        W 4881   0.706   8.396   5.428  0.2742  0.1223 -0.1845
 4882W        W 4882   5.168   4.091   9.980  0.0575  0.2530  0.1215
 4883W        W 4883   2.961   4.775   4.279 -0.2483 -0.1538  0.1088
 4884W        W 4884   0.630   1.545   1.964  0.0763  0.1397 -0.0189
 4885W        W 4885   1.203   3.761   8.887  0.0082 -0.2698 -0.0938
 4886W        W 4886  10.045   1.275   0.652 -0.0596  0.0540  0.2769
 4887W        W 4887   0.744   0.702   9.027 -0.0235 -0.2675 -0.2237
 4888W        W 4888  10.296   5.658   4.805 -0.0816  0.1476 -0.0577
 4889W        W 4889   9.487   0.150   6.193 -0.2534  0.0778 -0.1248
 4890W        W 4890   5.505   0.271   6.295 -0.0787 -0.1467  0.2132
 4891W        W 4891   1.137   7.942   6.346 -0.0337 -0.0242 -0.3111
 4892W        W 4892   2.764   5.582   7.884 -0.0945 -0.0121 -0.1707
 4893W        W 4893   6.983   7.162   3.614  0.1732 -0.1704 -0.1549
 4894W        W 4894   1.655   9.041   4.326  0.0029 -0.1803  0.3978
 4895W        W 4895   8.406   3.767   0.727 -0.1850 -0.1621 -0.1477
 4896W        W 4896   7.079   2.200   8.348 -0.0609 -0.1025 -0.0527
 4897W        W 4897   3.256   1.695   9.821 -0.3787 -0.0344  0.0475
 4898W        W 4898   2.709   6.960   3.630  0.3071 -0.3069  0.0530
 4899W        W 4899   1.460   3.159   9.088 -0.2894 -0.1254  0.1699
 4900W        W 4900   3.991   1.954   6.526 -0.1784  0.0691 -0.1191
 4901W        W 4901   5.164   7.822   5.234 -0.0945  0.0252 -0.1243
 4902W        W 4902   0.938   7.138   6.870  0.1544  0.0811 -0.0969
 4903W        W 4903   2.629   3.353   1.394  0.1910 -0.1234 -0.0848
 4904W        W 4904   8.075   8.117   9.583  0.0281 -0.1555  0.1376
 4905W        W 4905   7.040   7.910   4.598  0.0982  0.1785 -0.0111
 4906W        W 4906   1.176   3.396   1.211 -0.0694 -0.0703 -0.1816
 4907W        W 4907   4.462   0.036   6.575 -0.4684 -0.0435  0.0886
 4908W        W 4908   5.068   5.281   9.163  0.5441  0.0773  0.0869
 4909W        W 4909   9.744   4.152   5.298  0.1262  0.0479 -0.2975
 4910W        W 4910   4.454   6.851   2.218 -0.0077 -0.0849 -0.1711
 4911W        W 4911   1.139   9.875   2.011 -0.0147  0.3295 -0.2637
 4912W        W 4912   1.857   4.056   6.897  0.2413  0.0865  0.1110
 4913W        W 4913   4.250   5.091   3.633  0.1024  0.1299  0.1370
 4914W        W 4914   5.201   0.259   9.452 -0.0079  0.0146  0.0699
 4915W        W 4915   0.724   8.521   7.348 -0.2306  0.3549 -0.0087
 4916W        W 4916   9.774   0.515   5.838 -0.0930 -0.0215  0.1318
 4917W        W 4917   8.147   9.932   2.613  0.2289  0.0582 -0.3988
 4918W        W 4918   3.135   9.921   9.045 -0.0456 -0.2042 -0.0759
 4919W        W 4919   2.203   2.232   5.692  0.3191  0.0247 -0.0765
 4920W        W 4920   3.576   2.018   5.042  0.1468  0.0867  0.2549
 4921W        W 4921   8.161   6.680   2.454  0.2546 -0.1462 -0.0073
 4922W        W 4922   5.357   5.872   7.911  0.0172 -0.1271  0.2364
 4923W        W 4923   4.439   8.754   8.957 -0.0488 -0.0079  0.0528
 4924W        W 4924   9.668   1.886   9.254 -0.0635  0.0159 -0.0687
 4925W        W 4925   2.088   6.503   6.655 -0.0184  0.1385  0.2565
 4926W        W 4926   4.282   6.587   4.586  0.2525  0.0472 -0.0315
 4927W        W 4927   0.019   9.823   1.680  0.1313  0.1485  0.0429
 4928W        W 4928   0.608   4.913   0.114  0.0665 -0.2326  0.1562
 4929W        W 4929   8.877   8.653   6.879 -0.2737 -0.0491 -0.0594
 4930W        W 4930   8.070   4.052   3.765  0.0091 -0.3219  0.0927
 4931W        W 4931   9.584   3.915   5.777 -0.2122  0.1013  0.1030
 4932W        W 4932   0.415   0.992   8.186  0.1463  0.1657  0.1189
 4933W        W 4933   9.606   3.358   7.542 -0.0992  0.2844  0.2685
 4934W        W 4934   3.775   1.463   5.786 -0.2388  0.0768 -0.0970
 4935W        W 4935   7.467   4.784   1.936  0.0009  0.0801  0.1801
 4936W        W 4936   2.733   8.573   7.798  0.1628 -0.1158  0.0603
 4937W        W 4937   4.529   8.921   7.936  0.2630  0.1537  0.0376
 4938W        W 4938  10.053   4.466   6.232 -0.2486  0.0801  0.2362
 4939W        W 4939   8.403   4.817   3.035 -0.2450  0.0129  0.2164
 4940W        W 4940   3.782   9.065   1.278  0.0269  0.0100 -0.3473
 4941W        W 4941   2.927   2.010   9.564  0.0744 -0.1150  0.0962
 4942W        W 4942   1.372   1.253   8.528  0.0755  0.1949 -0.1548
 4943W        W 4943   6.193   0.174   1.994 -0.2864 -0.2073 -0.2816
 4944W        W 4944   1.880   7.237   3.836  0.3364  0.0706  0.1334
 4945W        W 4945   9.406   2.367   4.696 -0.0667  0.0874 -0.0673
 4946W        W 4946   9.716   6.754  10.181 -0.0139 -0.3539 -0.2660
 4947W        W 4947   9.444   5.396   9.071  0.0518  0.1423 -0.0614
 4948W        W 4948   7.427   3.141   2.526  0.0530  0.2160 -0.1864
 4949W        W 4949   1.326   2.513   3.357  0.0103  0.1331  0.1726
 4950W        W 4950   1.798   3.008   8.629  0.0739 -0.1624 -0.0936
 4951W        W 4951   6.746   0.632   6.648 -0.0740 -0.2575  0.1402
 4952W        W 4952   7.531   1.288   1.784 -0.1033 -0.1500 -0.0081
 4953W        W 4953   3.015   3.590   8.438  0.0081  0.1386  0.3524
 4954W        W 4954   4.756   9.793   3.459 -0.2658 -0.0055 -0.0156
 4955W        W 4955   1.043  10.108   0.202  0.1225 -0.1024 -0.1363
 4956W        W 4956   1.334   1.085   7.327  0.2863 -0.2481  0.1167
 4957W        W 4957   2.973   7.267   4.314  0.2626 -0.0922 -0.1140
 4958W        W 4958   1.518   6.111   5.768  0.1479  0.0336 -0.1344
 4959W        W 4959   1.168  10.267   6.794  0.2333  0.0045 -0.1439
 4960W        W 4960   2.993   0.929   7.271  0.1016 -0.2422 -0.2714
 4961W        W 4961   4.272   4.607   9.994  0.0144  0.0121  0.4294
 4962W        W 4962   7.939   6.771   3.314 -0.1510 -0.0994 -0.0529
 4963W        W 4963   2.815   2.586   2.284  0.1347 -0.3668  0.0457
 4964W        W 4964   1.004   8.926   6.247 -0.1247  0.0373 -0.0729
 4965W        W 4965   5.630   8.024   4.244 -0.0930 -0.0344  0.0540
 4966W        W 4966   2.484   2.919   2.069  0.2492 -0.0379 -0.1317
 4967W        W 4967   8.015   8.681   5.086 -0.0026  0.0946 -0.2942
 4968W        W 4968   1.786   7.927   7.932 -0.2747 -0.0404 -0.1979
 4969W        W 4969   4.727   5.330   3.402 -0.2535 -0.0168  0.1127
 4970W        W 4970   0.367   4.838   6.890 -0.1070  0.3947  0.1248
 4971W        W 4971   9.978   1.701   0.423  0.0111  0.0965 -0.0171
 4972W        W 4972   2.425   9.616   5.863 -0.0852 -0.2815  0.1595
 4973W        W 4973   9.893   1.340   2.537  0.0083  0.4759  0.0259
 4974W        W 4974   0.628   8.584   1.208  0.0781 -0.0473  0.0931
 4975W        W 4975   2.421   7.993   7.060  0.1303 -0.0551 -0.0974
 4976W        W 4976   4.672  10.268   5.664  0.0890  0.0435  0.0723
 4977W        W 4977   3.852   0.835   1.242  0.3143  0.0467 -0.4246
 4978W        W 4978   8.846   2.410   1.109  0.1186 -0.2519  0.3518
 4979W        W 4979   4.388   0.324   5.439  0.3382 -0.0016  0.0043
 4980W        W 4980   3.596   3.961   7.586  0.0476 -0.0183 -0.3169
 4981W        W 4981   7.940   1.874   4.142 -0.4292 -0.3011  0.4760
 4982W        W 4982   1.045   5.676   5.660  0.2316 -0.0414 -0.0216
 4983W        W 4983   3.107   4.348   8.251  0.2809  0.0580  0.0193
 4984W        W 4984   8.564   3.485   0.255 -0.1677  0.2537 -0.1561
 4985W        W 4985   1.684   7.444   5.625  0.0409 -0.0238 -0.1688
 4986W        W 4986   8.686   1.437   4.724  0.0001 -0.1208  0.1191
 4987W        W 4987   7.415   7.291   3.820 -0.0602 -0.2536 -0.1016
 4988W        W 4988   1.963   5.489   8.585 -0.2558  0.2324  0.0735
 4989W        W 4989   6.526   9.734   7.606  0.0376  0.4261 -0.1738
 4990W        W 4990   5.483   7.181   0.249 -0.0194 -0.2682  0.1333
 4991W        W 4991   6.698   1.029   1.934  0.1131  0.0456  0.1206
 4992W        W 4992   2.751   5.445   2.329 -0.0319  0.2391 -0.1946
 4993W        W 4993   7.350   8.944   1.400 -0.2240 -0.1925  0.0138
 4994W        W 4994   1.339   8.841   7.345  0.4096  0.2950 -0.0460
 4995W        W 4995   1.542   9.639   9.951  0.0877 -0.1975 -0.3229
 4996W        W 4996   3.798   9.790   7.029 -0.1621  0.3004  0.1499
 4997W        W 4997   1.439   5.521  10.085  0.1502  0.1081  0.0026
 4998W        W 4998   7.176   7.603   8.193 -0.0486 -0.0923  0.3322
 4999W        W 4999   8.367   1.702  10.016 -0.3544 -0.1237  0.1457
 5000W        W 5000   7.082   5.650   1.640  0.0737  0.1215  0.1339
 5001W        W 5001   0.381   7.143   3.145 -0.0836 -0.2335  0.0176
 5002W        W 5002   8.769   0.786   2.735  0.1325  0.0194 -0.1445
 5003W        W 5003   1.818   2.465   2.175 -0.0391 -0.1517 -0.0488
 5004W        W 5004   8.652   1.838   1.286 -0.2919 -0.0832  0.0267
 5005W        W 5005   2.132   7.172   8.978  0.1065 -0.0597 -0.1402
 5006W        W 5006   7.904   2.325   1.567  0.1897  0.1040  0.1971
 5007W        W 5007   2.077   9.386   2.011 -0.0190 -0.1764  0.0161
 5008W        W 5008   0.491   7.459   5.118  0.0452  0.4061  0.1005
 5009W        W 5009   1.492   5.596   7.859  0.0070 -0.0866  0.2271
 5010W        W 5010   4.672   3.862   7.222 -0.0348  0.2807 -0.1293
 5011W        W 5011   3.295   7.670   7.986  0.1059 -0.1634  0.1609
 5012W        W 5012   6.713   7.906   6.035 -0.2353 -0.1663 -0.1220
 5013W        W 5013   6.925   6.436   4.828 -0.2272  0.4517  0.1433
 5014W        W 5014   1.047   8.544   6.965 -0.1231 -0.0204  0.0605
 5015W        W 5015   0.352   9.722   9.084  0.2548 -0.1763 -0.2788
 5016W        W 5016  10.276   6.253   0.971 -0.0985  0.2394 -0.1436
 5017W        W 5017   5.737   5.977   2.168  0.0156  0.3029  0.0408
 5018W        W 5018   3.029   2.901   7.823 -0.1297 -0.2616  0.2482
 5019W        W 5019   7.995   8.022   2.385 -0.2212  0.1323  0.0468
 5020W        W 5020   2.447   3.744   9.459  0.0716 -0.2798  0.3393
 5021W        W 5021   4.409   4.031   3.252  0.2609  0.0668 -0.0674
 5022W        W 5022   3.496   9.645   1.856 -0.0261  0.0515  0.0088
 5023W        W 5023   0.137   0.242   3.520 -0.0636  0.0150 -0.1718
 5024W        W 5024   7.381   7.016   4.250 -0.0980 -0.2845 -0.0393
 5025W        W 5025   9.931   5.466   1.242  0.2377 -0.3668 -0.0909
 5026W        W 5026   8.256   5.207   0.524 -0.0853  0.2199  0.0054
 5027W        W 5027   2.146   4.459   4.974  0.0918  0.1559 -0.2020
 5028W        W 5028   2.487   1.270  10.274  0.2708 -0.1026  0.1617
 5029W        W 5029   0.887   8.110   4.941 -0.0413  0.0087 -0.0215
 5030W        W 5030   9.082   0.478   8.779  0.3301 -0.1765 -0.2489
 5031W        W 5031   4.933  10.227   6.105 -0.1154  0.0814 -0.2340
 5032W        W 5032   0.268   8.357   2.701  0.1170 -0.2074 -0.0078
 5033W        W 5033   1.633   1.031   9.966  0.0776  0.1536  0.1521
 5034W        W 5034   1.491   3.257   5.943  0.1340  0.2701  0.1513
 5035W        W 5035   5.022   5.274   5.496 -0.1544 -0.0000 -0.1079
 5036W        W 5036   2.625   7.536   3.586 -0.0520  0.0364 -0.0048
 5037W        W 5037   1.462   7.857   0.297 -0.0540  0.3253  0.1291
 5038W        W 5038   5.231   7.021   6.378 -0.0323 -0.1143  0.0076
 5039W        W 5039   2.256   5.677   0.994 -0.2023  0.2502  0.0095
 5040W        W 5040   1.267   0.856   6.037 -0.1830 -0.0432 -0.4962
 5041W        W 5041   1.354   2.895  10.129 -0.0155  0.2110  0.1107
 5042W        W 5042   9.098   4.799   9.468 -0.4855 -0.0783  0.0426
 5043W        W 5043   3.958   0.178   6.475  0.3483  0.0141 -0.0836
 5044W        W 5044  10.053   4.583   8.569 -0.0959 -0.2389 -0.1067
 5045W        W 5045   8.110   6.025  10.309  0.0888  0.3580  0.3413
 5046W        W 5046   2.160   6.348   7.112  0.1420 -0.0321 -0.0455
 5047W        W 5047   0.628   4.015   1.023 -0.2095  0.1266  0.2191
 5048W        W 5048   6.459   5.809   7.874  0.0591 -0.0945  0.1482
 5049W        W 5049   8.973   8.990   8.469  0.0444 -0.1263  0.0619
 5050W        W 5050   3.540   9.142   7.978 -0.0216 -0.2065 -0.0473
 5051W        W 5051   9.313   5.235   3.333  0.0918 -0.0817 -0.0318
 5052W        W 5052   1.544   5.295   5.079  0.2198 -0.0438  0.0009
 5053W        W 5053   6.846   6.111   9.147 -0.2958  0.3079 -0.1596
 5054W        W 5054   7.112   3.397   9.272  0.1382  0.3131 -0.1554
 5055W        W 5055   0.704   9.995   8.195 -0.1675 -0.0892  0.1423
 5056W        W 5056   1.622   1.604   7.337 -0.0984 -0.1447 -0.1261
 5057W        W 5057   3.705  10.091   9.758  0.0160 -0.0706 -0.0608
 5058W        W 5058   0.733  10.095   6.652 -0.2245  0.1484  0.0291
 5059W        W 5059   6.295   6.797   7.672  0.1709  0.2144  0.0570
 5060W        W 5060   2.160   8.122   8.199 -0.1179 -0.0058 -0.2547
 5061W        W 5061   7.593   2.745   1.670  0.0178 -0.1483 -0.2710
 5062W        W 5062   1.346   9.068   3.127  0.0332  0.1141  0.1604
 5063W        W 5063   1.702   2.297   5.983 -0.2291 -0.1932 -0.0899
 5064W        W 5064   3.062   8.984   8.157  0.0475  0.4020  0.1523
 5065W        W 5065   8.112   3.941   8.201  0.0992  0.2298 -0.0951
 5066W        W 5066   9.065  10.122   4.453  0.0768 -0.0166 -0.2941
 5067W        W 5067   0.507   4.036   9.547 -0.2340  0.0760  0.1167
 5068W        W 5068   5.254   2.253   9.475 -0.1530 -0.0087  0.0649
 5069W        W 5069   0.899   2.862   1.790  0.0173  0.2584  0.0546
 5070W        W 5070   3.680   7.705   5.948 -0.0690 -0.0040  0.0469
 5071W        W 5071   4.411   6.066   8.799  0.1106  0.1662 -0.0655
 5072W        W 5072   6.703   7.496   3.404  0.3033  0.1857 -0.0051
 5073W        W 5073   0.792   4.266   6.860  0.2196 -0.0004  0.2469
 5074W        W 5074   6.070   2.451   4.986 -0.2073  0.1457  0.1076
 5075W        W 5075   7.378   7.601   6.928 -0.1253 -0.1101 -0.1829
 5076W        W 5076   5.921   2.319   0.875  0.0080  0.1513 -0.1294
 5077W        W 5077   3.341   1.288   7.698 -0.1448 -0.1708  0.0607
 5078W        W 5078   3.134   0.080   3.341  0.0576 -0.0902 -0.1166
 5079W        W 5079   6.627   0.130   6.500 -0.0595  0.1832  0.0834
 5080W        W 5080   9.228   1.664   0.838  0.2075 -0.1187  0.0558
 5081W        W 5081   0.280   4.172   7.764 -0.0199  0.0350  0.0042
 5082W        W 5082   0.133   9.993   4.127  0.3027 -0.0946 -0.0381
 5083W        W 5083   5.283   8.320   1.453 -0.0795 -0.1619 -0.2956
 5084W        W 5084   6.231   1.402   0.667  0.0138  0.0734  0.2170
 5085W        W 5085   9.939   9.252   8.347  0.4917  0.1576  0.2234
 5086W        W 5086   4.239   2.370   4.895  0.1002 -0.0948 -0.0486
 5087W        W 5087   7.593   6.417   5.517  0.0180  0.2649 -0.0078
 5088W        W 5088   5.688  10.019   2.946  0.1945  0.2920 -0.2008
 5089W        W 5089   7.053   9.044   0.158  0.1610  0.1150 -0.1605
 5090W        W 5090   0.859   1.641   1.379  0.0569  0.1312  0.3743
 5091W        W 5091  10.267   3.955   2.258 -0.1284 -0.1816 -0.2561
 5092W        W 5092   6.024   1.496   2.373 -0.1534 -0.1028 -0.1232
 5093W        W 5093   7.287   3.234   0.943  0.2605  0.2441 -0.0437
 5094W        W 5094   2.693   3.280   0.036 -0.2261  0.1138 -0.0260
 5095W        W 5095   5.309   7.456   0.676 -0.0063 -0.3867 -0.1694
 5096W        W 5096   1.085   6.830   4.626 -0.3021  0.2099  0.0493
 5097W        W 5097   0.255   3.163   7.755  0.1154  0.0532 -0.0751
 5098W        W 5098   2.202   1.326   2.264  0.0689  0.1517 -0.0438
 5099W        W 5099   9.847   1.872   4.086 -0.0800  0.1400 -0.1511
 5100W        W 5100   2.729   1.886   0.572 -0.0728 -0.0979 -0.1685
 5101W        W 5101   2.723   5.431   0.035  0.1931 -0.3318  0.1039
 5102W        W 5102   5.637   1.915   3.772 -0.2145 -0.1385  0.4395
 5103W        W 5103  10.241   0.862   1.955  0.1304  0.0865  0.0385
 5104W        W 5104   7.691   1.817   7.839 -0.3293  0.2058  0.0141
 5105W        W 5105   9.809   0.259   9.994  0.0922  0.3208 -0.1725
 5106W        W 5106   2.227   7.379   1.932  0.0742  0.1862  0.0216
 5107W        W 5107   6.336   3.651   2.058  0.0280 -0.0500 -0.3439
 5108W        W 5108   4.283   3.238   3.540  0.1029 -0.0835 -0.2001
 5109W        W 5109   2.441   5.529   9.516 -0.1192  0.0055 -0.1150
 5110W        W 5110   8.570   2.862   1.252 -0.3466 -0.0909 -0.0379
 5111W        W 5111   7.009   1.799   7.425  0.2421  0.0892 -0.1687
 5112W        W 5112  10.276   4.654   7.218 -0.0711 -0.1263  0.0097
 5113W        W 5113   2.074   6.959   6.879  0.0392  0.0280 -0.3066
 5114W        W 5114   7.340   0.153   9.248  0.0947 -0.2494  0.0932
 5115W        W 5115   7.452   2.330   4.914 -0.1456  0.1260  0.1815
 5116W        W 5116   5.746  10.242   2.058 -0.1062  0.1888  0.1474
 5117W        W 5117   0.720   4.395   3.275  0.0687 -0.0409 -0.1944
 5118W        W 5118   9.643   5.297   6.680  0.0471 -0.0394  0.3424
 5119W        W 5119  10.194   1.376   2.109  0.2331  0.0989 -0.3321
 5120W        W 5120   3.697   8.181   1.235  0.0368  0.1676 -0.3367
 5121W        W 5121   7.342   9.432   8.975 -0.0107  0.0674 -0.0733
 5122W        W 5122   4.227   3.210   6.001  0.0165 -0.0633  0.0490
 5123W        W 5123   3.927   9.855   4.201 -0.1368  0.2678  0.2276
 5124W        W 5124   1.246   1.746   0.667  0.1054  0.1474 -0.1966
 5125W        W 5125   9.599   7.602   3.853 -0.0549  0.0284 -0.1037
 5126W        W 5126   8.170   7.131   5.166 -0.3498 -0.3280  0.0365
 5127W        W 5127   6.590   0.833   9.144  0.3279  0.0579 -0.0779
 5128W        W 5128   6.952   1.502   3.485  0.2157 -0.0185 -0.1838
 5129W        W 5129   5.514   9.479   9.504 -0.1423 -0.0396 -0.0793
 5130W        W 5130   2.116   7.628   3.950 -0.3091 -0.1269  0.4297
 5131W        W 5131   1.729   5.054   3.295  0.0889 -0.1306  0.0812
 5132W        W 5132   2.265   8.140   1.413 -0.0262 -0.0305 -0.0822
 5133W        W 5133   8.876   7.830   9.211 -0.1412 -0.1729 -0.1256
 5134W        W 5134   6.451   8.330   1.777  0.0166 -0.1670 -0.1108
 5135W        W 5135   8.803   9.258   2.231  0.2196  0.2075 -0.0561
 5136W        W 5136   6.037   9.755   4.168 -0.0263  0.0314  0.0795
 5137W        W 5137   9.989   8.632   6.282 -0.0392  0.0786  0.1170
 5138W        W 5138   9.183   2.765   5.128  0.1420  0.0539 -0.0331
 5139W        W 5139   6.299   2.535   2.560  0.0774 -0.1052  0.0258
 5140W        W 5140   5.081   8.899   3.688  0.1088 -0.1864  0.3306
 5141W        W 5141   3.486   1.894   3.849  0.0318  0.1097 -0.1182
 5142W        W 5142   9.383   0.777  10.075  0.0480 -0.0339 -0.0518
 5143W        W 5143   6.290   3.832  10.182 -0.1109 -0.0324 -0.1266
 5144W        W 5144   0.113   6.969   4.903  0.0929  0.2594 -0.0153
 5145W        W 5145   6.699   6.940   9.407  0.3260  0.0767 -0.2171
 5146W        W 5146   8.193   9.320   9.225 -0.1189  0.1855 -0.1448
 5147W        W 5147   1.319   7.967   9.758 -0.0861 -0.3491  0.1172
 5148W        W 5148   0.265   5.219   6.524  0.1989 -0.1623 -0.2845
 5149W        W 5149   8.232  10.247   5.853  0.3894  0.2294 -0.2476
 5150W        W 5150   5.170   2.474   8.724  0.1590 -0.0691 -0.0307
 5151W        W 5151   5.836   1.149   5.074  0.0940 -0.3463 -0.0476
 5152W        W 5152   1.294   1.703   8.183 -0.6105  0.0670 -0.1032
 5153W        W 5153   7.780   2.428  10.319 -0.2513  0.2649  0.3498
 5154W        W 5154   0.647   3.521   9.559 -0.2331  0.0560  0.1345
 5155W        W 5155  10.026   1.920   4.636  0.2329 -0.0001  0.0068
 5156W        W 5156   4.534   6.930   4.325 -0.0848 -0.2584  0.0303
 5157W        W 5157   2.237   5.815   6.651 -0.2639  0.1378  0.3614
 5158W        W 5158   0.928   6.295   9.574  0.1689 -0.4438 -0.0383
 5159W        W 5159   2.806   8.583   6.079 -0.1002 -0.0388 -0.0145
 5160W        W 5160   9.608   1.469   3.966  0.0789 -0.0138 -0.0121
 5161W        W 5161   5.983   3.956   6.535 -0.0202  0.1715 -0.0442
 5162W        W 5162   3.132   5.028   0.121 -0.0738 -0.0527 -0.3015
 5163W        W 5163   8.417   0.228   7.159 -0.2474  0.2535  0.0324
 5164W        W 5164   6.859  10.190   3.271 -0.2820  0.2207 -0.1496
 5165W        W 5165   2.408   5.925   7.801  0.1852  0.0380  0.1469
 5166W        W 5166   5.673  10.077   5.422 -0.0895 -0.0447  0.1521
 5167W        W 5167   0.762   6.051   7.384  0.2749  0.3035  0.3241
 5168W        W 5168   6.321   7.445   4.186  0.0793 -0.0022  0.2857
 5169W        W 5169   7.161   8.503   0.050 -0.0846  0.1402  0.0085
 5170W        W 5170   7.152   9.952   9.438 -0.1060 -0.0751 -0.1118
 5171W        W 5171   6.560   7.899   8.759 -0.2713 -0.1037  0.3797
 5172W        W 5172   7.849   9.948   7.721  0.4126 -0.0923 -0.0714
 5173W        W 5173   0.591   9.715   9.563  0.0444 -0.1431  0.0702
 5174W        W 5174   5.867   0.832   9.883 -0.2989  0.0536  0.2107
 5175W        W 5175   8.374   5.203   9.601  0.1756 -0.0095  0.0060
 5176W        W 5176   2.519   1.048   6.494  0.0232  0.1298 -0.4134
 5177W        W 5177   7.029   9.182   6.085  0.1888 -0.0084 -0.0413
 5178W        W 5178   9.856   7.006   6.067 -0.0066 -0.3478  0.2447
 5179W        W 5179   9.523   0.374   9.504  0.4157  0.0535  0.1788
 5180W        W 5180   1.068   0.761   1.035  0.5525  0.1753  0.0846
 5181W        W 5181   0.177   8.496   9.247  0.1180  0.0745 -0.2232
 5182W        W 5182   0.940   7.778   6.818  0.2343  0.4505 -0.0644
 5183W        W 5183   3.312   8.830   1.984  0.0388  0.0489  0.0366
 5184W        W 5184   9.729   5.426   3.063 -0.2762 -0.2367 -0.2072
 5185W        W 5185   3.083   6.143   8.436 -0.1851 -0.1024 -0.0452
 5186W        W 5186   2.022   9.417   6.800 -0.1013 -0.3955  0.1704
 5187W        W 5187   1.439   3.567   8.246 -0.3841  0.0530  0.1472
 5188W        W 5188   1.843   0.163   4.259  0.3335  0.0812 -0.0670
 5189W        W 5189   5.374   1.798   5.537 -0.3420 -0.2052 -0.1445
 5190W        W 5190   6.266   5.035   2.679  0.0157 -0.0248 -0.1610
 5191W        W 5191   7.428   9.509   0.973 -0.0945 -0.2595  0.2113
 5192W        W 5192   1.345   4.266   9.397  0.0852  0.1378  0.0428
 5193W        W 5193   6.447   1.853   8.937  0.0286  0.2558  0.1776
 5194W        W 5194   5.294   4.964   1.091 -0.0933  0.1146  0.1155
 5195W        W 5195   4.642   1.837   9.862  0.1950  0.0159  0.2194
 5196W        W 5196   7.911   3.664   7.859  0.1104  0.0108  0.0778
 5197W        W 5197   0.081   4.266   3.304  0.0214  0.0931  0.1172
 5198W        W 5198   1.020   5.149  10.236 -0.2665  0.0857 -0.0015
 5199W        W 5199   0.109   0.549   8.302 -0.4494 -0.0943 -0.0811
 5200W        W 5200   2.269   0.556   6.162  0.2568 -0.0250 -0.2164
 5201W        W 5201   7.893   2.951   9.973 -0.1135  0.0231  0.2634
 5202W        W 5202   9.642   1.905   6.433  0.0538  0.2372  0.0601
 5203W        W 5203  10.071   5.258   1.705  0.0648  0.1422 -0.0024
 5204W        W 5204   9.563   1.015   5.661 -0.0845  0.4406  0.0844
 5205W        W 5205   6.747   8.385   1.346  0.0991  0.0110  0.0356
 5206W        W 5206   8.834   6.039   7.783  0.4571 -0.2064 -0.1589
 5207W        W 5207   0.372   8.178   3.695 -0.1834 -0.0514  0.3177
 5208W        W 5208   1.105   4.794   9.059 -0.1791  0.2241 -0.0328
 5209W        W 5209   0.592   1.220   1.445  0.2058 -0.0170 -0.4425
 5210W        W 5210   8.344   6.340   0.830 -0.2627  0.1150  0.3101
 5211W        W 5211   4.515   0.360   1.531 -0.0876 -0.2997 -0.0156
 5212W        W 5212   5.734   4.875   2.851 -0.0826  0.1617 -0.5150
 5213W        W 5213  10.263   2.251   2.815 -0.1855  0.1324 -0.1181
 5214W        W 5214   2.472   4.120   5.598 -0.2832  0.2855 -0.1894
 5215W        W 5215   4.037   5.871   6.279 -0.1032  0.0598 -0.2122
 5216W        W 5216   8.159   7.893   3.983 -0.0837 -0.1466  0.2907
 5217W        W 5217   5.035   5.510   1.032  0.2043  0.1561  0.0500
 5218W        W 5218   0.882   4.387   1.670  0.1605 -0.0931  0.2264
 5219W        W 5219   3.725   7.063   4.696  0.1905  0.1983  0.3446
 5220W        W 5220   3.652   8.724   2.916  0.0782  0.1069 -0.2803
 5221W        W 5221   2.507   9.392   1.626  0.1874 -0.3804 -0.1148
 5222W        W 5222   3.129   6.128   1.792 -0.1709  0.5862 -0.1595
 5223W        W 5223   8.716   6.192   5.196 -0.0035 -0.0078 -0.1444
 5224W        W 5224   6.402   9.634   9.281 -0.0505 -0.0676  0.1433
 5225W        W 5225   0.761   7.062   9.535 -0.1850  0.1409 -0.0062
 5226W        W 5226   9.452   5.967   8.943  0.0726  0.0688  0.1411
 5227W        W 5227   0.106   4.665   7.712  0.2691 -0.1402 -0.3307
 5228W        W 5228   9.531   0.690   3.434  0.2975  0.0355  0.0116
 5229W        W 5229   3.930   1.974   7.312  0.0763  0.0817  0.5506
 5230W        W 5230   0.210   2.524   6.297  0.1061 -0.0799  0.1734
 5231W        W 5231   2.967   5.154   0.568  0.0631  0.2015 -0.1988
 5232W        W 5232   3.135   0.868   5.837 -0.3996 -0.1660  0.3157
 5233W        W 5233   7.805   2.359   4.468 -0.2232  0.1612 -0.0797
 5234W        W 5234   7.337   6.877   1.258  0.0363 -0.1299 -0.1231
 5235W        W 5235   6.771   4.060   7.138 -0.2877 -0.0614  0.2038
 5236W        W 5236   0.164   5.564   5.249 -0.1157  0.2345  0.0109
 5237W        W 5237   0.852   0.295   1.163  0.0848 -0.0657 -0.3004
 5238W        W 5238   9.146   0.229   8.362 -0.2654 -0.1931  0.0961
 5239W        W 5239   0.313   1.912  10.215  0.0089  0.0720 -0.0323
 5240W        W 5240   9.587  10.024   2.062  0.1970 -0.0164 -0.0516
 5241W        W 5241   5.948   7.377   6.052  0.1418  0.0783  0.2312
 5242W        W 5242   2.490   0.841   3.822  0.0267 -0.1166  0.1979
 5243W        W 5243   7.226   5.700   5.323 -0.1181  0.0381 -0.0713
 5244W        W 5244   4.947   8.042   6.585 -0.2917  0.0349 -0.1049
 5245W        W 5245   1.311   5.789   6.128  0.0391  0.1356  0.1065
 5246W        W 5246   2.577   8.279   2.792  0.1520  0.2454 -0.1461
 5247W        W 5247   6.292   4.504   8.856 -0.0804  0.1085 -0.1234
 5248W        W 5248   7.797   4.310   8.446 -0.0327 -0.1639 -0.1709
 5249W        W 5249   3.592   0.137   6.101 -0.2455 -0.3344  0.1019
 5250W        W 5250   4.407   3.475   6.359 -0.2583 -0.1881 -0.1030
 5251W        W 5251   5.069   2.844   7.248  0.1338  0.3930  0.0138
 5252W        W 5252   5.579   5.811   3.073  0.0782  0.1608 -0.1875
 5253W        W 5253   7.755   6.855   8.416 -0.2357  0.0928 -0.0689
 5254W        W 5254   5.015   6.358  10.006  0.0753 -0.0497 -0.0074
 5255W        W 5255  10.120   0.325   6.167 -0.1883  0.1815 -0.0947
 5256W        W 5256   6.619   9.192   6.922 -0.1271  0.2219 -0.1027
 5257W        W 5257   1.564   1.525  10.194  0.4574 -0.4527  0.1269
 5258W        W 5258   1.566   2.764   9.338  0.2807  0.1004  0.0402
 5259W        W 5259   0.625   8.895   5.337 -0.2718 -0.2271 -0.3474
 5260W        W 5260   3.505   1.603   3.422  0.1339  0.3314  0.0289
 5261W        W 5261   9.894   6.327   8.758 -0.1635 -0.1402 -0.1200
 5262W        W 5262   7.377   2.912   4.912  0.0719  0.0681  0.1432
 5263W        W 5263   0.992   4.864   6.050 -0.0552  0.1737  0.3142
 5264W        W 5264   0.107   6.892   9.407 -0.0866 -0.0719 -0.0783
 5265W        W 5265   2.721   5.624   0.505 -0.1235 -0.1003 -0.0083
 5266W        W 5266   6.576   9.275   5.990  0.0067  0.0568  0.2805
 5267W        W 5267   9.076   9.636   6.927  0.1928  0.2716  0.1119
 5268W        W 5268   0.746   6.484   6.109 -0.1150 -0.1811  0.1720
 5269W        W 5269   5.847   4.349   8.453 -0.0519 -0.2320 -0.1405
 5270W        W 5270   6.204   2.368   7.228 -0.0998 -0.0295 -0.0655
 5271W        W 5271   9.484   3.056   3.035 -0.1685 -0.3850  0.4136
 5272W        W 5272   2.027   2.487   0.262  0.1982  0.0743 -0.1893
 5273W        W 5273   3.344   2.957   7.326 -0.1323  0.1139  0.2348
 5274W        W 5274   1.732   8.521   1.122 -0.1877 -0.0560 -0.1985
 5275W        W 5275   1.015   0.648   6.573  0.1701 -0.1288 -0.2310
 5276W        W 5276   8.982   6.919   3.973  0.0960 -0.2470 -0.1428
 5277W        W 5277   0.734   4.677   1.288  0.0008 -0.2634  0.2523
 5278W        W 5278   1.559   7.090   6.753 -0.2431  0.4278  0.1357
 5279W        W 5279   3.105   1.362   1.478  0.0279 -0.4087  0.3561
 5280W        W 5280   1.644   1.738   6.015  0.0183 -0.0585 -0.0641
 5281W        W 5281   6.332   7.435   3.107  0.0553  0.1835  0.0010
 5282W        W 5282  10.208  10.128   8.016  0.1542  0.1791 -0.0110
 5283W        W 5283   8.741   0.266   3.105  0.1287  0.1004  0.1553
 5284W        W 5284   0.747   6.915   4.117  0.3605 -0.0234 -0.0916
 5285W        W 5285  10.019   9.358   3.563 -0.2638  0.2298  0.2800
 5286W        W 5286   3.491   1.407   8.903 -0.0693  0.1394 -0.3247
 5287W        W 5287   6.997   3.244   3.596  0.1002 -0.0029  0.1763
 5288W        W 5288   0.080   0.297   9.534 -0.4334  0.1568 -0.2509
 5289W        W 5289   0.444   2.650   1.174  0.2996  0.2374  0.3382
 5290W        W 5290   9.241   3.410   5.010  0.0325  0.1860  0.0095
 5291W        W 5291   7.060   2.984   4.039  0.0091  0.0765  0.0760
 5292W        W 5292   9.856   3.472   0.828 -0.3553 -0.0120 -0.0667
 5293W        W 5293   0.549   1.762   6.954 -0.1902  0.1118  0.3928
 5294W        W 5294   0.009   6.754   8.929 -0.1865 -0.0972  0.0928
 5295W        W 5295   7.883   8.459   3.379  0.0074 -0.2290 -0.0823
 5296W        W 5296   6.131   1.485   0.193  0.2845 -0.1584  0.0988
 5297W        W 5297   8.705   9.591   7.733  0.0482  0.1627 -0.0004
 5298W        W 5298   2.529   7.239   2.298 -0.0328 -0.1815  0.1365
 5299W        W 5299   5.387   4.490   8.479 -0.0659 -0.0669  0.0322
 5300W        W 5300  10.321   2.424   1.839 -0.0328 -0.0456  0.1384
 5301W        W 5301   9.824   9.575   4.360 -0.2258 -0.4020 -0.0008
 5302W        W 5302   9.889   9.721   1.643  0.2256 -0.0925 -0.2181
 5303W        W 5303   0.588   0.872   1.133 -0.1719  0.0359  0.0663
 5304W        W 5304   8.650   4.222   1.817  0.1171  0.2162 -0.0157
 5305W        W 5305   5.792   4.455   6.700  0.1249 -0.2052 -0.2311
 5306W        W 5306   9.646   1.660   0.001 -0.3600  0.0660  0.1438
 5307W        W 5307   5.039   9.360   9.955 -0.1868 -0.2526 -0.3018
 5308W        W 5308   7.053   8.283   8.613  0.1721  0.1773  0.2015
 5309W        W 5309   2.749   7.547   1.865 -0.0172  0.3922  0.0357
 5310W        W 5310   3.013   5.706   2.789  0.1159 -0.0842 -0.1733
 5311W        W 5311   9.221   0.195   6.644 -0.2865  0.3124  0.0527
 5312W        W 5312   0.156   2.912   5.475 -0.1547  0.0393  0.1266
 5313W        W 5313   9.208   4.134   6.011 -0.1737 -0.0390 -0.0223
 5314W        W 5314   5.358   7.725   2.119 -0.1049  0.1503 -0.0262
 5315W        W 5315   0.533  10.120   2.436  0.2734 -0.1242 -0.1694
 5316W        W 5316   3.640   5.430   9.762  0.2346 -0.4313  0.1640
 5317W        W 5317   1.661   9.077   0.516  0.1144 -0.0418  0.3053
 5318W        W 5318   2.258   6.167   2.857  0.0032  0.2050  0.0542
 5319W        W 5319   9.378   9.895   9.698  0.1023 -0.0999  0.0894
 5320W        W 5320   9.079   2.221   4.236  0.2845  0.2829 -0.1332
 5321W        W 5321   2.009  10.157   1.313 -0.1838  0.1750 -0.0107
 5322W        W 5322   6.672  10.233   0.092  0.1241  0.0276  0.1262
 5323W        W 5323   0.399  10.068   1.913 -0.2155  0.0372  0.0152
 5324W        W 5324   2.719   4.480   5.166 -0.0610  0.0349  0.1056
 5325W        W 5325   8.680   5.187   6.634  0.3423  0.0067  0.1136
 5326W        W 5326   3.375   0.070   1.138 -0.3075 -0.1010 -0.2939
 5327W        W 5327   7.567   2.223   8.179 -0.2066 -0.1502 -0.2400
 5328W        W 5328   1.451   5.794   2.298  0.2265  0.2214  0.0815
 5329W        W 5329   0.537   3.625   5.160 -0.1027  0.0073 -0.0922
 5330W        W 5330   3.252   6.600   9.436 -0.0756  0.1100  0.1623
 5331W        W 5331   0.467   8.437   1.710 -0.0410 -0.1178 -0.1184
 5332W        W 5332   6.958  10.276   1.020  0.2961  0.1190 -0.2084
 5333W        W 5333   1.806   7.357   8.658  0.0481  0.0909  0.0510
 5334W        W 5334   3.970   5.845   2.408 -0.1117  0.0193 -0.1002
 5335W        W 5335   4.391   4.792   6.668 -0.2077 -0.3152  0.1765
 5336W        W 5336   3.560   6.357   9.727  0.1872 -0.0731 -0.1128
 5337W        W 5337   9.911   9.011   8.820  0.2131  0.3331 -0.1479
 5338W        W 5338   2.726   5.286   5.486  0.0649  0.1712 -0.0617
 5339W        W 5339   2.180   2.908   6.614 -0.0942  0.0469  0.0216
 5340W        W 5340   8.541   6.799   0.730 -0.0342  0.0208  0.1912
 5341W        W 5341   0.962   7.150   6.368  0.2097  0.0321  0.1028
 5342W        W 5342  10.075   1.305   8.577 -0.0042  0.1530  0.0609
 5343W        W 5343   6.575   7.244   7.745  0.2162 -0.4799 -0.0487
 5344W        W 5344   2.170   1.562   8.147 -0.0103  0.2184  0.0391
 5345W        W 5345   0.856   9.237   9.384  0.0655  0.1036  0.0157
 5346W        W 5346   0.424   3.350  10.293  0.0447 -0.1997  0.0391
 5347W        W 5347   7.527   1.092   9.958 -0.2813  0.5197 -0.1642
 5348W        W 5348   3.040   4.639   0.453 -0.2384 -0.0442 -0.1293
 5349W        W 5349   8.624   6.890   0.011 -0.0736  0.0817  0.1330
 5350W        W 5350   0.213   4.084   5.564 -0.1616 -0.0661  0.0589
 5351W        W 5351   9.371   1.114   3.244 -0.1154 -0.0276  0.1465
 5352W        W 5352   0.675   7.921   0.730  0.1410 -0.0529 -0.1156
 5353W        W 5353   8.005   4.540   4.860  0.1481 -0.0862 -0.1199
 5354W        W 5354   5.705   1.153   8.557  0.1676  0.0788  0.0264
 5355W        W 5355   5.662   4.367   5.764 -0.2410  0.1197 -0.1851
 5356W        W 5356   4.576   2.399   5.357  0.1239  0.1325 -0.1610
 5357W        W 5357   6.240   8.954   4.745 -0.0547 -0.0706  0.0564
 5358W        W 5358   2.244   1.106   8.453  0.0259 -0.0976  0.0102
 5359W        W 5359   8.126  10.103   3.843 -0.0163  0.1014 -0.1308
 5360W        W 5360   5.486   9.654  10.101 -0.0157  0.0712  0.0521
 5361W        W 5361   2.502   9.912   1.504  0.2830  0.1527  0.0695
 5362W        W 5362   4.227   9.001   8.441 -0.1743 -0.2899 -0.1696
 5363W        W 5363   1.983   9.990   4.960  0.1348  0.1223  0.1773
 5364W        W 5364   3.901   2.017   8.148 -0.2164 -0.0840 -0.1336
 5365W        W 5365   6.305   9.130   3.585 -0.1115 -0.1835  0.0148
 5366W        W 5366   7.060   8.008   3.822 -0.1181  0.2317  0.0217
 5367W        W 5367   3.122   7.235   1.709 -0.1226 -0.0328 -0.0117
 5368W        W 5368   7.721   4.082   8.938 -0.0098  0.0400 -0.0293
 5369W        W 5369   7.025   3.196   9.860 -0.0741 -0.1819 -0.0674
 5370W        W 5370   2.852   0.829   2.239 -0.1761 -0.2628  0.3277
 5371W        W 5371   2.464   1.979   9.841 -0.0993 -0.1632 -0.0820
 5372W        W 5372   6.213   3.298   0.671  0.1452  0.1056  0.0122
 5373W        W 5373   5.065   3.103   9.509  0.0769  0.1128  0.2162
 5374W        W 5374   5.934   2.791   9.779  0.1304  0.1981  0.0842
 5375W        W 5375   7.076   7.423   1.981 -0.2938  0.0805 -0.1013
 5376W        W 5376   9.026   3.251   9.114 -0.1464  0.0771  0.0704
 5377W        W 5377   2.691   5.419   0.942 -0.0734  0.1225 -0.0058
 5378W        W 5378   0.398   9.155   4.995  0.2041  0.2379  0.3353
 5379W        W 5379   5.370   3.260   0.611  0.1594 -0.1525 -0.1786
 5380W        W 5380   6.159  10.195   3.896  0.0722  0.5925  0.0030
 5381W        W 5381   0.678   5.624   8.967  0.1166 -0.1729 -0.2152
 5382W        W 5382   0.284   5.791   0.008 -0.2803 -0.1077  0.0983
 5383W        W 5383   9.153   8.270   6.928  0.0524  0.0247 -0.1334
 5384W        W 5384   2.898   7.736   3.114  0.0282 -0.1707  0.0249
 5385W        W 5385   7.152   2.490   6.745 -0.1628  0.1873  0.0510
 5386W        W 5386   1.636   8.873   5.580 -0.1027 -0.1178 -0.0112
 5387W        W 5387   1.936   2.796   1.112 -0.1291 -0.2886 -0.0197
 5388W        W 5388   9.604   1.147   8.794  0.1716  0.2852  0.1806
 5389W        W 5389   8.564   3.349   1.041  0.1281  0.0786  0.5671
 5390W        W 5390   1.688   2.160   7.701  0.0845  0.2379  0.1777
 5391W        W 5391   5.925   9.778   2.568  0.4401 -0.2988 -0.0365
 5392W        W 5392   6.780   9.923   8.559 -0.1222  0.1801 -0.0573
 5393W        W 5393   7.112   2.881   1.338 -0.0501 -0.0441 -0.0206
 5394W        W 5394   0.847   0.976   0.515  0.0234 -0.0901  0.1295
 5395W        W 5395   2.347   3.842   6.885 -0.1263 -0.2045 -0.2553
 5396W        W 5396   3.487   5.740   2.584  0.1030 -0.4129 -0.0898
 5397W        W 5397   2.604   9.416   2.168 -0.0978 -0.1449 -0.2678
 5398W        W 5398   6.118   2.677   9.359  0.0454  0.2440  0.1160
 5399W        W 5399   9.219   4.307   8.784 -0.0437 -0.1035 -0.0496
 5400W        W 5400   3.212   3.577   2.570  0.0850  0.1065 -0.0711
 5401W        W 5401   1.359   6.226   6.694 -0.2327 -0.1079  0.0180
 5402W        W 5402   3.280   3.923   0.584 -0.0561 -0.2504  0.0434
 5403W        W 5403   9.155   8.568   3.237 -0.3058  0.3569  0.0385
 5404W        W 5404   7.840   6.700   1.710 -0.0145  0.1156  0.2442
 5405W        W 5405   6.687   4.594   0.424 -0.0790  0.1480  0.1120
 5406W        W 5406   0.642   7.009   6.005  0.1269  0.4724  0.3834
 5407W        W 5407   3.900   4.871   5.447 -0.1522  0.2146 -0.2012
 5408W        W 5408   0.986   8.104   2.889 -0.3915 -0.1562  0.2130
 5409W        W 5409   2.478   4.491   3.561  0.2332 -0.2649 -0.0799
 5410W        W 5410   7.420   1.500   7.597 -0.2519  0.2396 -0.1446
 5411W        W 5411   6.459   0.645   7.906 -0.2096 -0.0385  0.0303
 5412W        W 5412   7.338   2.819   3.605  0.2114  0.0564 -0.0198
 5413W        W 5413   7.444   9.983   6.212 -0.2972  0.3586  0.3185
 5414W        W 5414   6.384   7.889   3.731 -0.1416  0.1412  0.0103
 5415W        W 5415   5.683   4.503   7.177  0.0663  0.1105 -0.0963
 5416W        W 5416   7.782   1.234   6.302 -0.0007  0.1051  0.2681
 5417W        W 5417   9.156   0.028   0.212 -0.0831  0.1123 -0.1496
 5418W        W 5418   4.397   5.182   9.357 -0.3800 -0.0220  0.0524
 5419W        W 5419   9.655   5.011   3.621  0.2489  0.0192 -0.2297
 5420W        W 5420   5.534   2.822  10.290 -0.2764  0.0796 -0.0639
 5421W        W 5421   7.078   1.121   9.669  0.0176 -0.1758 -0.1539
 5422W        W 5422   3.716   8.825   0.720  0.2922  0.1428  0.1340
 5423W        W 5423   8.037   6.635   1.098  0.2352  0.1951 -0.1473
 5424W        W 5424   8.541   9.239   1.283 -0.0756 -0.2651  0.1007
 5425W        W 5425   5.833   7.432   2.221 -0.0214  0.0520  0.1611
 5426W        W 5426   3.628   5.806   5.260  0.0357 -0.2333 -0.2531
 5427W        W 5427   7.546   3.667   1.734  0.0219 -0.0726  0.0867
 5428W        W 5428   3.343   7.338   4.638 -0.2242  0.3255 -0.0755
 5429W        W 5429   5.504   8.576  10.232 -0.0478 -0.0184  0.1022
 5430W        W 5430   5.627   0.442   1.269 -0.1100 -0.1475 -0.0869
 5431W        W 5431   4.182   1.465   4.853 -0.0737  0.1226  0.3689
 5432W        W 5432   2.568   1.925   8.829  0.1368  0.0950 -0.0715
 5433W        W 5433   9.222  10.163   7.077 -0.1528 -0.0613 -0.1519
 5434W        W 5434   6.183   2.981   4.308  0.0680 -0.0843 -0.0440
 5435W        W 5435   9.588   4.524   2.252  0.0092  0.1255  0.0346
 5436W        W 5436   7.085   8.371   5.484  0.2722  0.1426  0.3063
 5437W        W 5437   2.180   3.498   8.633 -0.3651 -0.1108 -0.1821
 5438W        W 5438   1.863   5.649   4.855  0.0324  0.0103  0.0801
 5439W        W 5439   0.734   1.451   6.111  0.2203 -0.2480  0.0586
 5440W        W 5440   8.627  10.124   4.153  0.0688  0.1218 -0.2008
 5441W        W 5441   3.439   5.699   1.686  0.3477  0.0258  0.0402
 5442W        W 5442   6.578   4.954   9.618 -0.1590 -0.0773 -0.0410
 5443W        W 5443   0.236   0.743  10.129 -0.0367 -0.0613  0.4801
 5444W        W 5444   5.655   1.117   9.423 -0.2090  0.0031  0.0008
 5445W        W 5445   9.825   7.801   3.390 -0.1912  0.2131  0.1812
 5446W        W 5446   0.664   8.214   0.281 -0.0441 -0.0489 -0.0681
 5447W        W 5447   7.152   6.925  10.258 -0.2203 -0.2954 -0.2375
 5448W        W 5448   4.871   2.965   8.588  0.2400  0.3364 -0.1271
 5449W        W 5449   3.560   5.694   6.293 -0.4188 -0.2184 -0.0501
 5450W        W 5450   7.702   2.920   9.174  0.1320 -0.0610 -0.3609
 5451W        W 5451   4.199   5.735   9.190  0.0408 -0.1539 -0.0084
 5452W        W 5452   4.268   2.009   9.043  0.3280  0.2986 -0.0731
 5453W        W 5453   0.559   9.680   5.059  0.1616 -0.0663  0.0383
 5454W        W 5454   4.493   7.271   8.283 -0.0120 -0.0323 -0.1462
 5455W        W 5455   1.605   8.212   0.727 -0.1706  0.0181  0.0701
 5456W        W 5456   9.268   5.750   7.743  0.4060 -0.0457  0.0388
 5457W        W 5457   9.092   7.180   9.761  0.0251  0.4899 -0.1049
 5458W        W 5458   8.190   7.557   9.427  0.0734 -0.4389 -0.0305
 5459W        W 5459   5.663   2.982   9.410  0.0205 -0.0064  0.0332
 5460W        W 5460   8.540   4.295   6.810 -0.0423  0.2180 -0.1527
 5461W        W 5461   9.208   4.173   2.014 -0.0277  0.1455 -0.3670
 5462W        W 5462   3.851   2.716   1.431 -0.0138 -0.2538  0.3700
 5463W        W 5463   4.436   1.258   9.540  0.0437  0.1639  0.0377
 5464W        W 5464   3.283   0.270   4.734  0.1470  0.1166 -0.1303
 5465W        W 5465   8.562   5.104   7.907 -0.0764  0.1104  0.0640
 5466W        W 5466   1.917   9.000   5.116  0.3340  0.0281  0.2295
 5467W        W 5467   8.651   6.105   4.484  0.2217 -0.0265  0.0778
 5468W        W 5468   9.005   4.070   4.096  0.1249 -0.0044  0.1638
 5469W        W 5469   6.870   9.676   4.129  0.0339 -0.0117 -0.0983
 5470W        W 5470   6.473   4.289  10.233  0.2057  0.2497 -0.0408
 5471W        W 5471   6.820   8.954   0.707  0.1012  0.1092 -0.2009
 5472W        W 5472   9.297   2.817   1.866  0.1062  0.0183  0.0849
 5473W        W 5473   4.348   2.110   3.568 -0.0563  0.0061 -0.1010
 5474W        W 5474   4.499   1.984   5.744 -0.0610 -0.0639  0.1939
 5475W        W 5475   0.545   7.095   9.033  0.1540  0.0139 -0.1181
 5476W        W 5476   3.147   6.688   0.610  0.0220 -0.0887 -0.0746
 5477W        W 5477   3.929   7.023   0.183  0.0463 -0.1623 -0.0490
 5478W        W 5478   2.157   2.192   6.609 -0.0343 -0.1632  0.1444
 5479W        W 5479   6.838   0.376   7.057 -0.2069 -0.2697 -0.4173
 5480W        W 5480   4.265   2.044   1.493 -0.0774  0.0806  0.0898
 5481W        W 5481   3.565   2.989   0.106  0.0063  0.1093  0.1814
 5482W        W 5482   1.625   4.937   9.433  0.0850 -0.0593  0.2423
 5483W        W 5483   1.752   9.493   7.767 -0.0009  0.3637  0.3071
 5484W        W 5484   0.792   8.894   2.062 -0.0274 -0.2092 -0.1115
 5485W        W 5485   1.512  10.114   2.477  0.0501 -0.0921 -0.0225
 5486W        W 5486   8.640   9.459   4.844 -0.1397 -0.0212 -0.2003
 5487W        W 5487   6.778   4.042   0.204 -0.1374  0.2745  0.1102
 5488W        W 5488  10.062   9.941   0.436  0.0806  0.0882  0.2263
 5489W        W 5489   6.395   0.456   0.376  0.2746  0.0241 -0.2616
 5490W        W 5490   0.683   4.886   4.499  0.0041 -0.2472 -0.0212
 5491W        W 5491   4.997   8.513   3.411 -0.0832  0.1002  0.0660
 5492W        W 5492   5.633   9.153   4.862  0.0273  0.2335  0.2769
 5493W        W 5493   1.586   8.478   9.052 -0.0813 -0.1360  0.2932
 5494W        W 5494   3.902   5.918   1.677 -0.1870 -0.1774 -0.1372
 5495W        W 5495   1.577  10.004   1.185  0.1146 -0.1894  0.0759
 5496W        W 5496   9.405   7.226   7.673 -0.0024  0.0740  0.0391
 5497W        W 5497   8.372   1.140   9.212  0.0701  0.2265  0.0489
 5498W        W 5498   0.561   1.348   1.004  0.1735 -0.2158 -0.0271
 5499W        W 5499   0.796   5.240   9.401 -0.1728 -0.0420  0.2571
 5500W        W 5500   6.804   4.406   1.484 -0.3513  0.2011 -0.1116
 5501W        W 5501   5.503   5.076   5.501  0.2187 -0.0121 -0.1168
 5502W        W 5502   6.778   8.890   8.728  0.2989 -0.1434  0.2436
 5503W        W 5503   1.187   5.039   8.603 -0.0633  0.1946 -0.1131
 5504W        W 5504   8.664   4.790   8.291 -0.0544 -0.2290  0.0881
 5505W        W 5505   2.251   2.602   4.086  0.1260 -0.2151 -0.3002
 5506W        W 5506  10.099   2.093   9.466 -0.0644 -0.4226  0.0198
 5507W        W 5507   3.031   1.268   9.609 -0.0846 -0.3298 -0.0338
 5508W        W 5508   1.154   2.406  10.070  0.0150  0.0461 -0.2108
 5509W        W 5509   3.484   3.526   7.239  0.1133  0.2539 -0.1029
 5510W        W 5510   1.785   8.520   5.260 -0.1105 -0.1239  0.0106
 5511W        W 5511   6.759   0.894   6.212  0.0807  0.2392  0.0646
 5512W        W 5512   4.713   2.609   3.934  0.2265  0.0664 -0.0407
 5513W        W 5513   1.021   3.749   5.398  0.0407  0.0035  0.2330
 5514W        W 5514   1.276   9.452   8.761  0.1125 -0.0648 -0.0271
 5515W        W 5515   5.767   5.956   7.629  0.2409 -0.0529 -0.1191
 5516W        W 5516   1.069   9.354   2.127 -0.3059 -0.0026  0.0691
 5517W        W 5517   1.283   6.040   4.269 -0.0168  0.2116  0.2062
 5518W        W 5518   1.420   3.525   4.606 -0.0307 -0.3394  0.0124
 5519W        W 5519   9.608   8.313   8.283 -0.1457 -0.0132  0.3472
 5520W        W 5520   0.064   8.583   3.703  0.2628 -0.1617  0.1355
 5521W        W 5521   7.769   7.809   7.317  0.0071  0.0601 -0.1689
 5522W        W 5522   7.502   5.804   0.762 -0.2223  0.0556  0.1081
 5523W        W 5523  10.169   6.337   9.647  0.2365  0.0139  0.3442
 5524W        W 5524   4.406   2.998   1.945  0.2149 -0.0064  0.0339
 5525W        W 5525   1.922  10.136   0.826  0.2176  0.0658  0.0686
 5526W        W 5526   5.822   8.375   5.858  0.1028 -0.0306  0.3397
 5527W        W 5527   3.554   3.580   3.834 -0.2861  0.0898 -0.2990
 5528W        W 5528   0.418   3.670   9.933  0.4436  0.0151  0.1456
 5529W        W 5529   8.926   8.822   2.342 -0.2796  0.2595 -0.0107
 5530W        W 5530   8.611   8.178   9.006 -0.0465 -0.2894 -0.0987
 5531W        W 5531   0.254   4.744   9.990 -0.0181  0.2091  0.0796
 5532W        W 5532   2.298   4.123   8.696 -0.0396  0.1033 -0.1096
 5533W        W 5533   5.110   2.789   6.023 -0.3087 -0.1488  0.2500
 5534W        W 5534   3.816   0.995   6.269  0.0710  0.0283  0.0123
 5535W        W 5535   3.091   4.305   4.418  0.3127  0.2231 -0.1773
 5536W        W 5536   7.857   7.432   6.668  0.1039 -0.0512  0.1045
 5537W        W 5537   9.400   6.712   0.402 -0.0874 -0.0323 -0.0519
 5538W        W 5538   9.807   3.883   7.310  0.3311 -0.2022 -0.1268
 5539W        W 5539   4.177   9.802  10.040 -0.0324  0.1209  0.0351
 5540W        W 5540   7.034   6.621   0.565  0.1932 -0.1754 -0.2244
 5541W        W 5541   7.877  10.049   3.401 -0.2705 -0.1224 -0.0190
 5542W        W 5542   4.898   4.028   9.047 -0.1013 -0.0868 -0.2277
 5543W        W 5543   8.068   8.827   1.044 -0.3420 -0.0284 -0.0536
 5544W        W 5544   3.202   4.607   9.771 -0.3022  0.0602  0.1683
 5545W        W 5545   9.650   9.692   0.184 -0.0890 -0.3139  0.1057
 5546W        W 5546   2.222   6.715   3.745 -0.0574  0.2474  0.0106
 5547W        W 5547   8.709   6.442   1.125 -0.1018  0.0707  0.1721
 5548W        W 5548   7.528   7.874   2.505  0.0051 -0.0552 -0.4088
 5549W        W 5549   1.396   8.110   4.488  0.1915 -0.1045 -0.1544
 5550W        W 5550   3.693   5.010   8.901  0.1348 -0.2264 -0.0315
 5551W        W 5551   3.013   8.972   8.661 -0.0670 -0.0898  0.1803
 5552W        W 5552   0.041   9.781   8.669  0.1623 -0.3288  0.2253
 5553W        W 5553   3.289   7.238   1.014 -0.1419  0.1116  0.2696
 5554W        W 5554   7.207   2.640   8.130  0.2587  0.2054  0.2191
 5555W        W 5555   0.708   8.677   4.133 -0.0188  0.3139 -0.1945
 5556W        W 5556   2.050   0.868   1.058 -0.0028  0.0899 -0.0155
 5557W        W 5557   3.267   2.146   7.305  0.0422  0.0824 -0.1249
 5558W        W 5558  10.272   7.282   5.287  0.0094  0.2358 -0.0689
 5559W        W 5559   7.939   6.135   3.319 -0.1509 -0.0442  0.2520
 5560W        W 5560   8.802   7.984   0.720 -0.0389  0.1238  0.4288
 5561W        W 5561   1.043   1.597   8.680 -0.2966  0.0831  0.1052
 5562W        W 5562   6.604   3.352   7.823  0.3227 -0.0235  0.1620
 5563W        W 5563   2.305   7.575   0.214  0.2118 -0.0836 -0.1623
 5564W        W 5564   9.804   7.281   4.181  0.3402 -0.2955  0.1410
 5565W        W 5565   2.928   6.508   8.785  0.2910  0.4869 -0.2884
 5566W        W 5566  10.111   2.088   5.970  0.1550 -0.0059  0.0053
 5567W        W 5567   1.054   1.544   7.177 -0.0174  0.3053  0.0585
 5568W        W 5568   2.936   1.002   6.767  0.2251  0.0616 -0.0183
 5569W        W 5569   9.868   5.010   5.086 -0.1929 -0.0625 -0.2335
 5570W        W 5570   5.337   8.792   6.769 -0.3683 -0.1122  0.0666
 5571W        W 5571   3.962   4.396   4.944  0.1991  0.1416 -0.3435
 5572W        W 5572   9.167   0.750   4.231  0.1499  0.2741  0.1579
 5573W        W 5573   1.241   1.827   4.746  0.4840  0.0625 -0.0226
 5574W        W 5574   3.251   9.363   2.220  0.1726  0.2338  0.1076
 5575W        W 5575   5.862   4.402   9.182  0.2754 -0.0500 -0.0189
 5576W        W 5576   1.211   6.339   4.758  0.0243  0.2260 -0.1587
 5577W        W 5577   5.748   6.702  10.242  0.0031 -0.2425 -0.2054
 5578W        W 5578   0.040   5.942   2.275  0.0690 -0.0414 -0.0057
 5579W        W 5579   1.572   7.011   1.503 -0.3561 -0.0395  0.2148
 5580W        W 5580   8.587   3.950   8.043 -0.0409  0.1770  0.0265
 5581W        W 5581   7.581   4.602   6.492 -0.0231 -0.2283  0.3366
 5582W        W 5582   9.796   1.466   4.445 -0.2501 -0.0264  0.2845
 5583W        W 5583   5.029   7.230   8.613 -0.1522  0.3031  0.2000
 5584W        W 5584   8.381  10.037   7.083 -0.0732  0.1515 -0.0693
 5585W        W 5585   5.185   4.217   5.701 -0.1387  0.2072  0.2445
 5586W        W 5586   0.664   1.342   3.038 -0.0294 -0.2201  0.1808
 5587W        W 5587   8.869   0.467   5.578 -0.0691  0.0985  0.1358
 5588W        W 5588   1.947   9.540   5.740 -0.0343 -0.0260  0.2740
 5589W        W 5589   7.061   8.985   6.619  0.2000 -0.1497  0.0728
 5590W        W 5590   5.653   6.833   5.463 -0.0473 -0.2178 -0.4936
 5591W        W 5591   8.454   8.106   8.523  0.1424  0.2963 -0.2316
 5592W        W 5592   5.435   3.013   7.655  0.3152 -0.0478  0.4722
 5593W        W 5593   2.865   4.681   6.874 -0.1031  0.2856 -0.0603
 5594W        W 5594   5.254   6.715   6.753 -0.1099 -0.0549  0.1508
 5595W        W 5595  10.208   9.751   3.779  0.2160 -0.0791  0.0824
 5596W        W 5596   2.390   5.451   4.933 -0.0378  0.2404  0.0104
 5597W        W 5597   1.188   1.995   6.257  0.4207 -0.1507  0.2126
 5598W        W 5598   1.334   4.286   6.081 -0.0091  0.1401 -0.2042
 5599W        W 5599   6.527   1.266   3.261 -0.2201  0.1767 -0.1610
 5600W        W 5600   2.981   9.759  10.094 -0.2354 -0.0959  0.3049
 5601W        W 5601   9.214   5.602   4.829  0.1729 -0.0552 -0.1209
 5602W        W 5602   0.547   9.355   3.037 -0.1026 -0.0092 -0.0468
 5603W        W 5603   3.832   3.558   4.863 -0.0249  0.2259  0.0931
 5604W        W 5604   7.042   6.389   5.426  0.1354 -0.0495  0.2433
 5605W        W 5605   5.023   2.672   2.540  0.1125 -0.0452 -0.1482
 5606W        W 5606   8.235   9.839   9.917  0.1376  0.2868  0.0385
 5607W        W 5607   2.983   8.466   0.245  0.0327 -0.0722  0.0651
 5608W        W 5608   7.492   5.539   9.772  0.0357 -0.0979  0.0929
 5609W        W 5609   1.171   5.376   8.185  0.0068  0.1039 -0.2650
 5610W        W 5610   3.900   1.042   6.828 -0.0298 -0.1603  0.0084
 5611W        W 5611   7.822   8.409   1.272  0.1490  0.2639 -0.2756
 5612W        W 5612   0.239   7.556   9.037 -0.1511 -0.1433  0.0860
 5613W        W 5613   8.452   8.893   2.672  0.0743 -0.2408 -0.0034
 5614W        W 5614   5.866   4.788   8.726  0.3251  0.0701  0.0714
 5615W        W 5615   7.798   8.971   7.195 -0.1705  0.0121 -0.1754
 5616W        W 5616   9.385   8.934   4.568 -0.1614 -0.1429  0.1518
 5617W        W 5617   2.214   3.203   0.237 -0.0384  0.0780 -0.0785
 5618W        W 5618   9.627   3.429   9.736  0.3876 -0.1342 -0.0922
 5619W        W 5619   0.322   5.253   4.734 -0.2249  0.0205  0.3365
 5620W        W 5620   9.082   9.718   3.337  0.1320 -0.2432 -0.0124
 5621W        W 5621   2.458   9.748   0.010  0.0841 -0.1470  0.0265
 5622W        W 5622   5.391   3.013   8.563 -0.1818  0.0731 -0.0028
 5623W        W 5623   3.082   1.256   2.415 -0.0533 -0.1242  0.1586
 5624W        W 5624   5.611   3.940   9.845 -0.3181  0.1019 -0.0981
 5625W        W 5625   3.560   1.916   1.570  0.0361  0.0519 -0.1626
 5626W        W 5626   1.097   5.020   4.946  0.2288  0.1307 -0.0206
 5627W        W 5627   6.012   9.931   8.119 -0.0896  0.1336 -0.0669
 5628W        W 5628   0.125   7.803   9.799 -0.0593  0.1346  0.1167
 5629W        W 5629   4.608   5.499   8.938  0.1115  0.0429  0.0067
 5630W        W 5630   2.735   6.470   9.253 -0.0684 -0.1762  0.2232
 5631W        W 5631   9.667   8.953   9.419  0.0044 -0.1886 -0.1068
 5632W        W 5632   9.227   7.558   8.548  0.0083 -0.1703  0.1221
 5633W        W 5633   1.058   4.346   1.097  0.0197 -0.0432  0.0539
 5634W        W 5634   8.519   4.256   0.759  0.3043 -0.1450 -0.0185
 5635W        W 5635   7.626   0.069   2.102  0.5045 -0.2537 -0.3616
 5636W        W 5636   4.000   2.654   8.933  0.1079 -0.2117 -0.0776
 5637W        W 5637   5.089   7.289   7.092 -0.2995  0.0500 -0.0706
 5638W        W 5638   7.841   8.396   2.711  0.1733 -0.1008  0.1462
 5639W        W 5639   6.720   1.254   2.418 -0.2835 -0.0046  0.0709
 5640W        W 5640   1.048   5.773   9.288  0.2376 -0.0847 -0.0705
 5641W        W 5641   4.577   9.524   2.585 -0.0713 -0.4158  0.1065
 5642W        W 5642   9.540   2.282   3.888  0.1526  0.0310  0.1212
 5643W        W 5643   9.038   2.386   3.779 -0.2301  0.0697  0.0634
 5644W        W 5644   2.315   4.259   0.228 -0.0351  0.2987  0.0344
 5645W        W 5645   1.393   7.760   5.915 -0.2556 -0.1090  0.0593
 5646W        W 5646   2.959   6.951   9.669 -0.0157 -0.0489  0.1050
 5647W        W 5647   1.438   6.960   9.893 -0.2292  0.0029  0.1473
 5648W        W 5648   2.366   1.337   1.002 -0.0857 -0.0614 -0.2598
 5649W        W 5649   8.223   0.787   6.084  0.1010  0.4076 -0.2250
 5650W        W 5650   0.584   0.540   0.743 -0.1837 -0.0705  0.1589
 5651W        W 5651   0.757   6.013   8.596 -0.2423  0.0696  0.1525
 5652W        W 5652   6.197   4.652   9.869 -0.1953  0.0886  0.3399
 5653W        W 5653   4.827   0.270   1.194 -0.2285  0.0093  0.1198
 5654W        W 5654   4.138   1.120   0.310 -0.0969  0.0273  0.3296
 5655W        W 5655   7.329   6.767   8.898 -0.0359  0.1468  0.0291
 5656W        W 5656   1.990   3.112   5.768 -0.3004  0.0122  0.1881
 5657W        W 5657   6.178   9.260   2.112  0.0141  0.1814 -0.1060
 5658W        W 5658   9.719   4.102   9.255  0.1429  0.2937  0.0405
 5659W        W 5659   9.697   4.803   6.375  0.0114  0.1270  0.0913
 5660W        W 5660   9.809   2.256   8.593  0.1655  0.0089 -0.1189
 5661W        W 5661   5.995   2.977   2.593  0.1628 -0.0461 -0.1168
 5662W        W 5662   8.182   2.884   3.236 -0.0595 -0.0121 -0.0026
 5663W        W 5663   9.650   5.020   7.274 -0.1128 -0.0719  0.2598
 5664W        W 5664   9.259   8.637   9.593 -0.1065  0.2312  0.0437
 5665W        W 5665   6.208   4.189   1.206 -0.2673  0.1559 -0.4721
 5666W        W 5666   0.853   8.267   8.499 -0.1760  0.0461 -0.0082
 5667W        W 5667   2.026   7.094   4.867 -0.0515  0.1541 -0.0627
 5668W        W 5668   7.430   6.795   0.348 -0.1654 -0.0985 -0.0453
 5669W        W 5669   0.321   2.577   7.171  0.2128  0.1326 -0.4439
 5670W        W 5670   9.258   4.287   9.299 -0.2167  0.0451 -0.0850
 5671W        W 5671   2.653   1.101   9.846 -0.1398  0.3365 -0.0960
 5672W        W 5672   1.133   2.641   3.851 -0.2685 -0.2441  0.0725
 5673W        W 5673   4.663   3.320   5.249  0.1238  0.1278  0.2226
 5674W        W 5674   5.604   2.680   3.417  0.0452 -0.2775 -0.1293
 5675W        W 5675   3.753  10.293   4.065  0.1704  0.1604  0.1113
 5676W        W 5676   8.332   3.758   4.789 -0.0619  0.0625 -0.1825
 5677W        W 5677   7.952   5.806   8.208  0.1356  0.2057  0.2524
 5678W        W 5678   0.265   0.376   8.720 -0.0752 -0.0774 -0.0686
 5679W        W 5679   2.698   9.273   7.735 -0.1617 -0.3985  0.0365
 5680W        W 5680   1.559   2.129   3.598  0.1138 -0.0697  0.0612
 5681W        W 5681   3.684   6.938   5.404  0.0258  0.0503 -0.0189
 5682W        W 5682  10.307   0.704   5.868  0.0261 -0.2947 -0.3650
 5683W        W 5683   6.853   3.480   4.772  0.3018  0.1230  0.3259
 5684W        W 5684   3.892   5.304   8.461  0.1056 -0.0208 -0.0697
 5685W        W 5685   3.581   3.944   6.033 -0.1427  0.1560 -0.0678
 5686W        W 5686   9.583   6.413   2.788 -0.1288 -0.3209  0.0045
 5687W        W 5687   5.402  10.195   7.497  0.1077 -0.2570 -0.1758
 5688W        W 5688   5.147   6.682   8.442 -0.1119 -0.0489 -0.0167
 5689W        W 5689   1.510   9.954   3.569 -0.2450  0.1617  0.0737
 5690W        W 5690   8.196   5.397   7.448  0.0830 -0.1059 -0.0466
 5691W        W 5691   1.535   1.951   1.527 -0.4493 -0.5102  0.2492
 5692W        W 5692   4.035   7.511   8.670  0.2610  0.0594 -0.5638
 5693W        W 5693   9.791   6.634   5.687  0.2469  0.6037 -0.2704
 5694W        W 5694   9.637   5.424   4.027 -0.1646 -0.2194 -0.4569
 5695W        W 5695   3.373   2.932   2.636 -0.0741  0.0483  0.0831
 5696W        W 5696   5.452   2.385   4.478 -0.0130 -0.0653  0.0246
 5697W        W 5697   1.389   3.838   9.688  0.2369 -0.0815  0.0248
 5698W        W 5698   9.970   5.589   3.515 -0.0615  0.0101  0.0574
 5699W        W 5699   1.347   2.162   9.155  0.2191  0.0167  0.0143
 5700W        W 5700   6.321   2.030   1.859  0.1201  0.1191 -0.0182
 5701W        W 5701   7.251   3.521   2.740  0.2365 -0.3021 -0.2203
 5702W        W 5702   0.736   4.450   6.268  0.1473 -0.1816  0.2025
 5703W        W 5703   4.844   8.225   9.280  0.1187 -0.3603 -0.1169
 5704W        W 5704   4.625   7.896   3.468  0.2986  0.0589  0.2605
 5705W        W 5705   5.956   9.177   0.069 -0.1152 -0.0062  0.1352
 5706W        W 5706   4.954  10.071   6.598  0.0053 -0.0454 -0.0662
 5707W        W 5707   6.223   7.801   1.781 -0.0662  0.1489  0.0214
 5708W        W 5708   6.861   4.513   8.079 -0.4906 -0.0373  0.1984
 5709W        W 5709   5.888  10.040   0.320 -0.2937  0.0999 -0.3424
 5710W        W 5710   1.949   1.331   9.284 -0.0898 -0.2461  0.0021
 5711W        W 5711   5.336   9.606   4.736 -0.1455 -0.1452  0.0713
 5712W        W 5712   8.422   9.548   6.187  0.0360 -0.0648 -0.2100
 5713W        W 5713   5.720   5.426   6.588  0.0263  0.1046 -0.0985
 5714W        W 5714   4.251   3.040   1.422  0.3040 -0.4158 -0.4337
 5715W        W 5715   3.001  10.029   4.577 -0.0496 -0.0914  0.2090
 5716W        W 5716   0.453  10.319   7.388 -0.1293  0.0835  0.4358
 5717W        W 5717   2.103   5.426   6.396  0.0835  0.1581 -0.2143
 5718W        W 5718   5.247   4.370   2.377 -0.0434  0.3699 -0.1621
 5719W        W 5719   3.813   0.321   7.439  0.0960  0.4800  0.0916
 5720W        W 5720   8.117   5.734   5.068  0.0643 -0.0663 -0.2568
 5721W        W 5721   3.972   8.983   8.842  0.1256  0.0919  0.2049
 5722W        W 5722   3.107   5.725   0.785 -0.1506  0.0913  0.0394
 5723W        W 5723   4.621   1.216   7.364 -0.4746  0.0277 -0.1937
 5724W        W 5724   2.970   7.606   4.812  0.1321  0.0678 -0.1592
 5725W        W 5725   5.469   6.007   8.891  0.1272  0.0802 -0.1034
 5726W        W 5726   0.124   4.297   2.615  0.0370  0.0039  0.0182
 5727W        W 5727   7.216   8.838   5.238 -0.1977 -0.0987  0.1291
 5728W        W 5728   8.060   7.834   4.413  0.0170  0.0185  0.0328
 5729W        W 5729   3.124   2.631   8.309  0.4560 -0.2944  0.3487
 5730W        W 5730   6.789   2.907   5.989  0.0078 -0.1715 -0.0464
 5731W        W 5731   7.660   0.216   8.221 -0.2116  0.0320  0.1716
 5732W        W 5732   2.137   8.468   4.866 -0.2474 -0.0734 -0.0824
 5733W        W 5733   3.946   0.738   5.607  0.3726  0.0916 -0.2613
 5734W        W 5734   0.094   8.154   8.026  0.1589  0.0240 -0.0333
 5735W        W 5735   3.415   2.047   9.011  0.0090  0.2209  0.1313
 5736W        W 5736   0.106   2.152   0.498 -0.2695  0.0859  0.1670
 5737W        W 5737   6.472   6.845   6.618 -0.4010  0.0278  0.2011
 5738W        W 5738   9.751   6.114   4.772 -0.2812 -0.0533 -0.0623
 5739W        W 5739   0.927   1.791   4.315 -0.0277  0.1300  0.0682
 5740W        W 5740   0.024   8.884   4.689 -0.0117  0.0630 -0.1011
 5741W        W 5741   4.104   1.317   1.370 -0.0229  0.0538  0.1202
 5742W        W 5742   1.328   1.804   7.692 -0.1206 -0.0549 -0.1932
 5743W        W 5743   3.861   7.909  10.040  0.0400 -0.3924  0.1264
 5744W        W 5744   8.146   1.039   6.965 -0.3247 -0.0169  0.2354
 5745W        W 5745   4.792   7.690   0.707 -0.3720  0.0609 -0.2678
 5746W        W 5746   5.953   2.674   8.048  0.0137 -0.0136  0.0412
 5747W        W 5747   0.931   2.918   6.852  0.0824 -0.0457  0.1329
 5748W        W 5748   8.695   0.675   4.049 -0.3424 -0.0205 -0.1102
 5749W        W 5749   9.946   9.580   5.661 -0.0785 -0.1375  0.1636
 5750W        W 5750   4.625   1.878   0.678  0.1040  0.0342  0.0181
 5751W        W 5751   4.935   8.706  10.316  0.1568  0.0298 -0.0949
 5752W        W 5752   0.569   3.602   7.605 -0.1237  0.3868  0.0852
 5753W        W 5753   7.644   8.898   3.472  0.1760 -0.2242  0.0865
 5754W        W 5754   1.324   9.402   9.308  0.3803  0.3289  0.1701
 5755W        W 5755   1.004   2.508   4.384 -0.2331  0.1783 -0.2732
 5756W        W 5756   8.410   3.062   8.418 -0.3028 -0.1459  0.4643
 5757W        W 5757   1.781   0.696   3.147  0.0148  0.2525  0.0025
 5758W        W 5758   3.468   2.172   6.450 -0.2133  0.0632 -0.3613
 5759W        W 5759   4.808   4.230   9.521  0.1891 -0.1340 -0.1146
 5760W        W 5760   6.599   2.808   3.348  0.1817  0.1756  0.0388
 5761W        W 5761   0.141   5.911   6.619  0.1668 -0.0833 -0.0229
 5762W        W 5762   8.600   7.815   4.727 -0.3076  0.2445 -0.0292
 5763W        W 5763   2.370   4.448   8.183  0.1605 -0.1229 -0.1841
 5764W        W 5764   4.055   8.420   0.661 -0.3153  0.1023  0.0893
 5765W        W 5765   1.531   2.451   7.327 -0.1130  0.0926  0.0409
 5766W        W 5766   2.519   5.055   9.146 -0.0168  0.1645  0.0494
 5767W        W 5767   0.735   9.686   2.279 -0.0170 -0.2006 -0.2605
 5768W        W 5768   8.834   8.494   2.835  0.0035  0.2038 -0.1573
 5769W        W 5769   7.685   7.865   5.885  0.0641  0.2259  0.0353
 5770W        W 5770   3.353   2.935   3.486 -0.1099  0.0513  0.3133
 5771W        W 5771   8.358   7.164   0.433 -0.1125 -0.2233  0.0304
 5772W        W 5772   6.357   4.368   9.378  0.0214 -0.0178  0.3121
 5773W        W 5773   8.376   5.360   6.010  0.0273  0.0333 -0.0797
 5774W        W 5774   6.572   5.738   3.456 -0.0760 -0.2022  0.0735
 5775W        W 5775   6.762   3.312   6.421 -0.2207  0.2323 -0.1415
 5776W        W 5776   9.323   1.821   7.413 -0.0965 -0.0471 -0.0349
 5777W        W 5777   0.274   9.850   6.221 -0.0908 -0.1544 -0.0045
 5778W        W 5778   4.514   6.181  10.052 -0.2566 -0.1072 -0.0658
 5779W        W 5779   9.231   1.388   7.047  0.0601 -0.2195  0.0710
 5780W        W 5780   3.458   8.048   8.187 -0.0746  0.0049  0.1170
 5781W        W 5781   3.997   6.940   2.389  0.1362  0.0508 -0.3541
 5782W        W 5782   6.736   6.259   7.828 -0.2697  0.0163  0.1302
 5783W        W 5783  10.198   5.344   6.794  0.0755 -0.1092  0.0624
 5784W        W 5784   7.429   8.152   7.480 -0.1952  0.0969  0.3687
 5785W        W 5785   5.072   1.096   0.690  0.1162 -0.0523 -0.3263
 5786W        W 5786   6.531   3.605   8.328  0.1651  0.1724 -0.1431
 5787W        W 5787   2.345   9.761   5.430  0.1058 -0.1310  0.0918
 5788W        W 5788   6.925   4.166   9.420  0.0491 -0.0390 -0.0006
 5789W        W 5789   2.869   1.378   7.646 -0.0397 -0.1680  0.0232
 5790W        W 5790   2.387   0.935   0.699 -0.0107 -0.1589  0.1359
 5791W        W 5791   2.409   2.065   3.897  0.1261 -0.0039 -0.1973
 5792W        W 5792   0.409   4.653   3.048 -0.4581 -0.0082 -0.1361
 5793W        W 5793   3.771   9.911   3.719  0.1215  0.1351  0.1228
 5794W        W 5794   9.869   8.968   7.929  0.1889 -0.2038 -0.0297
 5795W        W 5795  10.266   7.324   9.816 -0.1944  0.3262  0.0121
 5796W        W 5796   9.921   2.521  10.151 -0.0763 -0.0593 -0.1816
 5797W        W 5797  10.189   8.193   9.552 -0.0259 -0.0020 -0.0274
 5798W        W 5798   7.664   9.025   6.483  0.0988 -0.0712  0.0416
 5799W        W 5799   7.796   7.429   4.759 -0.0757  0.0147  0.3059
 5800W        W 5800   0.190   0.678   7.800  0.0124 -0.1020  0.2913
 5801W        W 5801   6.983   3.097   2.292 -0.0714  0.3253  0.1266
 5802W        W 5802   7.978   3.516   0.972 -0.4489 -0.3096 -0.3639
 5803W        W 5803   9.504   9.937   5.285 -0.1606 -0.0804  0.1897
 5804W        W 5804   8.989   5.234   8.250  0.0037  0.0861  0.0177
 5805W        W 5805   9.401   6.675   6.103 -0.1315  0.1572 -0.0236
 5806W        W 5806   2.257   0.413   4.441  0.0930 -0.1501 -0.3573
 5807W        W 5807   0.871   9.116   4.958 -0.0022 -0.0867  0.0733
 5808W        W 5808   5.319   9.130   2.162  0.0703 -0.0934  0.2638
 5809W        W 5809   9.864   6.905   0.322  0.0131  0.2410 -0.2289
 5810W        W 5810   8.081   3.307   4.807  0.0736 -0.3944  0.1089
 5811W        W 5811   6.229   0.331   4.911 -0.1764 -0.0761 -0.0280
 5812W        W 5812   4.294   6.358   9.276  0.0851  0.1721  0.1180
 5813W        W 5813   3.808   3.108   9.140  0.3084  0.0937  0.1161
 5814W        W 5814   2.428   5.936   4.833 -0.1051  0.1190 -0.2395
 5815W        W 5815   9.534   1.637   1.398  0.0274 -0.0196 -0.0179
 5816W        W 5816   6.119   8.307   7.788  0.2827  0.1389  0.0097
 5817W        W 5817   5.579   6.977   3.990  0.0883 -0.2847  0.1600
 5818W        W 5818   8.064   8.909   9.464 -0.1864  0.2114 -0.0061
 5819W        W 5819   3.980   0.451   1.534 -0.1068  0.1705 -0.2790
 5820W        W 5820   2.163   4.027   1.952 -0.3541  0.1994  0.0354
 5821W        W 5821  10.112   6.818   9.842 -0.3077  0.1631  0.4375
 5822W        W 5822   4.522   4.910   6.203  0.0102  0.0450  0.3933
 5823W        W 5823   3.836   4.715   2.312  0.0489  0.0866 -0.1534
 5824W        W 5824   2.846  10.184   9.306  0.0669 -0.1688 -0.0323
 5825W        W 5825   7.106   8.903   4.234  0.2645  0.1946  0.1742
 5826W        W 5826   9.707   0.052   0.178  0.2016  0.1588 -0.0490
 5827W        W 5827   3.272   8.770   6.707  0.1304  0.1823  0.1933
 5828W        W 5828   6.485   3.660   5.074  0.0915  0.0858 -0.0592
 5829W        W 5829   5.572  10.229   5.896 -0.1087 -0.0879 -0.1747
 5830W        W 5830   9.629   2.328   2.572 -0.1338  0.0957  0.0764
 5831W        W 5831   0.199   3.300   3.716 -0.0727 -0.1225 -0.1614
 5832W        W 5832   6.531   1.960   0.806 -0.0540  0.1837 -0.2401
 5833W        W 5833   4.591   6.250   1.350 -0.2948 -0.1173  0.1346
 5834W        W 5834   5.594   9.201   9.993  0.0017  0.0913 -0.2339
 5835W        W 5835   2.615   4.569   9.169 -0.2448  0.3207 -0.0264
 5836W        W 5836   2.363   3.825   5.226 -0.0502  0.2286  0.0569
 5837W        W 5837   2.626   1.556   2.587  0.0628 -0.0253 -0.1426
 5838W        W 5838   8.049   3.273   7.512  0.1107  0.1987 -0.0581
 5839W        W 5839   9.796   0.708   1.912  0.2041 -0.0493 -0.1252
 5840W        W 5840   7.587   8.542   5.338  0.0371 -0.0576  0.2031
 5841W        W 5841   1.937   7.906   7.358  0.1302  0.2623 -0.4140
 5842W        W 5842   5.215   5.530   6.278  0.1552 -0.1375  0.0869
 5843W        W 5843   8.406   1.144   6.564  0.1035  0.4258 -0.3297
 5844W        W 5844   8.560   6.680   2.902  0.1432  0.1964 -0.2949
 5845W        W 5845   9.767   4.659   0.040 -0.2157  0.1752  0.0253
 5846W        W 5846   0.990   7.453   5.960 -0.0132  0.1261  0.0625
 5847W        W 5847   1.573   4.781   8.444  0.1191  0.0523 -0.4033
 5848W        W 5848   8.411   6.444   8.779  0.1377 -0.0967 -0.1464
 5849W        W 5849   0.743   6.755   3.636 -0.0135 -0.0503 -0.0611
 5850W        W 5850   3.503   8.019   7.690 -0.1227  0.1760  0.1910
 5851W        W 5851   0.202   4.654   3.619  0.0290  0.2353  0.2559
 5852W        W 5852   5.244   5.462   3.315  0.2185 -0.0425 -0.0304
 5853W        W 5853   8.007   8.537   2.294 -0.2139 -0.0323  0.3592
 5854W        W 5854   4.738   7.255   3.660  0.1639  0.1006  0.0368
 5855W        W 5855   3.758   9.279   0.392 -0.2834  0.1045 -0.0909
 5856W        W 5856   1.000   6.385   3.364 -0.4010 -0.0737  0.1046
 5857W        W 5857   1.423   6.686   7.563 -0.0100  0.0057  0.0132
 5858W        W 5858   2.644   1.271   8.664  0.0737 -0.1647 -0.0588
 5859W        W 5859   4.443   8.724   0.954 -0.1045 -0.1422  0.1502
 5860W        W 5860   1.964   3.278   9.108  0.0070 -0.2308 -0.3022
 5861W        W 5861   6.373   2.934   2.267  0.0457 -0.0023 -0.0492
 5862W        W 5862  10.307   8.184  10.123  0.1371 -0.0968 -0.0281
 5863W        W 5863   7.591   6.423   7.461 -0.0434 -0.0604  0.4271
 5864W        W 5864   2.880   5.228   8.507  0.2610 -0.1668  0.0294
 5865W        W 5865  10.216   5.312   4.429 -0.0683  0.5840  0.0911
 5866W        W 5866   9.977   4.804   5.897  0.0420  0.1693 -0.3386
 5867W        W 5867   8.726   6.944   6.753  0.2024 -0.0445  0.0148
 5868W        W 5868   5.339   0.354   5.431  0.1660 -0.2024 -0.1402
 5869W        W 5869   8.111   4.125   5.186  0.0715 -0.1743  0.0376
 5870W        W 5870   6.665   4.268   7.724 -0.1237  0.0371  0.1517
 5871W        W 5871   2.379  10.136   5.763 -0.1230 -0.0333 -0.2309
 5872W        W 5872   2.568   6.046   9.424  0.1561  0.0222 -0.0599
 5873W        W 5873   7.940   9.348   9.724 -0.1328  0.4367  0.2503
 5874W        W 5874   2.758   8.454   5.065 -0.3295  0.0798 -0.3262
 5875W        W 5875   4.857   0.115   4.093  0.1949 -0.1113 -0.2341
 5876W        W 5876   0.065   7.750   6.157 -0.0444  0.2989 -0.1552
 5877W        W 5877   8.901   2.432   2.566  0.2062  0.3346 -0.3007
 5878W        W 5878   8.444   1.756   9.339  0.1725 -0.1751  0.0325
 5879W        W 5879   5.449   6.565   6.228  0.0955  0.0867  0.4979
 5880W        W 5880   9.379   0.575   4.741 -0.1383  0.1281 -0.1666
 5881W        W 5881   5.340   5.549   5.819 -0.0352  0.1580  0.2020
 5882W        W 5882   5.310   6.499   5.747 -0.0531  0.0494  0.3258
 5883W        W 5883   0.706   9.058  10.141 -0.0565 -0.4494 -0.1146
 5884W        W 5884   3.501  10.023   1.526 -0.0321  0.0605 -0.0988
 5885W        W 5885   4.710   9.498   4.352  0.2733  0.0543  0.0292
 5886W        W 5886   9.715   2.172   1.921  0.0836  0.0304 -0.0172
 5887W        W 5887   3.434   1.285   4.006  0.3066  0.1922  0.1031
 5888W        W 5888   9.985   4.862   9.252  0.0151 -0.4147 -0.1913
 5889W        W 5889   5.849   7.972   2.592 -0.3293 -0.0280 -0.0473
 5890W        W 5890   6.148   0.433   0.989 -0.0391 -0.0866 -0.0118
 5891W        W 5891   5.705   4.414   2.654 -0.0338  0.2658  0.0759
 5892W        W 5892   2.871   1.754   8.343 -0.0682 -0.0403  0.0546
 5893W        W 5893   8.652   9.911   4.623  0.0635 -0.0043  0.0218
 5894W        W 5894   5.978   4.910   7.817  0.1186  0.2256 -0.4938
 5895W        W 5895   7.300   1.903   6.635 -0.4583 -0.2256 -0.0206
 5896W        W 5896  10.156   2.585   0.547 -0.1386 -0.3055  0.0088
 5897W        W 5897   5.844   2.596   6.047  0.0411  0.1670  0.3526
 5898W        W 5898   9.377   9.570   5.658  0.0019  0.1436  0.0789
 5899W        W 5899   1.018   4.665   2.149 -0.0187  0.0793 -0.0086
 5900W        W 5900   2.196   7.863   9.294  0.0098  0.0222 -0.2341
 5901W        W 5901   8.721   7.723   4.178  0.0340  0.2818 -0.0393
 5902W        W 5902   0.933   3.134   7.645  0.0552  0.0584  0.0645
 5903W        W 5903   6.978   4.977   8.805 -0.2142 -0.2870 -0.0105
 5904W        W 5904   5.594   6.473   8.676 -0.0105 -0.0455 -0.1049
 5905W        W 5905   2.412   2.697   9.242 -0.2061  0.2333  0.0182
 5906W        W 5906   0.337   8.345   4.668 -0.1943 -0.1023 -0.1513
 5907W        W 5907   2.053   1.221   1.482  0.1878  0.1316  0.0837
 5908W        W 5908   6.532   6.489   8.630  0.0898  0.0577  0.2381
 5909W        W 5909   6.197   0.765   5.112  0.2053 -0.0150  0.1176
 5910W        W 5910   1.136   2.401   1.593 -0.0968  0.3466  0.0130
 5911W        W 5911   7.263   9.982   5.723 -0.3101  0.0057  0.0271
 5912W        W 5912   7.403   1.938   2.376  0.0368  0.2543 -0.2132
 5913W        W 5913  10.255   0.056   4.386  0.0002 -0.1165  0.0788
 5914W        W 5914   1.754   4.340   8.343  0.0599 -0.0292  0.0094
 5915W        W 5915   2.160   4.204   4.465 -0.0436 -0.0003  0.1333
 5916W        W 5916   7.386   6.509   1.897  0.2081  0.0384  0.0885
 5917W        W 5917   3.691   2.345   2.828  0.2609 -0.4286 -0.1087
 5918W        W 5918   3.982   3.539   6.889 -0.0964 -0.3056  0.2155
 5919W        W 5919   5.212   8.660   2.318 -0.1349  0.1847  0.0224
 5920W        W 5920   5.870   0.507   0.377  0.0909 -0.0425  0.1755
 5921W        W 5921   0.311   1.712   3.019  0.1836 -0.3039 -0.2537
 5922W        W 5922   1.433   0.105   3.895  0.2703 -0.1456 -0.0318
 5923W        W 5923   6.584   1.091   0.932  0.0268  0.2270  0.0400
 5924W        W 5924   1.510   3.429   0.125  0.0851  0.0760 -0.0724
 5925W        W 5925   8.364   6.562   5.193  0.3408  0.2267  0.2327
 5926W        W 5926   1.966   9.968   7.504  0.0267  0.0052 -0.0566
 5927W        W 5927   8.360   7.560   3.153 -0.1868  0.0445  0.2640
 5928W        W 5928   4.336   7.072   3.304  0.1374  0.0186  0.0785
 5929W        W 5929   8.806   1.408   1.068  0.0542 -0.0287  0.0870
 5930W        W 5930   4.570   1.552   1.503 -0.2199  0.1143  0.0809
 5931W        W 5931   3.804   3.239   3.347 -0.0186 -0.0275  0.2400
 5932W        W 5932   2.807   1.566   5.321  0.0008  0.0877 -0.2362
 5933W        W 5933   1.644   3.558   8.805 -0.0289  0.2770 -0.0929
 5934W        W 5934   1.936   5.961   8.719 -0.0905  0.0762 -0.0382
 5935W        W 5935   1.219   4.423   3.369  0.2641 -0.1326  0.2561
 5936W        W 5936   5.061   0.910   4.210  0.1741  0.0039  0.1471
 5937W        W 5937   0.778   2.582   3.264  0.2393  0.2684  0.2620
 5938W        W 5938   8.188   3.773   3.005 -0.0829 -0.3726  0.1050
 5939W        W 5939   6.597   9.790   9.977  0.3355 -0.4074  0.1296
 5940W        W 5940   1.137   1.860   5.244 -0.1241 -0.0908 -0.3006
 5941W        W 5941   5.708   9.257   1.285 -0.1536  0.1206 -0.1975
 5942W        W 5942   7.041   1.379   7.931 -0.2152  0.1338  0.1738
 5943W        W 5943  10.114   8.249   5.335 -0.1173 -0.1348 -0.1090
 5944W        W 5944   4.055   0.121   4.570 -0.4071  0.1684  0.3373
 5945W        W 5945   7.637   9.132   2.950 -0.2304 -0.1577 -0.2764
 5946W        W 5946   8.476   9.192   5.658  0.0803 -0.0119  0.2578
 5947W        W 5947   2.380   2.348   1.447 -0.0274  0.4291  0.1006
 5948W        W 5948   8.453   3.256   3.011 -0.0048  0.2032 -0.1339
 5949W        W 5949   4.669   6.385   7.353  0.1189  0.2376 -0.0003
 5950W        W 5950   9.841   4.512   4.131 -0.0218 -0.1542 -0.2779
 5951W        W 5951   6.609   5.051   0.338  0.3155  0.3976 -0.1214
 5952W        W 5952   0.705   5.335   5.198  0.0371 -0.1274 -0.4345
 5953W        W 5953   5.376   6.457   0.888 -0.4996  0.2455  0.0693
 5954W        W 5954   0.157   2.286   9.902  0.1620 -0.3144 -0.1199
 5955W        W 5955  10.316   2.300   8.711  0.1132  0.0433  0.3843
 5956W        W 5956   8.610   0.243   6.644  0.2362 -0.0066  0.6342
 5957W        W 5957   5.319   5.815   9.318  0.0857 -0.1525 -0.2731
 5958W        W 5958   1.464   0.335   2.447  0.2357  0.0758 -0.3166
 5959W        W 5959   2.634   7.048   2.720 -0.0082 -0.0104 -0.0194
 5960W        W 5960   0.745   0.855   6.205  0.1722  0.1307 -0.1392
 5961W        W 5961   2.882   8.967   2.348 -0.0443  0.3564  0.2006
 5962W        W 5962   5.033   9.587   0.824 -0.1101 -0.1576 -0.2714
 5963W        W 5963   9.615   7.836   2.818 -0.2417 -0.2397 -0.1362
 5964W        W 5964   3.055   0.849   3.932 -0.1184 -0.1430 -0.0902
 5965W        W 5965   7.070   5.388   5.670  0.0846 -0.1973  0.2548
 5966W        W 5966   1.425   0.058   1.987 -0.0900  0.0333 -0.0398
 5967W        W 5967   6.426   5.292   3.628  0.0783 -0.0055 -0.0135
 5968W        W 5968   8.163   4.231   7.774  0.0039 -0.2264 -0.2601
 5969W        W 5969   0.190   9.811   2.311 -0.0941  0.3612 -0.3723
 5970W        W 5970   3.080   1.386   7.191  0.1668 -0.0149 -0.0657
 5971W        W 5971   7.954   7.475   3.757  0.0295  0.0052 -0.4479
 5972W        W 5972   1.202   5.245   5.506  0.1165  0.2472  0.1886
 5973W        W 5973   3.099   5.740   4.233  0.0043 -0.3630 -0.0698
 5974W        W 5974   1.066   9.870   0.718  0.1835  0.0938  0.0391
 5975W        W 5975   2.016   0.450   9.543  0.2017 -0.0918  0.1392
 5976W        W 5976  10.189   9.529   0.701  0.0748  0.1553  0.0129
 5977W        W 5977   1.967   0.945   6.235  0.2082  0.0956 -0.2103
 5978W        W 5978   1.302   0.643   9.301  0.0874 -0.1984  0.1382
 5979W        W 5979   3.810   1.248   7.776  0.1530  0.0097  0.1637
 5980W        W 5980   2.688   9.443   8.595  0.4607 -0.0382  0.0686
 5981W        W 5981   8.756   1.645   0.672 -0.1914  0.1366 -0.2175
 5982W        W 5982   7.074   3.556   8.277  0.0214  0.3689 -0.1221
 5983W        W 5983   8.408   8.575   5.403  0.2857 -0.1035  0.0575
 5984W        W 5984   5.712   5.037   4.090 -0.0146 -0.2901 -0.4120
 5985W        W 5985   1.470   0.611   3.692 -0.0544  0.1685 -0.1353
 5986W        W 5986   6.469   6.184   8.223  0.1270  0.0188  0.1743
 5987W        W 5987   6.092  10.239   1.135 -0.1134 -0.1967 -0.0054
 5988W        W 5988   9.167   4.757   2.486 -0.0837  0.2628 -0.1131
 5989W        W 5989   8.899   3.470   0.678 -0.0880 -0.3146  0.2364
 5990W        W 5990   6.504   1.350   9.134 -0.1997  0.4233 -0.0416
 5991W        W 5991   2.573   5.055   7.262 -0.1429 -0.0235  0.1458
 5992W        W 5992   6.685   8.900   7.340  0.3213 -0.0149  0.1885
 5993W        W 5993   2.904   9.091   4.447  0.1407  0.0887 -0.0561
 5994W        W 5994   6.008   1.069   3.176  0.0769 -0.0755  0.0082
 5995W        W 5995   0.237   1.302  10.013  0.0494  0.0463 -0.1617
 5996W        W 5996   1.241   9.603   1.612  0.0795 -0.1273  0.1987
 5997W        W 5997   8.095   4.197   0.537 -0.1841 -0.1636 -0.1435
 5998W        W 5998   6.969   1.978   1.098 -0.1831 -0.0182 -0.1024
 5999W        W 5999   2.122   1.100  10.005  0.3192  0.0029  0.0149
 6000W        W 6000   0.433   5.970   6.985 -0.0013 -0.2122  0.0124
 6001W        W 6001   6.236   7.738   9.713 -0.0657 -0.1987 -0.2007
 6002W        W 6002   1.915   2.372   1.407  0.0725 -0.2144 -0.2898
 6003W        W 6003   8.922   5.231   9.006  0.2933  0.2478  0.0841
 6004W        W 6004   3.853   2.817   6.049 -0.1161 -0.0284  0.1942
 6005W        W 6005   5.947   7.125   4.341  0.0162 -0.0407  0.1541
 6006W        W 6006   7.723   0.136   8.895  0.1796 -0.0419 -0.1655
 6007W        W 6007   9.889   3.481   5.792  0.0710 -0.0111 -0.1091
 6008W        W 6008   9.567   9.935   6.232 -0.2483 -0.1806 -0.2064
 6009W        W 6009   7.323   4.672  10.021  0.0087 -0.3147 -0.2774
 6010W        W 6010   5.102   6.459   4.971  0.2290 -0.1045 -0.3216
 6011W        W 6011   5.102   9.195   1.698  0.0981  0.1291  0.0448
 6012W        W 6012   5.867   4.019   0.354 -0.0608 -0.0584  0.1556
 6013W        W 6013   7.355   6.152   5.059  0.0086  0.1480  0.3907
 6014W        W 6014   1.992   6.724   7.381 -0.3822 -0.0013 -0.0860
 6015W        W 6015   2.723   3.698   7.740 -0.2222  0.1646  0.2033
 6016W        W 6016   0.731   3.031   1.330 -0.2754  0.1160 -0.0450
 6017W        W 6017   8.338   3.473   2.553  0.0135 -0.0914  0.3456
 6018W        W 6018   5.052   8.912   3.159  0.1687 -0.1100 -0.0040
 6019W        W 6019   5.903   8.587   0.930 -0.2339  0.0326  0.1881
 6020W        W 6020   7.221   1.851   2.922 -0.1962  0.2039 -0.1442
 6021W        W 6021   4.473   0.890   5.418  0.1593  0.2150 -0.2830
 6022W        W 6022   2.801   9.845   7.769 -0.1470  0.1329  0.1817
 6023W        W 6023   9.645   2.049   1.057  0.0287  0.0765  0.0866
 6024W        W 6024   2.322   9.442   9.059  0.0541  0.0836  0.1759
 6025W        W 6025   3.584   9.674   8.676  0.1347  0.1084  0.4699
 6026W        W 6026   1.764   2.013   5.519  0.0216 -0.0277 -0.0135
 6027W        W 6027   6.109   6.917   5.703 -0.2670  0.0123 -0.2441
 6028W        W 6028   4.493   7.095   2.713 -0.0729 -0.0499  0.1449
 6029W        W 6029   2.870   9.872   8.299 -0.1866 -0.2648 -0.0017
 6030W        W 6030   4.913   6.695   1.051 -0.3265  0.0492 -0.2399
 6031W        W 6031   5.972   0.186   3.547  0.0548  0.0631 -0.1732
 6032W        W 6032  10.204   1.599   1.226 -0.2702 -0.0242 -0.3779
 6033W        W 6033   4.906   1.563   0.004  0.1268 -0.0103 -0.1177
 6034W        W 6034   1.426   7.197   1.038  0.2139 -0.0942 -0.0465
 6035W        W 6035   0.463  10.041   9.993  0.1158 -0.1069  0.0790
 6036W        W 6036   3.783   2.263   3.766  0.2170 -0.3401 -0.0269
 6037W        W 6037  10.152   6.400   4.844  0.0267  0.0071  0.1831
 6038W        W 6038   6.779   9.578   1.446 -0.1528 -0.0786  0.2432
 6039W        W 6039   4.807   5.724   4.283 -0.1289  0.2573 -0.0502
 6040W        W 6040   5.799   6.670   3.565 -0.3056 -0.0816 -0.0094
 6041W        W 6041   8.446   7.436   8.017  0.3596 -0.1475 -0.1665
 6042W        W 6042   9.797   3.012   5.859  0.0750  0.2283 -0.3075
 6043W        W 6043   1.979   6.309   8.013 -0.0417  0.0855  0.1285
 6044W        W 6044   0.409   2.253   3.025  0.2507  0.0031  0.0430
 6045W        W 6045   7.568   6.471   3.122 -0.1787 -0.1138  0.0534
 6046W        W 6046   2.688   9.732   9.052 -0.3944  0.0914 -0.0205
 6047W        W 6047   6.612   1.764   5.387  0.0011 -0.3309  0.0658
 6048W        W 6048   6.904   9.555  10.323  0.2681 -0.1272 -0.1135
 6049W        W 6049   5.939   5.310   1.187 -0.1130 -0.1475  0.0288
 6050W        W 6050   2.652   0.441   4.097  0.1464  0.1737  0.0064
 6051W        W 6051   2.546   6.478   3.418  0.0906 -0.0685  0.3140
 6052W        W 6052   9.460   1.470   4.813  0.0661 -0.2123 -0.0324
 6053W        W 6053   9.738   6.449   5.188 -0.1009  0.4117  0.1070
 6054W        W 6054   8.043   5.170   0.072  0.0642  0.1103 -0.0999
 6055W        W 6055   2.719   2.249   5.633 -0.0424 -0.1965  0.1801
 6056W        W 6056   4.423   8.440   1.805 -0.1525  0.0460 -0.7029
 6057W        W 6057   7.191   0.147   8.026  0.4759 -0.0632 -0.0285
 6058W        W 6058   7.119   9.018   9.137 -0.2785  0.2117 -0.0649
 6059W        W 6059   7.277   1.059   7.399 -0.1759  0.1544 -0.2108
 6060W        W 6060   3.413   9.725   2.810  0.1893  0.0242  0.0501
 6061W        W 6061   5.599   8.212   7.747 -0.0687 -0.1356  0.0113
 6062W        W 6062   2.043   5.883   5.601  0.0190 -0.1512 -0.0797
 6063W        W 6063   1.750   1.600   0.876  0.1529  0.0802 -0.0770
 6064W        W 6064   1.265   0.222   0.048 -0.0779 -0.2233  0.1290
 6065W        W 6065   3.889   5.949   9.669 -0.1633 -0.1569 -0.2694
 6066W        W 6066  10.144   3.275   9.632  0.0491 -0.0939  0.1089
 6067W        W 6067   2.554   3.130   5.992 -0.2178  0.0763  0.0271
 6068W        W 6068   4.169   9.654   7.360 -0.2773  0.2079  0.0355
 6069W        W 6069   8.967   2.058   1.740 -0.0600 -0.0189  0.2210
 6070W        W 6070   2.654   6.574   6.842  0.0866  0.1183 -0.1119
 6071W        W 6071   3.986   1.761   7.745 -0.1671 -0.0756  0.0436
 6072W        W 6072   4.421   2.134   2.057  0.1056  0.1318 -0.0212
 6073W        W 6073   2.253  10.011   3.551 -0.1201 -0.0541  0.1495
 6074W        W 6074   7.683   4.961   0.512 -0.2168 -0.0753  0.1673
 6075W        W 6075   6.552   5.981   9.556 -0.0004  0.0646  0.3145
 6076W        W 6076   4.887   2.616   9.247  0.0673  0.2905  0.2638
 6077W        W 6077   3.834   7.368   9.555  0.3570  0.2263  0.0576
 6078W        W 6078   8.718   3.009   0.552  0.3850 -0.0770 -0.0263
 6079W        W 6079   7.676   0.578   8.672 -0.2030  0.4702  0.2881
 6080W        W 6080   7.438   7.505   2.824  0.3612 -0.0262 -0.2314
 6081W        W 6081   4.453   9.168   2.904 -0.1541  0.1696 -0.4371
 6082W        W 6082   6.170   4.759   4.750  0.2636 -0.0177  0.0669
 6083W        W 6083   4.179   9.025   0.514  0.1805  0.1530  0.1925
 6084W        W 6084   8.979   0.483   0.317 -0.1016  0.0340 -0.0276
 6085W        W 6085   7.984   6.123   1.153 -0.2757 -0.1721 -0.0194
 6086W        W 6086   4.409   0.371   4.906 -0.0907 -0.1032 -0.2660
 6087W        W 6087   3.526   4.890   1.391 -0.2118 -0.1806 -0.2646
 6088W        W 6088   9.626   5.085   1.460  0.0088  0.1040  0.0485
 6089W        W 6089   3.119   8.248   9.423 -0.0906  0.2424 -0.1511
 6090W        W 6090   1.685   3.038   5.325  0.1022  0.1283  0.2791
 6091W        W 6091  10.001   5.082  10.194 -0.3304 -0.4712 -0.0109
 6092W        W 6092   2.712   3.490   4.184 -0.0696 -0.0957  0.1582
 6093W        W 6093   3.587   0.691   5.250 -0.1361 -0.1908 -0.3089
 6094W        W 6094   5.859   1.471   1.009 -0.0145 -0.0123 -0.1991
 6095W        W 6095   6.654   7.218   1.731  0.1467 -0.0490 -0.0642
 6096W        W 6096   8.342   6.068   8.063 -0.0671 -0.1327 -0.3202
 6097W        W 6097   5.796   3.141   0.345  0.3019 -0.0550 -0.1054
 6098W        W 6098  10.317   8.700   0.156  0.2756 -0.0065 -0.0014
 6099W        W 6099   1.868   6.852   5.276  0.1642 -0.1404 -0.1996
 6100W        W 6100   3.357   0.492   0.001 -0.0909  0.1209  0.1203
 6101W        W 6101   6.609   8.491   2.683 -0.0798 -0.2242 -0.2900
 6102W        W 6102   7.549   2.220   4.021 -0.2233  0.4380 -0.0852
 6103W        W 6103   7.489   9.043   0.875  0.2600 -0.1390  0.0995
 6104W        W 6104   7.582   7.973   1.186 -0.1628  0.2851  0.0145
 6105W        W 6105   9.316   0.384   7.339  0.0145 -0.1578 -0.0137
 6106W        W 6106   1.540   4.802   7.465 -0.0860 -0.2086  0.2849
 6107W        W 6107   6.430   3.158   4.761 -0.0464 -0.2348 -0.0520
 6108W        W 6108   3.923   0.136   5.438 -0.2370  0.0084  0.2245
 6109W        W 6109   6.658   2.119   9.357 -0.0206 -0.1936 -0.2488
 6110W        W 6110   0.786   5.687   8.240  0.0810  0.0009 -0.0255
 6111W        W 6111   3.841   2.320   4.604 -0.1197  0.0284  0.0944
 6112W        W 6112   0.923   9.988   5.262  0.5781  0.1826 -0.2358
 6113W        W 6113   1.774   6.714   2.003 -0.0880  0.0439  0.1510
 6114W        W 6114  10.030   9.783   8.276 -0.1295 -0.3172 -0.5279
 6115W        W 6115   6.302   6.323   1.624  0.0547  0.1733  0.2330
 6116W        W 6116   3.042   1.821   2.585 -0.3420  0.2562 -0.1068
 6117W        W 6117   4.599   4.259   8.108 -0.0110 -0.1360 -0.0178
 6118W        W 6118   4.327   8.179   3.095  0.1752  0.1561  0.1892
 6119W        W 6119   9.197   9.857   0.263  0.1967 -0.0256  0.0727
 6120W        W 6120   6.287   0.246   2.685 -0.0764  0.0367 -0.1341
 6121W        W 6121   7.110   6.068   2.720  0.0589  0.0141 -0.2544
 6122W        W 6122   6.042   9.416   0.969  0.1849  0.1861 -0.0252
 6123W        W 6123   6.222   9.429   7.863  0.0003  0.1115  0.0628
 6124W        W 6124   4.580   0.175   7.472 -0.0078  0.0467 -0.0581
 6125W        W 6125   9.355   8.834   5.545  0.3443  0.1348  0.1742
 6126W        W 6126   8.395   8.713   7.109  0.0449  0.2043  0.2753
 6127W        W 6127   9.905   8.714   8.355  0.0786 -0.1170  0.2219
 6128W        W 6128   5.281  10.205   5.127 -0.0927 -0.0046  0.1220
 6129W        W 6129   8.113   4.726   0.349 -0.1992  0.2639 -0.0290
 6130W        W 6130   1.280   8.466   6.227  0.3152 -0.2279  0.1688
 6131W        W 6131   0.739   2.239   7.365  0.0916 -0.2947  0.3855
 6132W        W 6132   1.523   9.800   4.693  0.1700  0.0611 -0.1368
 6133W        W 6133   6.407   5.165   1.135  0.1535  0.2641  0.1145
 6134W        W 6134   6.795   1.527   0.714  0.1747  0.1154  0.1405
 6135W        W 6135   8.859   0.233  10.234  0.3733  0.2778 -0.0214
 6136W        W 6136   1.023  10.062   3.773  0.0247 -0.1121 -0.3020
 6137W        W 6137   0.065   9.871   5.129 -0.0401 -0.2025  0.0839
 6138W        W 6138   5.816   2.577   8.938 -0.2316  0.1368 -0.0676
 6139W        W 6139   7.040   2.035   0.520 -0.0305  0.0928 -0.0360
 6140W        W 6140   1.617   5.540   5.795 -0.0150 -0.2177 -0.1026
 6141W        W 6141   1.526   0.761   6.468 -0.1316  0.3404 -0.1813
 6142W        W 6142   0.058   1.975   5.566 -0.0108  0.0666  0.1810
 6143W        W 6143   0.884   4.045   0.611  0.0747  0.1175 -0.2390
 6144W        W 6144   3.043   3.797   0.141  0.1075 -0.1816  0.2287
 6145W        W 6145   2.371   6.523   1.527  0.2612 -0.1746  0.0387
 6146W        W 6146   0.129   5.299  10.085  0.3512  0.2669  0.2598
 6147W        W 6147   4.443   5.015   4.662 -0.2565 -0.4281 -0.1191
 6148W        W 6148   2.951   0.669   3.015 -0.1444  0.1852  0.3151
 6149W        W 6149   9.784   2.630   3.000  0.1104 -0.0156  0.2799
 6150W        W 6150   9.497   6.892   4.392  0.2883 -0.0150  0.0384
 6151W        W 6151   5.217   7.105   4.677  0.1792  0.2056  0.3705
 6152W        W 6152   3.897   2.285   9.289  0.1351  0.0047  0.0452
 6153W        W 6153   8.731   7.354   8.484  0.0279  0.2744 -0.2552
 6154W        W 6154   5.977   3.049   7.688  0.2443  0.5407 -0.0987
 6155W        W 6155   5.149   0.193   3.724 -0.1753  0.1255 -0.0358
 6156W        W 6156   0.314   2.271   2.158 -0.0030 -0.0209 -0.0035
 6157W        W 6157   2.136   2.820   8.217 -0.0920  0.1421  0.0963
 6158W        W 6158   0.704   3.671   6.236 -0.2417  0.1467 -0.1468
 6159W        W 6159   5.174   0.435   4.256  0.0467 -0.0471  0.2253
 6160W        W 6160   1.072   3.476   5.842 -0.0817  0.2659  0.0702
 6161W        W 6161   2.567   8.834   5.671  0.2268  0.1829  0.1003
 6162W        W 6162   2.648   3.739   8.634 -0.0182 -0.5296  0.0015
 6163W        W 6163   2.587   1.319   8.073  0.0040 -0.0641 -0.0140
 6164W        W 6164   0.964   6.328  10.150 -0.0312 -0.1207 -0.0917
 6165W        W 6165   8.575   3.017   8.911  0.0792 -0.1673 -0.3052
 6166W        W 6166   3.349   6.216   4.423 -0.2243  0.0794  0.3210
 6167W        W 6167   7.654   8.022   6.780 -0.0169 -0.1290 -0.0809
 6168W        W 6168   9.568   3.082   5.098 -0.0073  0.1612 -0.0874
 6169W        W 6169   5.091   2.777   3.110 -0.0817  0.1098  0.1919
 6170W        W 6170   2.485   9.497   8.135  0.0346  0.3309  0.1845
 6171W        W 6171   1.545   2.956   7.597 -0.0673 -0.2881  0.1277
 6172W        W 6172   3.425   2.121  10.178  0.0549 -0.1189 -0.1123
 6173W        W 6173   7.917   9.299   8.257  0.0719 -0.0197 -0.2656
 6174W        W 6174   5.465   9.424   6.138 -0.2003 -0.1964 -0.1538
 6175W        W 6175   0.077   0.645   4.150  0.0878  0.2304 -0.1985
 6176W        W 6176   0.446  10.267   3.058  0.0604 -0.0774  0.3129
 6177W        W 6177   3.164   6.210   3.482 -0.0876  0.0007  0.2151
 6178W        W 6178   9.896   9.696   1.128  0.1095  0.1237 -0.2103
 6179W        W 6179   6.162   1.062   5.503  0.2907 -0.3042 -0.0431
 6180W        W 6180   0.053   2.340   0.039 -0.1257 -0.0437 -0.1316
 6181W        W 6181   8.052   3.708   8.923 -0.1337 -0.0469  0.0864
 6182W        W 6182   9.360   3.791   5.325 -0.0755 -0.2019  0.0494
 6183W        W 6183   8.255   9.417   7.529 -0.0737 -0.1515  0.0077
 6184W        W 6184   4.517   0.871   4.924 -0.0937  0.1106  0.3360
 6185W        W 6185   0.563   7.222   2.480  0.1614 -0.6285 -0.1542
 6186W        W 6186   3.507   7.743   1.049  0.1481 -0.2354  0.0848
 6187W        W 6187   2.651   2.403   6.625  0.0142  0.0958  0.1772
 6188W        W 6188   3.682   3.325   2.540  0.0414  0.0693  0.0976
 6189W        W 6189   3.191   2.680  10.241  0.0767 -0.3499 -0.0959
 6190W        W 6190   0.543   4.139  10.048  0.0588 -0.1822  0.0344
 6191W        W 6191   9.713   8.527   8.781 -0.1313  0.1683 -0.2082
 6192W        W 6192   3.328   7.504   0.054  0.2293  0.0560 -0.1285
 6193W        W 6193   3.008   0.351   8.580 -0.3195 -0.0052  0.1673
 6194W        W 6194   8.991   4.150   6.993  0.3253 -0.0635 -0.0277
 6195W        W 6195   1.938   5.805   2.664 -0.0648 -0.0686 -0.0694
 6196W        W 6196   7.942   8.920   2.634  0.2813 -0.0553  0.1766
 6197W        W 6197   9.855   7.370   1.117  0.1703  0.3528  0.1354
 6198W        W 6198   2.430   6.252   4.444  0.1786  0.1996  0.1764
 6199W        W 6199   6.529   4.630   3.245 -0.0462  0.2282 -0.0670
 6200W        W 6200   3.630   8.197   5.083 -0.1026 -0.1934  0.0754
 6201W        W 6201   6.112   0.509   4.394  0.1865 -0.3091  0.2702
 6202W        W 6202   1.166   0.934   4.302 -0.1019  0.1093 -0.0518
 6203W        W 6203   8.901   8.845   3.651 -0.1973 -0.2303  0.0487
 6204W        W 6204   4.363   9.647   3.028  0.1001  0.0679 -0.1123
 6205W        W 6205   5.214   9.881   3.137 -0.0525 -0.1135  0.1678
 6206W        W 6206   5.308   7.783   1.591  0.2656  0.2879 -0.1988
 6207W        W 6207   6.879   0.437   3.217  0.1072  0.2015 -0.2371
 6208W        W 6208  10.181   5.700   5.644 -0.2409  0.1129 -0.1889
 6209W        W 6209   2.225   9.328   9.549 -0.1425 -0.2676 -0.3456
 6210W        W 6210   0.204   3.380   7.297  0.0513  0.0064 -0.1125
 6211W        W 6211   4.540   3.841   9.354  0.0743 -0.1339  0.1748
 6212W        W 6212   5.257   8.968   6.313  0.0779  0.2902  0.3477
 6213W        W 6213   2.251   7.831   5.437  0.3514  0.1153 -0.1972
 6214W        W 6214   9.385   4.216   9.908 -0.0708 -0.0297 -0.0215
 6215W        W 6215   1.558   7.235   5.169 -0.0793  0.0667  0.1897
 6216W        W 6216  10.217   0.368   0.041  0.2150 -0.1337 -0.3450
 6217W        W 6217   4.296   8.411   1.336 -0.1550  0.1617 -0.1386
 6218W        W 6218   6.650   0.699   0.062  0.1137 -0.3244 -0.0187
 6219W        W 6219   9.934   6.814   4.080  0.0140 -0.2008  0.2975
 6220W        W 6220   7.115   2.453   0.045  0.1462  0.1127  0.0737
 6221W        W 6221   3.561  10.043  10.202 -0.5872 -0.1730  0.0105
 6222W        W 6222   1.834   4.405   5.661  0.0448  0.1197 -0.2977
 6223W        W 6223   8.271   4.393   2.195 -0.0743  0.0606 -0.0796
 6224W        W 6224   7.668   3.228   6.345  0.0191  0.2590 -0.2198
 6225W        W 6225   4.904   0.607   4.691  0.1960  0.0097  0.3135
 6226W        W 6226   7.927   8.609   3.883  0.0567 -0.0817  0.3703
 6227W        W 6227   3.504   8.676   5.761 -0.1189  0.2081 -0.1708
 6228W        W 6228   5.603   7.470   5.638 -0.0441  0.0462  0.2191
 6229W        W 6229   1.857   2.243   9.231 -0.1153  0.1562 -0.0159
 6230W        W 6230   8.522   5.101   2.060 -0.1181  0.0488 -0.2498
 6231W        W 6231   0.976   7.682   0.175  0.2805 -0.0406 -0.0891
 6232W        W 6232   2.890   1.313   4.144 -0.1155 -0.0945  0.1521
 6233W        W 6233   0.272   5.629   4.397 -0.1162  0.1300  0.0522
 6234W        W 6234   1.820   4.098   0.333  0.1870 -0.0104 -0.0688
 6235W        W 6235   1.107   0.535   1.981 -0.2135  0.1138  0.1334
 6236W        W 6236   9.707   4.661   5.482 -0.1766 -0.1100 -0.0713
 6237W        W 6237   7.729   7.811   9.207 -0.0501  0.0869 -0.0332
 6238W        W 6238   3.772   5.526   8.932  0.0517 -0.0076  0.3640
 6239W        W 6239  10.261   3.461   6.771  0.2259 -0.3606  0.3452
 6240W        W 6240   0.634   9.831   4.292 -0.1246  0.0618 -0.1359
 6241W        W 6241   4.174   7.026   0.918 -0.2901  0.1652 -0.0166
 6242W        W 6242   4.330   8.234  10.076  0.0260  0.1307  0.0205
 6243W        W 6243   1.452  10.031  10.270  0.1596 -0.1863  0.0746
 6244W        W 6244   6.833   1.489   4.852  0.0712  0.0177 -0.1935
 6245W        W 6245   1.681   6.545   7.039  0.0711 -0.1007 -0.0422
 6246W        W 6246   7.026   6.211   8.253  0.3799  0.1533 -0.0704
 6247W        W 6247   3.061   7.336   3.769  0.0433 -0.1143  0.0378
 6248W        W 6248   3.847   9.363   4.328  0.1919 -0.2072 -0.4141
 6249W        W 6249   6.045   3.404   5.985  0.0702 -0.0427  0.1066
 6250W        W 6250   7.981   3.592   1.535 -0.2719 -0.0865  0.0130
 6251W        W 6251   6.102  10.104   5.754 -0.0085  0.1776 -0.1211
 6252W        W 6252   9.748   1.656   2.131  0.1837 -0.2958 -0.3261
 6253W        W 6253   1.503   4.768   2.947 -0.0663  0.1450  0.0841
 6254W        W 6254   1.917   7.190   7.700  0.0323  0.0127 -0.1440
 6255W        W 6255   8.509   4.695   9.876 -0.0978 -0.2262  0.3271
 6256W        W 6256   7.584   8.480   7.156 -0.1261  0.0383  0.0004
 6257W        W 6257   3.202   7.821   5.778  0.3774  0.1192  0.1230
 6258W        W 6258   4.384   0.107   2.390 -0.2294  0.2387  0.2200
 6259W        W 6259   3.911   0.952   8.755 -0.0411 -0.3820  0.0385
 6260W        W 6260   8.465   2.849   1.772 -0.0116  0.2259 -0.1514
 6261W        W 6261   4.226  10.083   5.594  0.3626 -0.0103 -0.2093
 6262W        W 6262   1.695   2.066   1.037 -0.0326  0.0462  0.3467
 6263W        W 6263   6.492   6.982   4.273  0.0130 -0.0727  0.1812
 6264W        W 6264   4.819   5.373   4.665  0.1660  0.0351 -0.2249
 6265W        W 6265   2.185   8.356   0.979  0.2119  0.2037 -0.0292
 6266W        W 6266   9.146   9.278   8.909 -0.1164 -0.3664  0.1094
 6267W        W 6267   8.936   8.346   9.321 -0.3369  0.1344 -0.1326
 6268W        W 6268   3.936   3.077   2.158 -0.3856  0.4297 -0.1508
 6269W        W 6269   0.896   5.501   9.800  0.3992  0.0039  0.0607
 6270W        W 6270   2.174   3.010   7.218 -0.0554  0.0922 -0.4548
 6271W        W 6271   6.595   2.101   9.874 -0.1819  0.3017 -0.1785
 6272W        W 6272   6.907   9.708   5.605  0.0978  0.1015 -0.0804
 6273W        W 6273   8.890   9.285   4.432  0.0383 -0.3050 -0.1449
 6274W        W 6274   9.792   9.691   9.988 -0.1569  0.0775  0.1046
 6275W        W 6275   2.584   6.529   9.700  0.2093  0.0033 -0.0586
 6276W        W 6276   4.518   3.593  10.299 -0.2714 -0.0640  0.0643
 6277W        W 6277   2.840   8.296   6.922  0.0550 -0.2081  0.0314
 6278W        W 6278   5.269   0.106   1.024  0.2883  0.1456 -0.0542
 6279W        W 6279   8.558  10.097   2.329  0.1036 -0.0519  0.0621
 6280W        W 6280   2.182   3.064   1.470 -0.1544 -0.2035 -0.3784
 6281W        W 6281   5.023   5.585   5.070 -0.1344 -0.1732  0.2803
 6282W        W 6282   3.225   1.326   1.967  0.2543 -0.0512  0.0997
 6283W        W 6283   3.158   3.028   6.713 -0.1554 -0.2137 -0.0339
 6284W        W 6284   5.044   3.554   9.213 -0.3350 -0.2067  0.0151
 6285W        W 6285   2.716   2.907   6.472  0.0049  0.1428 -0.1434
 6286W        W 6286   3.193   6.171   1.274 -0.1027  0.0944  0.0998
 6287W        W 6287   2.914   1.738   3.892 -0.2038 -0.0164  0.0981
 6288W        W 6288   2.031   9.666   1.482  0.0221 -0.1521  0.1190
 6289W        W 6289   2.307   9.747   7.732 -0.2397 -0.0630 -0.2339
 6290W        W 6290   7.779  10.153  10.262  0.1233  0.0637 -0.3445
 6291W        W 6291   5.714   4.989   0.768 -0.1561 -0.1769  0.1025
 6292W        W 6292   0.849   8.658   0.302  0.1877  0.0145 -0.2306
 6293W        W 6293   2.200   4.180   6.560 -0.0398 -0.0751 -0.3616
 6294W        W 6294   4.483   3.647   0.914  0.3874  0.3816  0.3093
 6295W        W 6295   5.856   9.757   7.605  0.1864  0.0132 -0.1020
 6296W        W 6296   9.348   2.572   9.822 -0.2550  0.2871  0.1994
 6297W        W 6297   4.701   9.239   6.672  0.0888 -0.1456  0.1356
 6298W        W 6298   0.569   2.951   9.379 -0.3513 -0.2309 -0.0547
 6299W        W 6299   8.853   2.906   3.050  0.0286 -0.0572  0.2652
 6300W        W 6300   2.545   0.542   0.410 -0.1622  0.0296  0.1198
 6301W        W 6301   7.548   1.461   0.104 -0.1129  0.0193 -0.0514
 6302W        W 6302   3.722   9.533  10.104  0.0985 -0.2494 -0.0521
 6303W        W 6303   1.476   9.835   9.070  0.1740 -0.1545 -0.3108
 6304W        W 6304   9.718   8.300   0.402  0.2479 -0.0617 -0.0405
 6305W        W 6305   8.528   4.974   0.141 -0.2990  0.0761  0.0638
 6306W        W 6306   6.858   7.068   2.575 -0.0678 -0.1472  0.2610
 6307W        W 6307   4.298   8.990   6.058  0.4074 -0.1458  0.0044
 6308W        W 6308   6.104   3.509   7.428  0.3216  0.2279 -0.2622
 6309W        W 6309  10.146   0.350   2.688 -0.0899  0.2279  0.1427
 6310W        W 6310   3.403   6.645   8.942 -0.2015  0.2452  0.2487
 6311W        W 6311   1.808   6.537   1.274 -0.1230  0.1197 -0.1304
 6312W        W 6312   0.953   0.832   3.794 -0.1117 -0.0817  0.0946
 6313W        W 6313   6.990  10.072   9.889  0.1386 -0.3484  0.2295
 6314W        W 6314   0.452   6.339   6.592 -0.1059  0.0019  0.1905
 6315W        W 6315   9.072   7.915   4.822  0.0315  0.0582 -0.2360
 6316W        W 6316   6.706   6.828   0.177  0.0762  0.1199 -0.1100
 6317W        W 6317   3.867   0.016   1.714  0.2582  0.3295 -0.0671
 6318W        W 6318   7.253   4.872   1.474  0.1544 -0.1918 -0.0278
 6319W        W 6319   8.209   5.608   5.578  0.1330  0.4015  0.3044
 6320W        W 6320   8.301   2.208   3.449 -0.3584 -0.2287 -0.0094
 6321W        W 6321   8.160   9.046   6.281  0.1022 -0.2032  0.1024
 6322W        W 6322   3.236   0.343   5.718 -0.1593 -0.4405  0.1887
 6323W        W 6323   3.302   0.837   6.433 -0.2825 -0.0168 -0.0144
 6324W        W 6324   6.836   9.792   4.638  0.2605 -0.1516  0.0931
 6325W        W 6325   2.109   6.955   2.264 -0.2267  0.1346  0.4041
 6326W        W 6326   2.097   5.534   1.703 -0.0846  0.1888  0.1231
 6327W        W 6327   2.070   6.927   8.532 -0.2137  0.1003 -0.0471
 6328W        W 6328   1.558   6.663   6.513 -0.3447  0.0595  0.1405
 6329W        W 6329   1.900   7.618   5.144 -0.2341 -0.1197 -0.1672
 6330W        W 6330   3.521   2.630   9.236  0.3692  0.0807 -0.0260
 6331W        W 6331  10.137   8.977   1.941 -0.1368 -0.1443  0.0322
 6332W        W 6332   9.810   5.397   8.756 -0.1322 -0.0097 -0.1216
 6333W        W 6333   4.986   2.100   5.582 -0.0955  0.0473 -0.1568
 6334W        W 6334   1.620   1.510   3.038 -0.1076 -0.0021  0.2281
 6335W        W 6335   3.175   8.749   3.228  0.3130 -0.3022  0.1273
 6336W        W 6336   2.716   3.515   9.932  0.1401 -0.1361  0.2708
 6337W        W 6337   3.699   7.741   2.796 -0.1128 -0.0055  0.3590
 6338W        W 6338   3.959   9.558   1.487  0.0482  0.2011 -0.1726
 6339W        W 6339   5.707   1.954   9.488 -0.1750 -0.2160 -0.1260
 6340W        W 6340   6.617   8.552   0.489 -0.0780 -0.3580 -0.2765
 6341W        W 6341   7.268   7.662   4.114  0.2457 -0.1319 -0.2290
 6342W        W 6342   0.703   3.537   1.201  0.0557 -0.0423 -0.0132
 6343W        W 6343   6.158   9.378   8.897  0.1268  0.0557 -0.2215
 6344W        W 6344   3.156   1.534   4.987 -0.1239 -0.2414 -0.1342
 6345W        W 6345   5.653   5.507   4.269 -0.0788 -0.1490  0.0404
 6346W        W 6346   6.538   8.740   6.613  0.5885  0.0829  0.1331
 6347W        W 6347   5.423   1.140   1.211 -0.0146 -0.0094 -0.0051
 6348W        W 6348   1.128   6.853   7.974 -0.0481 -0.0343 -0.1356
 6349W        W 6349  10.077   2.656   2.568  0.1224 -0.1005  0.0130
 6350W        W 6350   8.410   2.894   7.047 -0.1091  0.1981  0.1502
 6351W        W 6351   6.262   5.044   3.195  0.0326  0.0689 -0.1663
 6352W        W 6352   4.580   2.790   5.100  0.0672 -0.0642 -0.2060
 6353W        W 6353  10.218   6.276   5.999 -0.0293 -0.0373 -0.1290
 6354W        W 6354   4.501   7.550   2.381 -0.2095 -0.0584 -0.0958
 6355W        W 6355   6.543   2.554   3.788  0.1667  0.0076 -0.1803
 6356W        W 6356   6.575   7.624   2.635 -0.0131  0.0341  0.0660
 6357W        W 6357   3.801   0.808   0.561 -0.0572  0.1732  0.1455
 6358W        W 6358   4.522  10.006   2.717  0.0221 -0.1532  0.1350
 6359W        W 6359   2.420   6.214   5.629 -0.1902 -0.1615  0.0550
 6360W        W 6360   6.299   3.731   0.369  0.5673 -0.1970  0.0560
 6361W        W 6361   8.774   0.024   9.302 -0.1011  0.1543  0.0057
 6362W        W 6362   0.700   4.414   0.314  0.0791 -0.0968  0.0200
 6363W        W 6363   3.114   4.766   5.363 -0.0701 -0.0908  0.0124
 6364W        W 6364   7.753   5.442   0.463 -0.3116  0.0329 -0.0663
 6365W        W 6365   6.967   1.654   3.988  0.0534 -0.0517 -0.1125
 6366W        W 6366   4.287   2.855   0.406 -0.4331 -0.2360  0.0236
 6367W        W 6367  10.100   3.798   5.486 -0.2398 -0.1546 -0.1911
 6368W        W 6368   1.339   3.459   6.915  0.3505  0.1298 -0.0207
 6369W        W 6369   3.895   7.374   6.886  0.0855 -0.2255 -0.0306
 6370W        W 6370   1.323   7.511   6.563 -0.1156 -0.1537  0.2684
 6371W        W 6371   1.010   9.973  10.017 -0.1291  0.2319  0.0379
 6372W        W 6372   9.453   1.945   0.372  0.2553 -0.1813 -0.3572
 6373W        W 6373   8.289   6.067   5.428  0.1193 -0.0571  0.1658
 6374W        W 6374   3.344   8.119   7.168  0.2094 -0.1654 -0.0794
 6375W        W 6375   4.717   7.358   3.166  0.0355 -0.0417 -0.1389
 6376W        W 6376   2.635   8.258   0.004 -0.0754 -0.1103  0.0859
 6377W        W 6377   7.338   7.297   6.481 -0.1929  0.1363  0.0619
 6378W        W 6378   4.974   4.712   6.378  0.0350  0.0654 -0.0283
 6379W        W 6379   4.528   8.479   5.928  0.0651  0.1511 -0.0143
 6380W        W 6380   6.271   3.302  10.324 -0.5533 -0.0755 -0.0598
 6381W        W 6381   6.217   2.496   2.091 -0.1498 -0.0472  0.0522
 6382W        W 6382   5.130   3.234   8.141 -0.1989 -0.3164  0.0009
 6383W        W 6383   9.037   0.362   6.121  0.2188 -0.0443  0.0077
 6384W        W 6384   9.238   3.443   8.715  0.1302  0.0037  0.2448
 6385W        W 6385   6.477  10.310   9.950  0.0217 -0.0825  0.1666
 6386W        W 6386   6.413   9.854   5.248 -0.1199 -0.0322 -0.1072
 6387W        W 6387   8.210   2.523   5.515  0.1775 -0.1230  0.3052
 6388W        W 6388   9.447   9.455   6.568 -0.1400 -0.0393  0.0065
 6389W        W 6389   2.646   3.223   8.598  0.0705 -0.0113 -0.3440
 6390W        W 6390   5.553   0.257   7.161 -0.2218  0.2323 -0.2004
 6391W        W 6391   6.479   1.175  10.093  0.0348 -0.2142 -0.4016
 6392W        W 6392   4.179   9.170   1.999 -0.0167 -0.2595 -0.2376
 6393W        W 6393   8.423   1.529   8.853 -0.0591 -0.3072  0.0659
 6394W        W 6394   1.951   3.535   6.002 -0.1161  0.0548  0.2122
 6395W        W 6395   6.812   1.128   6.692  0.0481 -0.1134  0.2427
 6396W        W 6396   9.354   2.947   1.365 -0.0165  0.0039 -0.0074
 6397W        W 6397   8.372   4.655   5.200 -0.1772  0.1427  0.0269
 6398W        W 6398   5.711   9.003   9.564 -0.2239  0.0747  0.1069
 6399W        W 6399   9.271   7.701   7.740  0.0342  0.1906  0.1371
 6400W        W 6400   3.995   0.434   9.879 -0.1091  0.1583  0.1178
 6401W        W 6401   0.323   6.163   9.482 -0.0061 -0.3609 -0.2030
 6402W        W 6402   8.662   5.923   6.628 -0.1201  0.0400  0.1252
 6403W        W 6403   4.935   6.077   2.717  0.0838 -0.0272  0.0880
 6404W        W 6404   2.975   9.716   5.015 -0.1550 -0.1649 -0.3223
 6405W        W 6405   8.215   3.925   1.824  0.1559  0.3411 -0.1816
 6406W        W 6406   3.631   4.783   6.499 -0.0356  0.1259 -0.0973
 6407W        W 6407   4.166   5.815   4.156  0.1424 -0.1546  0.1749
 6408W        W 6408   9.165   2.145   0.749  0.0272  0.1266 -0.0508
 6409W        W 6409   5.764  10.087   7.175  0.1210 -0.1531  0.1753
 6410W        W 6410   5.391  10.094   6.300 -0.0570  0.0720  0.1541
 6411W        W 6411   5.860   4.536   0.550  0.2131  0.2711 -0.1137
 6412W        W 6412   4.768   5.589   9.461  0.2823  0.0394  0.0936
 6413W        W 6413   2.461   3.216   9.498  0.1985  0.0402 -0.6194
 6414W        W 6414   3.866   1.267   9.800  0.1362  0.3633  0.1552
 6415W        W 6415   1.699   4.321   4.611  0.2667  0.0245 -0.1339
 6416W        W 6416   6.525   3.393   2.513 -0.0348  0.2041 -0.2364
 6417W        W 6417   9.022   5.989   8.655 -0.3115 -0.0527 -0.0010
 6418W        W 6418  10.023   0.985  10.152 -0.1314 -0.0946 -0.0951
 6419W        W 6419   0.158   2.542   5.011  0.1668  0.2635  0.0016
 6420W        W 6420   0.927   7.151  10.047  0.3337  0.0360  0.1627
 6421W        W 6421   4.589   5.699   3.819 -0.1202 -0.3891 -0.1733
 6422W        W 6422   7.424   0.343   2.936  0.0724 -0.3441 -0.0034
 6423W        W 6423   9.302   7.740   5.987  0.1980  0.1921  0.0212
 6424W        W 6424   1.737   6.404   2.820  0.3155  0.0329 -0.0217
 6425W        W 6425   4.047   6.967   7.666  0.1352 -0.2874  0.0233
 6426W        W 6426   5.463   5.294   3.724  0.1222 -0.0689  0.0162
 6427W        W 6427   6.808   6.719   1.699 -0.1277  0.2204 -0.0679
 6428W        W 6428   9.581   2.227   9.588  0.0123 -0.1018 -0.0421
 6429W        W 6429   6.199   7.219   0.966 -0.0046 -0.1529 -0.1164
 6430W        W 6430   6.577   8.875   4.266 -0.0301 -0.0580 -0.4982
 6431W        W 6431   6.283   5.674   9.922 -0.3311  0.0940 -0.0620
 6432W        W 6432   7.929   9.617   3.069  0.0067 -0.1866 -0.0225
 6433W        W 6433   1.126   2.932   3.081  0.1135  0.1624 -0.2034
 6434W        W 6434   9.166   2.030   1.237  0.3549  0.0658 -0.0694
 6435W        W 6435   4.620   9.271   0.653  0.2208  0.2523  0.1035
 6436W        W 6436   9.050   6.065   4.773 -0.1455 -0.4120 -0.0077
 6437W        W 6437   7.384   2.891   5.419  0.1933 -0.1788 -0.0354
 6438W        W 6438   2.461   8.287   6.503 -0.0409  0.1663 -0.1777
 6439W        W 6439   8.202   7.672   7.633 -0.1343  0.3105  0.2048
 6440W        W 6440   8.547   5.482   3.324  0.2245  0.2328  0.1502
 6441W        W 6441   3.593   2.090   7.713 -0.0840 -0.3453  0.1409
 6442W        W 6442  10.208   6.086   0.078 -0.3610  0.0024  0.3197
 6443W        W 6443   5.949   1.059   7.240  0.1248 -0.1493  0.1665
 6444W        W 6444   4.308  10.185   0.987 -0.0362  0.0898 -0.1625
 6445W        W 6445   0.263   6.792   3.469  0.0646 -0.2325  0.0852
 6446W        W 6446   8.915   6.425   4.190 -0.4901 -0.1215  0.2974
 6447W        W 6447   1.438   8.329   3.648 -0.1914  0.0497  0.0692
 6448W        W 6448   9.434   1.133   1.553 -0.0897  0.0030 -0.3278
 6449W        W 6449   4.804   6.217   4.145 -0.1954 -0.0221  0.1781
 6450W        W 6450   4.078   0.653   4.596  0.2213 -0.1362  0.2622
 6451W        W 6451   0.494   0.753   5.787  0.0032  0.1137 -0.1396
 6452W        W 6452   0.047   6.130   4.104 -0.4403  0.1474  0.1531
 6453W        W 6453   0.221  10.291   1.053 -0.0337  0.0987 -0.0037
 6454W        W 6454   9.084   1.013   6.326 -0.1430 -0.0178 -0.2066
 6455W        W 6455   4.521   2.876   2.402  0.2293  0.1284  0.1101
 6456W        W 6456   5.476   7.440   6.203 -0.0889  0.2065 -0.0705
 6457W        W 6457   5.272   5.320   8.190  0.1001 -0.4782  0.1119
 6458W        W 6458   9.028   8.382   3.912 -0.1784 -0.0695  0.5202
 6459W        W 6459   6.540   8.255   7.985 -0.0939 -0.1757 -0.5022
 6460W        W 6460   4.455   4.301   9.206  0.0143 -0.2602  0.1336
 6461W        W 6461   5.698   0.253   8.682  0.0713 -0.3335 -0.1017
 6462W        W 6462   7.062   5.879   4.770  0.1929  0.0087  0.1796
 6463W        W 6463   2.287   0.962   1.841 -0.1105 -0.0729 -0.3454
 6464W        W 6464   9.101   9.115   3.252 -0.0798 -0.0706  0.1991
 6465W        W 6465   8.415   2.338   1.682 -0.0126  0.2613  0.0290
 6466W        W 6466   2.953   3.526   4.780  0.2915 -0.0889  0.0947
 6467W        W 6467   5.434  10.100   4.621 -0.0579 -0.0082 -0.3584
 6468W        W 6468   9.008   4.707  10.120 -0.2506  0.0312 -0.0201
 6469W        W 6469   6.844   2.684   0.374  0.1038  0.0301 -0.0215
 6470W        W 6470   6.037   1.977   2.428 -0.0367 -0.2992  0.1002
 6471W        W 6471   2.190   9.265   7.762 -0.1386  0.0153  0.1129
 6472W        W 6472   5.076   3.644   8.670  0.0129 -0.1539 -0.1064
 6473W        W 6473   9.628   9.391   9.094 -0.0007  0.0614  0.1736
 6474W        W 6474   7.470   0.149   1.089 -0.1965 -0.0139  0.1225
 6475W        W 6475   5.942   2.523   3.062  0.3081  0.6723  0.2394
 6476W        W 6476   3.425   9.142   5.907  0.2757 -0.0985  0.0761
 6477W        W 6477   7.829  10.163   7.047 -0.1527 -0.1005  0.0349
 6478W        W 6478   3.695   6.520   0.393  0.1416 -0.0539 -0.3011
 6479W        W 6479   4.137   8.826   2.746  0.0532 -0.0377  0.2969
 6480W        W 6480   2.799   1.664   1.062 -0.3929 -0.1147 -0.0129
 6481W        W 6481   0.240  10.290   5.364  0.1975  0.0401  0.1944
 6482W        W 6482   1.554   1.378   2.457 -0.1784  0.0739  0.0428
 6483W        W 6483   0.328   5.123   3.331 -0.3377  0.3452 -0.0666
 6484W        W 6484   2.771   3.021   9.171  0.2840  0.0256 -0.0071
 6485W        W 6485   5.208   3.078   1.452  0.0802  0.2712 -0.0421
 6486W        W 6486   3.457   9.721   8.182  0.2041  0.1769 -0.0591
 6487W        W 6487   5.243   9.163   8.786  0.3565 -0.1901 -0.1303
 6488W        W 6488   6.522   3.179   6.994 -0.1447  0.0174 -0.0301
 6489W        W 6489   2.109   7.428   0.682  0.2320  0.1108 -0.2271
 6490W        W 6490   2.718   2.055   3.495  0.0782 -0.0209  0.2523
 6491W        W 6491   0.203   9.194  10.301  0.1338  0.0762  0.0397
 6492W        W 6492   9.308   8.553   1.455 -0.1242  0.2922 -0.1113
 6493W        W 6493   0.341   9.779   2.777 -0.0681 -0.0042  0.0083
 6494W        W 6494   6.185   5.907   1.977  0.1221  0.0438  0.1980
 6495W        W 6495   5.400   3.181   9.923 -0.1381  0.0004 -0.0028
 6496W        W 6496   1.866   4.375   1.665  0.1760 -0.1909 -0.1109
 6497W        W 6497   3.186   9.554   4.583 -0.1806  0.2032 -0.1834
 6498W        W 6498   5.301   7.933   6.269  0.2927 -0.0493 -0.0423
 6499W        W 6499   1.078   8.472   8.098 -0.0328  0.2007 -0.0735
 6500W        W 6500   3.372   1.271   4.544  0.0418  0.0585 -0.0325
 6501W        W 6501   7.391  10.075   5.258 -0.0073 -0.3799 -0.0111
 6502W        W 6502   1.208   6.985   8.795  0.2572 -0.1099  0.0161
 6503W        W 6503   9.472   3.190   0.962 -0.1135  0.0905 -0.0157
 6504W        W 6504   3.718   9.377   3.836  0.1008  0.2451  0.0044
 6505W        W 6505   0.540   7.215   3.696 -0.1846  0.2915 -0.0889
 6506W        W 6506   5.776   0.245   7.745 -0.1096 -0.2632 -0.1577
 6507W        W 6507   1.247   3.334   8.603  0.1637 -0.0758 -0.2994
 6508W        W 6508   5.087   5.926   1.338 -0.1029  0.0123  0.0952
 6509W        W 6509   9.350   3.884   9.541 -0.0111  0.3050  0.2036
 6510W        W 6510   1.704   0.307   6.928  0.0645  0.0906  0.1033
 6511W        W 6511   2.144   0.431   3.952 -0.3657 -0.3737  0.0894
 6512W        W 6512   2.937   8.298   2.490 -0.2392  0.1437 -0.1924
 6513W        W 6513   3.572   2.757   4.709  0.1626 -0.3148 -0.3026
 6514W        W 6514   7.378   5.090   6.021 -0.0014 -0.0235  0.2129
 6515W        W 6515   6.175  10.250   6.266 -0.0462  0.4101  0.0421
 6516W        W 6516   1.097   1.659   9.216 -0.0795 -0.4294  0.0141
 6517W        W 6517   2.761   5.637   9.862  0.0485 -0.0300  0.0504
 6518W        W 6518   8.950   4.196   5.118  0.0904  0.0451  0.1293
 6519W        W 6519   1.774   7.455   0.175 -0.2113 -0.2485 -0.0680
 6520W        W 6520   1.298   3.962   7.827  0.0085  0.2817 -0.2753
 6521W        W 6521   1.152   9.071   5.425 -0.0104 -0.0640 -0.2186
 6522W        W 6522   6.269   2.861   5.215  0.0722 -0.0378  0.0268
 6523W        W 6523   9.405   3.290   6.011  0.0720  0.0348  0.0034
 6524W        W 6524   7.792   9.681   4.008 -0.2276 -0.0926 -0.0483
 6525W        W 6525   8.524   3.205   4.038 -0.3803  0.1293  0.1342
 6526W        W 6526   7.790   5.206   3.268  0.0432  0.1496  0.0526
 6527W        W 6527   8.127   9.980   4.335 -0.0329  0.0222  0.0180
 6528W        W 6528   6.735   3.477   3.966  0.0658 -0.0772 -0.1798
 6529W        W 6529   3.600   4.440   8.451 -0.4154  0.1588 -0.0029
 6530W        W 6530   4.789   7.422   6.699  0.2772  0.0918  0.1769
 6531W        W 6531   2.139   7.643   7.801  0.1665 -0.1198 -0.2104
 6532W        W 6532   8.375   2.234   9.576 -0.2571 -0.3489  0.0761
 6533W        W 6533   9.885   8.651   4.562 -0.2096 -0.0856  0.1107
 6534W        W 6534   4.119   6.462   8.743 -0.0003 -0.0530 -0.1368
 6535W        W 6535   2.757   5.940   1.083  0.3301 -0.0104  0.2013
 6536W        W 6536   7.663   6.467   3.640  0.1084  0.0178 -0.1284
 6537W        W 6537   9.187   0.282   2.656  0.3057 -0.0988  0.2206
 6538W        W 6538   4.312   5.754   2.048 -0.2595 -0.0517 -0.0185
 6539W        W 6539   7.102   4.687   2.344  0.1282  0.5116  0.0768
 6540W        W 6540   0.502   7.733   5.844 -0.2249 -0.2141  0.2023
 6541W        W 6541   0.727   9.254   8.429 -0.0734 -0.1577 -0.2324
 6542W        W 6542   5.743   9.283   2.523 -0.0307  0.2127 -0.2181
 6543W        W 6543  10.164   3.023   3.805 -0.0849 -0.2460 -0.0662
 6544W        W 6544   5.833  10.234   4.267  0.0489  0.3296 -0.1807
 6545W        W 6545   0.702   8.520   3.615 -0.0699  0.1712 -0.0517
 6546W        W 6546   5.887   7.040   7.465  0.0868  0.4154  0.0714
 6547W        W 6547   6.003   6.579   6.303 -0.0792  0.1829 -0.0228
 6548W        W 6548   3.367   3.531   6.200 -0.3582  0.2839  0.0112
 6549W        W 6549   3.758   8.704   7.129  0.1569 -0.0400  0.2605
 6550W        W 6550   5.142   9.463   6.532 -0.1355  0.4269 -0.2417
 6551W        W 6551   0.640   6.294   5.320 -0.2003 -0.0593  0.0967
 6552W        W 6552   8.762   2.598   7.365  0.0658  0.2014 -0.0600
 6553W        W 6553   1.696   4.487   2.270 -0.0059  0.2143  0.3302
 6554W        W 6554   7.117   0.654   5.397 -0.0441  0.2734  0.0896
 6555W        W 6555   5.814   7.909   2.097 -0.0532 -0.0257  0.3311
 6556W        W 6556   2.685   7.930   2.248 -0.0621 -0.0599 -0.0693
 6557W        W 6557   0.213   3.956   8.224  0.0143  0.2592  0.5040
 6558W        W 6558   4.753   1.332   6.529  0.1979  0.1599 -0.2770
 6559W        W 6559   0.270   0.306   2.421  0.3621 -0.3176  0.0963
 6560W        W 6560   8.724   8.435   3.480 -0.4463 -0.1495  0.1128
 6561W        W 6561   0.691   2.352   2.572  0.0255  0.1341 -0.1477
 6562W        W 6562   1.214   5.159   7.675 -0.0247  0.0346  0.3162
 6563W        W 6563   1.896   1.858   3.350  0.2006  0.0850 -0.1945
 6564W        W 6564   6.639   1.716   7.762  0.2970  0.1273 -0.1906
 6565W        W 6565   9.086   7.612   7.262 -0.3971  0.0016  0.1394
 6566W        W 6566   6.397   0.698   3.332  0.3502 -0.2079  0.0731
 6567W        W 6567   3.092   3.071   0.301 -0.0668  0.0345 -0.2989
 6568W        W 6568   7.352   9.504   0.168  0.1827 -0.0418  0.2532
 6569W        W 6569   6.366   4.764   6.918 -0.1845 -0.2524  0.4114
 6570W        W 6570   5.208   4.903   5.034 -0.0067  0.2530  0.2345
 6571W        W 6571   9.527   8.127   1.659 -0.1429  0.0104 -0.0029
 6572W        W 6572   5.825   3.696  10.257  0.2058  0.0385 -0.0914
 6573W        W 6573   6.477   0.531   2.051 -0.3676 -0.1628 -0.1427
 6574W        W 6574   0.410   7.924   4.986  0.0065 -0.2076  0.0040
 6575W        W 6575   1.328   1.622   3.616  0.0998 -0.0153 -0.1431
 6576W        W 6576   1.233   8.464   1.040 -0.0523  0.0438  0.0609
 6577W        W 6577   6.684   8.459   9.951 -0.0609  0.0675 -0.1060
 6578W        W 6578   1.520   6.388   5.175  0.0098  0.2358  0.1571
 6579W        W 6579   6.663   7.763   2.099  0.2980  0.2780 -0.1396
 6580W        W 6580   0.238   6.015   5.584 -0.1283  0.0136  0.0615
 6581W        W 6581   8.367   3.448   4.430 -0.1437  0.1486  0.2666
 6582W        W 6582   4.744   1.463   2.022 -0.0390 -0.4073  0.0467
 6583W        W 6583   1.674   0.737   4.124  0.2196  0.0514  0.3450
 6584W        W 6584   1.818   6.961   5.817 -0.3012  0.1226  0.2496
 6585W        W 6585   4.265   5.328   7.817  0.1008  0.0870 -0.1501
 6586W        W 6586   6.084   6.153   9.634 -0.0650 -0.1586  0.1526
 6587W        W 6587   5.897   8.506   7.380  0.1519  0.1647 -0.0665
 6588W        W 6588   0.562   6.195   3.144  0.3409 -0.3475 -0.0637
 6589W        W 6589   6.623  10.266   7.298 -0.0800  0.0370  0.2665
 6590W        W 6590   6.862   8.511   4.539  0.4295  0.3126 -0.1481
 6591W        W 6591   8.527   2.046   7.586  0.2571  0.0738 -0.1651
 6592W        W 6592   2.892   5.213   6.861  0.3089  0.1234  0.0404
 6593W        W 6593   5.809   6.283   1.148  0.0908 -0.1968 -0.0957
 6594W        W 6594   5.925   6.134   6.107  0.5749 -0.0317  0.0548
 6595W        W 6595   0.966   8.966   0.722 -0.3694  0.0594 -0.0065
 6596W        W 6596   8.910  10.092   7.890  0.1573  0.0602  0.1851
 6597W        W 6597   6.692   4.949   7.294  0.0150  0.1410  0.0353
 6598W        W 6598   6.512   3.339   9.138 -0.1775  0.0375 -0.1972
 6599W        W 6599   9.208   8.265   5.916  0.0729  0.1704 -0.3293
 6600W        W 6600   7.262   8.685   0.559 -0.3236  0.0610  0.3519
 6601W        W 6601   4.213   2.514   2.807 -0.2288  0.1436  0.1866
 6602W        W 6602   8.591   2.214   4.566  0.1230  0.0795  0.0281
 6603W        W 6603   2.532   1.917   4.453  0.2587  0.1328 -0.2715
 6604W        W 6604   8.448   0.527  10.215 -0.0091 -0.0006  0.0847
 6605W        W 6605   5.798   3.936   9.329 -0.0747 -0.1923 -0.0434
 6606W        W 6606   6.079   2.664   1.318 -0.0202  0.4510 -0.2086
 6607W        W 6607   1.989   5.214   3.651  0.0163 -0.0503  0.1445
 6608W        W 6608   6.724   5.416   0.741 -0.1035  0.0428 -0.0487
 6609W        W 6609   9.233   6.602   2.423  0.0697 -0.3039  0.1835
 6610W        W 6610   1.692   2.125   8.250  0.0869  0.1953  0.3288
 6611W        W 6611   2.051   8.997   4.632 -0.0066  0.0648  0.0377
 6612W        W 6612   9.895   5.867   3.953 -0.1480 -0.3350 -0.2500
 6613W        W 6613   5.226   5.910   4.050  0.1350 -0.1761 -0.1774
 6614W        W 6614  10.039   7.398   6.350 -0.2544 -0.2351 -0.2304
 6615W        W 6615   0.754   7.974   7.257 -0.0970  0.0893 -0.0639
 6616W        W 6616   6.927   0.964   8.758 -0.1805  0.0960  0.1637
 6617W        W 6617   4.423   1.028   6.357 -0.2463 -0.1392 -0.0112
 6618W        W 6618   0.627   1.042   2.519 -0.3123  0.1381  0.1329
 6619W        W 6619   4.078   4.523   1.648  0.0853  0.0432  0.1624
 6620W        W 6620   7.385   6.482   6.376 -0.0476 -0.1788  0.2209
 6621W        W 6621   3.285   6.967   7.323 -0.2466 -0.2208  0.1692
 6622W        W 6622   4.947   7.509   9.035  0.1825 -0.2709 -0.2014
 6623W        W 6623   2.383   3.800   6.173 -0.0688 -0.2048  0.1152
 6624W        W 6624   4.300   4.605   1.219  0.1835  0.2616  0.0307
 6625W        W 6625   9.530   9.718   8.262  0.1097 -0.0527  0.3615
 6626W        W 6626   8.898   0.278   7.020  0.3362  0.3205 -0.1781
 6627W        W 6627   2.793   9.840   5.526 -0.0768 -0.1182 -0.0108
 6628W        W 6628  10.041   0.655   7.943 -0.1149 -0.2207 -0.2818
 6629W        W 6629   5.357   8.859   1.351 -0.1338 -0.5273 -0.1066
 6630W        W 6630   1.455   9.425   5.649  0.1986 -0.0907 -0.1858
 6631W        W 6631   1.929   0.294   8.544 -0.0169 -0.0039  0.2559
 6632W        W 6632   8.535   8.591   0.036 -0.1115 -0.1062  0.2357
 6633W        W 6633   3.766   1.586   6.887  0.0875  0.1131  0.0531
 6634W        W 6634   6.980   1.382   1.238 -0.0212  0.1382  0.0281
 6635W        W 6635   9.985   9.290   7.093 -0.1542 -0.0057  0.0585
 6636W        W 6636   8.261   1.053   7.584 -0.0398  0.0101  0.2932
 6637W        W 6637   2.902   0.771   0.701 -0.0926 -0.1510 -0.2276
 6638W        W 6638   8.166   8.856   8.417  0.1168 -0.2822 -0.1980
 6639W        W 6639   6.400   7.914   7.664  0.1595 -0.2871  0.1838
 6640W        W 6640   2.868   0.633   6.227 -0.1287 -0.0168  0.1148
 6641W        W 6641   2.211   5.458   4.482 -0.0582  0.1474 -0.1216
 6642W        W 6642   1.821   8.419  10.122 -0.0047  0.2961 -0.5260
 6643W        W 6643   4.325   8.091   8.659  0.1922 -0.2504 -0.0430
 6644W        W 6644   2.459   2.373   5.242 -0.0759 -0.1872  0.0041
 6645W        W 6645   5.609   3.320   4.762  0.1747  0.4437 -0.0001
 6646W        W 6646   1.786   9.371   9.153  0.1696 -0.1014  0.0674
 6647W        W 6647   1.644   2.074   6.401  0.1938  0.1722  0.4167
 6648W        W 6648   3.289   9.325  10.150 -0.2379  0.0443  0.0257
 6649W        W 6649   4.583   4.424   7.402  0.3646  0.0245  0.1073
 6650W        W 6650   0.539   0.274   5.642  0.0365 -0.0563  0.0498
 6651W        W 6651   4.746   0.734   2.398  0.3804  0.1478 -0.1930
 6652W        W 6652   3.766   7.925   2.215 -0.0027 -0.5323 -0.0537
 6653W        W 6653   7.910   2.142   5.068 -0.2572  0.0585  0.2729
 6654W        W 6654  10.290   9.844   3.099 -0.0239 -0.2608  0.1034
 6655W        W 6655   7.036   6.577   9.297 -0.0183 -0.0076  0.0200
 6656W        W 6656   1.563   0.420   7.386 -0.1427 -0.0808  0.0363
 6657W        W 6657   5.671   0.002   9.647 -0.2471  0.2004 -0.1842
 6658W        W 6658   8.342   2.577   2.238 -0.0212 -0.3352  0.0637
 6659W        W 6659   5.965   8.034   4.811  0.0186  0.3426  0.0257
 6660W        W 6660   0.942   8.328   9.778  0.3024 -0.1920  0.1413
 6661W        W 6661   1.468   5.477   8.582 -0.1294 -0.0149 -0.1983
 6662W        W 6662   1.865   9.026   6.497  0.4425 -0.1308 -0.0881
 6663W        W 6663   3.024   3.184   4.368  0.0370  0.1318  0.2763
 6664W        W 6664   4.373   6.104   5.979 -0.1184 -0.0365 -0.0205
 6665W        W 6665   7.382   7.328   3.253 -0.1051 -0.2039 -0.0689
 6666W        W 6666   6.276   3.736   5.694 -0.0530 -0.1562  0.3123
 6667W        W 6667   4.122   5.715   8.666  0.3553 -0.0635  0.3110
 6668W        W 6668   4.185   5.171   8.857 -0.1501  0.1692 -0.0437
 6669W        W 6669   9.441   3.557   7.006 -0.0358  0.2825 -0.3824
 6670W        W 6670   6.102   1.921   0.514 -0.0489  0.0505  0.0530
 6671W        W 6671   7.506   7.983   3.040 -0.0120 -0.0425 -0.0852
 6672W        W 6672   6.583   1.789   0.321 -0.0488  0.0176 -0.2320
 6673W        W 6673   1.088   6.300   5.532  0.0153 -0.3063  0.0357
 6674W        W 6674   0.256   3.696   4.159  0.0426  0.0489  0.0179
 6675W        W 6675   8.087   5.519  10.010  0.0742  0.1087 -0.2997
 6676W        W 6676   1.162   6.876   3.359 -0.0300 -0.2465 -0.2174
 6677W        W 6677   2.536   7.857  10.033  0.0513 -0.1176  0.3290
 6678W        W 6678   6.781   3.908   1.975 -0.1055  0.1896 -0.0516
 6679W        W 6679   7.209   3.788   5.709  0.1841 -0.0783  0.1464
 6680W        W 6680   6.432   9.757   0.137 -0.2038  0.1453 -0.0198
 6681W        W 6681   0.759   9.446   0.757 -0.1362 -0.0501 -0.3058
 6682W        W 6682   6.944   7.436   2.965 -0.4011  0.0103 -0.0565
 6683W        W 6683   9.939   4.291   6.695 -0.0200 -0.2215  0.0241
 6684W        W 6684   4.077   0.613   6.221 -0.0729  0.2795  0.1947
 6685W        W 6685   5.769   8.856   5.908  0.1412  0.1546  0.0950
 6686W        W 6686   7.133   1.124   0.276 -0.0784 -0.4099  0.1217
 6687W        W 6687   3.219   5.224   8.119  0.1464  0.0807 -0.3829
 6688W        W 6688   1.300   7.430   7.126 -0.1806  0.0748  0.0536
 6689W        W 6689   1.480   4.094   5.480 -0.0078  0.0419  0.0934
 6690W        W 6690   6.398   2.365   0.554  0.0370 -0.2335 -0.1146
 6691W        W 6691   6.948   3.979   6.501  0.0055 -0.0627 -0.0657
 6692W        W 6692   1.111   1.390   1.846  0.3005  0.2456  0.0427
 6693W        W 6693   8.486   5.846   2.978  0.1485  0.2279 -0.1430
 6694W        W 6694   6.750   9.186   3.297 -0.1163 -0.1787  0.0906
 6695W        W 6695   8.487   0.724   5.499 -0.4323 -0.1159  0.1759
 6696W        W 6696   0.550   7.923   4.226  0.1157 -0.1387  0.0422
 6697W        W 6697   8.642   8.587   8.642 -0.2741  0.0517 -0.0063
 6698W        W 6698   7.275   0.520   8.403  0.2741  0.2471 -0.0566
 6699W        W 6699   0.271   6.002   8.312  0.0584  0.1745 -0.3234
 6700W        W 6700   6.139   5.666   4.380  0.0164  0.1536 -0.0461
 6701W        W 6701   5.791   9.860   9.667  0.2375  0.2274 -0.1361
 6702W        W 6702   9.740   1.406   6.607  0.1035  0.2023 -0.2573
 6703W        W 6703   3.500   2.831   7.976  0.3706  0.1544 -0.1446
 6704W        W 6704   8.166   6.122   4.026  0.1779 -0.0425 -0.3026
 6705W        W 6705   7.758   7.910   0.690  0.0647 -0.2187 -0.2010
 6706W        W 6706   2.276   4.233   9.232 -0.0006 -0.0034 -0.0679
 6707W        W 6707   8.089   1.079   1.045 -0.0560 -0.1271  0.2380
 6708W        W 6708   4.045   4.056   1.319 -0.0143 -0.1023  0.2873
 6709W        W 6709   7.183   0.174   2.313  0.4155  0.0502  0.0420
 6710W        W 6710   1.127   9.365   4.475  0.1376  0.0243 -0.2601
 6711W        W 6711   3.690   8.511   2.198  0.0836  0.0102  0.1332
 6712W        W 6712   7.074   8.605   7.235  0.0885  0.2691  0.1192
 6713W        W 6713   9.956   4.948   0.413  0.1421  0.0215  0.0390
 6714W        W 6714   9.829   7.706   8.468 -0.4110  0.0883 -0.0454
 6715W        W 6715   5.522   9.696   0.665 -0.0256 -0.0185 -0.0184
 6716W        W 6716   4.709   1.149   9.993  0.1469 -0.1406 -0.0871
 6717W        W 6717   0.103  10.271   5.946 -0.0086  0.3148  0.1319
 6718W        W 6718   8.713   5.574   6.257 -0.1500 -0.2052  0.2436
 6719W        W 6719  10.119   9.210   1.157 -0.2407  0.2848  0.0761
 6720W        W 6720   7.922   8.616   6.184  0.1586  0.0215  0.1499
 6721W        W 6721   9.692   2.923   6.311  0.1175  0.2577  0.1465
 6722W        W 6722   1.348   4.794   5.315  0.3324  0.0290  0.0466
 6723W        W 6723   7.648   3.763   8.560 -0.0441 -0.4611  0.3053
 6724W        W 6724   0.866   1.703   3.325 -0.0848 -0.0807 -0.1822
 6725W        W 6725  10.059   4.844   4.548 -0.3398 -0.1192  0.2470
 6726W        W 6726   7.353   2.144   8.752  0.0713  0.2362 -0.0169
 6727W        W 6727   8.865   3.565   3.953 -0.0259  0.2169  0.2296
 6728W        W 6728   0.490   6.704   2.260  0.1271 -0.1222  0.4415
 6729W        W 6729   1.881   6.030   0.917  0.1390  0.1837 -0.0414
 6730W        W 6730   6.978   6.282   3.876  0.2843 -0.3590  0.0436
 6731W        W 6731   3.259   5.676   4.763 -0.0573  0.0496  0.1609
 6732W        W 6732   2.052   8.625   5.736  0.2444 -0.0470 -0.1881
 6733W        W 6733   0.643   2.583   8.996  0.2289  0.1248  0.1464
 6734W        W 6734   1.462   6.535   1.632  0.0829  0.0145 -0.0276
 6735W        W 6735   6.686   5.472   9.579  0.0585  0.0374 -0.0182
 6736W        W 6736   6.863   6.880   5.116 -0.1056  0.1512 -0.1082
 6737W        W 6737   2.913   6.029   4.615 -0.0554  0.1145 -0.1919
 6738W        W 6738   7.700   3.211   1.274  0.1668 -0.1861 -0.2839
 6739W        W 6739   8.974   0.617   5.052 -0.0454 -0.1039  0.2122
 6740W        W 6740   0.800   9.872   1.683 -0.0668 -0.1003 -0.2517
 6741W        W 6741   2.426   7.053   0.327 -0.1092  0.0092  0.1475
 6742W        W 6742   4.920   7.809   9.514  0.0896 -0.1628 -0.2873
 6743W        W 6743   0.934   7.592   1.163 -0.2737 -0.1347  0.0566
 6744W        W 6744   3.278   6.673   9.971  0.2417  0.1892  0.1719
 6745W        W 6745   3.472   9.048   5.418  0.1067 -0.2101  0.2613
 6746W        W 6746   7.764   1.007   0.101  0.0366 -0.1325 -0.0464
 6747W        W 6747  10.259   7.780   5.034 -0.0873 -0.0308  0.0964
 6748W        W 6748   5.913   0.022   4.729 -0.0729 -0.1363 -0.2287
 6749W        W 6749   1.783   8.895   2.800 -0.0562 -0.2680 -0.0885
 6750W        W 6750   9.085   8.482   8.820  0.0502  0.0305  0.1498
 6751W        W 6751   7.231   0.420   6.668  0.1772  0.0880 -0.0560
 6752W        W 6752   8.241   9.689   7.951 -0.1877  0.3310  0.2824
 6753W        W 6753   7.063   7.827   6.413 -0.2130 -0.0507  0.1111
 6754W        W 6754   5.221   8.529   7.812 -0.1609 -0.2526  0.2089
 6755W        W 6755   2.023   0.023   7.891  0.3443 -0.0604 -0.1027
 6756W        W 6756   1.753   2.866   6.107  0.1859  0.0437  0.0424
 6757W        W 6757   8.567   4.176   7.468  0.1678 -0.3265  0.1859
 6758W        W 6758   5.226   4.233   0.956  0.1027  0.1064  0.0504
 6759W        W 6759   8.888   1.156   7.801 -0.0200  0.1172  0.0082
 6760W        W 6760   2.149   7.324   2.650  0.1300 -0.0086  0.1185
 6761W        W 6761   8.667   1.002   5.859  0.0346  0.0350  0.1682
 6762W        W 6762   6.918   4.040   9.903  0.0728 -0.1830  0.1879
 6763W        W 6763   1.687   3.565   2.630 -0.1064  0.2817 -0.0943
 6764W        W 6764   5.456   0.651   1.889  0.0164 -0.2705 -0.0645
 6765W        W 6765   2.489   4.591  10.161  0.0712 -0.0252 -0.1961
 6766W        W 6766   0.595   3.659   0.673  0.0078  0.3254 -0.1856
 6767W        W 6767   5.798   3.303   6.912 -0.0667  0.2089 -0.0144
 6768W        W 6768   5.189   5.678   4.609  0.1324  0.1952  0.0530
 6769W        W 6769   7.760   1.557   5.846  0.0151 -0.1954  0.3081
 6770W        W 6770   4.618   4.744   3.791 -0.0901 -0.0465  0.0356
 6771W        W 6771   0.530   1.059   3.856 -0.2318  0.3589  0.3132
 6772W        W 6772   0.824   1.792   3.793 -0.1931  0.0054  0.0533
 6773W        W 6773   7.398   3.732   7.890  0.1102  0.2127  0.1429
 6774W        W 6774   3.176   4.500   1.098 -0.1073  0.1561 -0.0134
 6775W        W 6775   7.689   8.379   8.702 -0.0885 -0.0073  0.0940
 6776W        W 6776   5.919   7.804   3.039 -0.0208  0.3445 -0.1764
 6777W        W 6777   1.656   5.553   7.335  0.1976 -0.1426 -0.3405
 6778W        W 6778   7.826   8.893   8.764  0.0856 -0.0464 -0.1482
 6779W        W 6779   7.299   8.653   6.205 -0.0528  0.0763  0.0094
 6780W        W 6780   4.475   6.603   5.274 -0.1575  0.0063  0.0260
 6781W        W 6781   0.103   3.700   9.571 -0.1416 -0.3325 -0.0544
 6782W        W 6782   4.725   9.167   9.146  0.3588  0.0111 -0.0061
 6783W        W 6783   0.607   6.944   7.232  0.1411 -0.1225  0.1564
 6784W        W 6784   6.485   0.410   7.459  0.1632  0.2475 -0.1626
 6785W        W 6785   6.189   2.212   0.098 -0.2997  0.0816 -0.0231
 6786W        W 6786   0.372   7.385   7.616  0.0551 -0.1005  0.1093
 6787W        W 6787   5.244   1.354   5.821 -0.2322  0.0890  0.1674
 6788W        W 6788   3.952   0.432   0.917 -0.0621  0.1789  0.0641
 6789W        W 6789   8.890   1.793   6.669 -0.0879  0.0431  0.1538
 6790W        W 6790   1.450   5.579   0.295  0.0076  0.0075 -0.0159
 6791W        W 6791   9.220   5.427   0.744  0.1726 -0.0160 -0.2241
 6792W        W 6792   1.926   3.588   2.180  0.0272  0.1005  0.2199
 6793W        W 6793   2.342   4.576   5.521 -0.0267 -0.0370  0.1336
 6794W        W 6794   6.045   5.594   6.231  0.1402 -0.4932 -0.3360
 6795W        W 6795   1.899   6.881   4.381 -0.2248 -0.1299  0.1636
 6796W        W 6796   5.099   1.788   0.870  0.1481 -0.1071 -0.0514
 6797W        W 6797   5.394   5.794  10.092  0.2195 -0.3852  0.1224
 6798W        W 6798   1.199   7.335   9.563 -0.2617 -0.3297  0.3377
 6799W        W 6799   6.228   5.155   6.084 -0.1667  0.0381 -0.2021
 6800W        W 6800   2.680   0.861   4.318  0.0705 -0.1327  0.4993
 6801W        W 6801   3.278   6.632   5.315 -0.3868  0.1664  0.0376
 6802W        W 6802   0.745   5.156   5.679  0.0690 -0.1771  0.1692
 6803W        W 6803   6.231   0.100   8.652 -0.0602 -0.2002 -0.1608
 6804W        W 6804   6.971   0.611   4.208 -0.3284  0.0481 -0.1722
 6805W        W 6805   8.374   8.370   0.993 -0.1436 -0.1523 -0.1615
 6806W        W 6806   6.027   3.495   9.108  0.0484  0.1943 -0.0018
 6807W        W 6807   4.887   6.980   1.507  0.1198 -0.1164  0.3050
 6808W        W 6808   5.690   2.478   9.481  0.1243  0.0063  0.2625
 6809W        W 6809   1.413   8.625   0.103  0.1752 -0.0547  0.1066
 6810W        W 6810   4.627   3.786   4.515  0.1246  0.2852 -0.0172
 6811W        W 6811   9.339   5.405   2.537 -0.3309 -0.0553 -0.1307
 6812W        W 6812   5.208   6.665   2.507  0.0966  0.1197  0.0177
 6813W        W 6813   3.406   2.549   9.833  0.1255 -0.0165  0.4382
 6814W        W 6814   2.139   2.796  10.235  0.0953 -0.1731 -0.1628
 6815W        W 6815   4.872  10.200   3.209 -0.1317  0.0517  0.0680
 6816W        W 6816   5.519   1.262   0.720 -0.2873  0.0856  0.1118
 6817W        W 6817   2.349   3.372   6.453  0.1423 -0.0735  0.0235
 6818W        W 6818   1.351   1.299   7.910  0.2105 -0.2049  0.1900
 6819W        W 6819   5.641   1.775   2.583 -0.0927 -0.0878 -0.0451
 6820W        W 6820   8.680   5.273   2.909 -0.1644  0.1615 -0.1816
 6821W        W 6821   6.628   4.065   0.710 -0.1352  0.0746 -0.0837
 6822W        W 6822   9.372   4.013   4.429  0.3442  0.1479 -0.2289
 6823W        W 6823   6.013   3.345   5.409 -0.1081  0.0491 -0.1894
 6824W        W 6824   5.163   1.245   2.960 -0.0144  0.0894 -0.0706
 6825W        W 6825   1.200   3.024   0.440 -0.1717  0.0436 -0.0026
 6826W        W 6826   8.601   0.929   4.885  0.0472 -0.2050  0.1969
 6827W        W 6827   2.714   3.543   2.645 -0.0422  0.0170  0.0035
 6828W        W 6828   4.194   3.186   5.064 -0.2114 -0.2133 -0.0274
 6829W        W 6829   9.435   8.586   2.408  0.2189  0.0999  0.0310
 6830W        W 6830   4.481   4.127   1.673  0.0939 -0.3355 -0.1432
 6831W        W 6831   2.102   6.956   1.698 -0.3994 -0.1050  0.1317
 6832W        W 6832   5.510   3.932   2.618 -0.0330  0.2447  0.1257
 6833W        W 6833  10.142   6.548   7.400 -0.1088 -0.2565  0.0310
 6834W        W 6834   8.110  10.205   8.072  0.3847 -0.2463 -0.2566
 6835W        W 6835   6.472   3.476   9.623  0.1498  0.2654 -0.0697
 6836W        W 6836   7.064   0.139   7.492 -0.0914  0.0706  0.1703
 6837W        W 6837   7.880   9.785   0.885  0.1218  0.2494 -0.2387
 6838W        W 6838   1.083   5.398   2.228 -0.1127 -0.0756 -0.0122
 6839W        W 6839   0.702   6.217   0.551 -0.0610 -0.0419  0.2281
 6840W        W 6840   7.496   3.982   3.763  0.0243 -0.1180 -0.3860
 6841W        W 6841   0.569   0.397   7.648  0.4165  0.1420 -0.0673
 6842W        W 6842   8.420   6.409   6.194  0.0355  0.1206 -0.4527
 6843W        W 6843   8.525   3.778   2.208 -0.2481 -0.0567 -0.3143
 6844W        W 6844   5.449   1.374   5.256  0.4101 -0.2683  0.0935
 6845W        W 6845   0.682   4.805   3.655 -0.2259 -0.0900 -0.1793
 6846W        W 6846   2.002   4.565   8.723  0.0087 -0.0364  0.2351
 6847W        W 6847   7.071   4.284   0.560 -0.0271  0.1795  0.0210
 6848W        W 6848   0.141   1.677   0.271 -0.4497 -0.0369 -0.0121
 6849W        W 6849   5.000   7.122   7.603  0.0390 -0.0866 -0.0442
 6850W        W 6850   6.734   9.901   1.829 -0.0180 -0.2988 -0.2592
 6851W        W 6851   6.800   4.530   3.710  0.2323  0.1211  0.0739
 6852W        W 6852   9.133   4.565   0.331 -0.2200 -0.2789 -0.0423
 6853W        W 6853   1.478   4.698   4.266  0.0695  0.2504  0.1447
 6854W        W 6854   8.603   3.287   2.025 -0.0969 -0.1109  0.1089
 6855W        W 6855  10.235   5.065   3.629 -0.1117 -0.4075  0.1136
 6856W        W 6856   7.228   4.193   0.030 -0.0999  0.0034  0.3376
 6857W        W 6857   9.542   4.647   9.725  0.2428  0.1957 -0.3281
 6858W        W 6858   4.064   1.370   7.244  0.1208 -0.2574 -0.1599
 6859W        W 6859   6.602   8.374   8.453  0.2936 -0.0212  0.2011
 6860W        W 6860   3.039   7.992   8.956  0.2675  0.1692 -0.1410
 6861W        W 6861   5.181   6.643   0.054  0.0431  0.1817  0.1877
 6862W        W 6862   7.200   1.003   8.276  0.4636  0.4394  0.1538
 6863W        W 6863   9.775   6.089   2.437  0.0624 -0.1021  0.2064
 6864W        W 6864   8.299   1.799   3.807 -0.3050  0.0771 -0.0293
 6865W        W 6865   3.133   8.959   7.655  0.0262 -0.1411  0.1394
 6866W        W 6866   9.463  10.247   2.581 -0.2914  0.0573 -0.1578
 6867W        W 6867   1.366   9.193   7.717 -0.0198  0.0302 -0.1142
 6868W        W 6868   6.519   2.180   2.309 -0.2824 -0.0711  0.2875
 6869W        W 6869   7.781   2.693   5.137  0.1108  0.1542 -0.0876
 6870W        W 6870   7.414   9.165   8.495 -0.1648 -0.0283  0.2513
 6871W        W 6871   7.596   0.424   3.450  0.0586  0.1529 -0.3921
 6872W        W 6872   5.753   3.868   7.300  0.1148 -0.0351 -0.4074
 6873W        W 6873   7.816   9.478   7.764 -0.1291  0.0857  0.1617
 6874W        W 6874  10.046   5.454   9.799 -0.4511 -0.1062 -0.4548
 6875W        W 6875   4.267   7.763   6.802 -0.1529  0.1558 -0.2756
 6876W        W 6876   0.343   1.837   7.946 -0.0959  0.2309 -0.0858
 6877W        W 6877   1.292   8.479   1.554 -0.1096 -0.1222  0.0199
 6878W        W 6878   3.580   3.892   2.682 -0.1484  0.0557 -0.0523
 6879W        W 6879   7.513   9.626   7.409  0.1194 -0.0616  0.1155
 6880W        W 6880   9.642   2.819   4.675 -0.0455 -0.2579 -0.0161
 6881W        W 6881   9.266   2.815   3.435  0.2121 -0.0007  0.2114
 6882W        W 6882   6.385   2.333   1.074 -0.0560  0.1842 -0.0617
 6883W        W 6883   9.775   2.986   9.797 -0.3324  0.1897 -0.0054
 6884W        W 6884   0.495   4.605   4.075  0.1640  0.1605  0.2058
 6885W        W 6885   3.911   5.505   6.682  0.1575 -0.0506 -0.1774
 6886W        W 6886   0.398   0.424   6.121  0.3431  0.0018 -0.1460
 6887W        W 6887   3.565   9.935   0.542 -0.0710  0.0761 -0.1362
 6888W        W 6888   7.773   6.976   3.880  0.1472  0.0651 -0.1842
 6889W        W 6889   6.383   8.804   7.784 -0.0224 -0.2820  0.0735
 6890W        W 6890   4.664   2.831   2.845  0.0607  0.1598 -0.3421
 6891W        W 6891   6.092   3.424   8.606  0.1375 -0.3580  0.1427
 6892W        W 6892   5.476   1.929   1.752  0.1114 -0.0486  0.1299
 6893W        W 6893   0.605   2.754   2.260 -0.1591  0.0983 -0.0028
 6894W        W 6894   7.482   6.357   9.043 -0.1032 -0.1649  0.3216
 6895W        W 6895   1.597   3.539   7.786 -0.2025  0.0454 -0.2397
 6896W        W 6896   7.901   0.691   4.838  0.0256 -0.1976 -0.2583
 6897W        W 6897   9.902   0.326   7.196  0.1391  0.2417  0.1006
 6898W        W 6898   1.660   7.352   4.231  0.0048  0.1556 -0.0471
 6899W        W 6899   3.151   1.553   0.715  0.0989 -0.2829 -0.1100
 6900W        W 6900   3.236   1.948   8.062  0.1073  0.0987  0.0364
 6901W        W 6901   1.447   3.809   5.928 -0.0456  0.1245 -0.2357
 6902W        W 6902   5.359   0.485   6.811  0.0204 -0.0884  0.3412
 6903W        W 6903   0.880   5.562   1.816 -0.2452  0.1531  0.0163
 6904W        W 6904   2.353   0.585   7.341  0.2992  0.2027  0.1392
 6905W        W 6905   5.215   5.405   4.131  0.0070  0.1629 -0.0020
 6906W        W 6906   2.790   8.460   8.720  0.0525 -0.0549 -0.3316
 6907W        W 6907   5.157   9.725   5.231 -0.1224  0.2785  0.1899
 6908W        W 6908   8.474   6.050   3.432  0.1578  0.1430 -0.0158
 6909W        W 6909   1.259   0.862   8.272 -0.0011 -0.2148  0.1543
 6910W        W 6910   6.165   2.178   9.437  0.0524  0.1578  0.0709
 6911W        W 6911   6.529   4.027   1.593 -0.0287 -0.0857 -0.0469
 6912W        W 6912   1.930   8.858   0.133 -0.1595 -0.3905  0.1324
 6913W        W 6913   1.145   1.448   2.881 -0.0432  0.0835 -0.2562
 6914W        W 6914   4.282   3.164   0.904  0.1404  0.0071  0.1635
 6915W        W 6915   8.591   1.234   5.269 -0.2933  0.0240 -0.3678
 6916W        W 6916   0.851   7.427   8.831 -0.0721  0.0900  0.1565
 6917W        W 6917   9.979   8.413   3.920 -0.2351 -0.0379  0.1913
 6918W        W 6918   4.360   6.608   1.119 -0.0546  0.0638  0.1653
 6919W        W 6919   7.680   8.357   1.819 -0.2012  0.0475 -0.1851
 6920W        W 6920   0.667   5.310   4.081 -0.1319 -0.2467 -0.1738
 6921W        W 6921  10.103   4.550  10.009  0.0111 -0.0214 -0.2997
 6922W        W 6922   9.601   1.555   6.037  0.1733  0.1351 -0.1339
 6923W        W 6923   6.984   8.550   9.057 -0.3285  0.2695  0.0983
 6924W        W 6924   0.344   7.937   9.332 -0.0203  0.2784  0.1157
 6925W        W 6925   7.134   7.327   7.801 -0.1983  0.1521  0.0853
 6926W        W 6926   3.731   0.715   2.742 -0.1673 -0.0903  0.1715
 6927W        W 6927   0.198   9.889   0.682  0.1406 -0.2249 -0.0696
 6928W        W 6928   0.689   8.626   4.911 -0.1928  0.0935  0.0654
 6929W        W 6929   3.168   8.321   5.887 -0.1839 -0.1156  0.0698
 6930W        W 6930   9.221   5.516   3.773  0.0025 -0.0313  0.0503
 6931W        W 6931   8.148   3.113   9.447  0.0275  0.0631 -0.1574
 6932W        W 6932   4.127   5.745   5.197  0.1044 -0.4040  0.3586
 6933W        W 6933   3.685   9.128   6.808 -0.1735  0.0090 -0.1994
 6934W        W 6934   9.532   9.868   2.906 -0.2009  0.0401 -0.1418
 6935W        W 6935   8.925   9.176   5.350  0.2801 -0.0771  0.1394
 6936W        W 6936   6.977  10.236   6.893 -0.0200  0.2379 -0.0754
 6937W        W 6937   1.630   6.847   3.104  0.1144 -0.0936  0.2142
 6938W        W 6938   2.012   2.458   9.623 -0.0190  0.3519  0.0582
 6939W        W 6939   5.887   4.439   1.774 -0.2286 -0.1615  0.2162
 6940W        W 6940   5.261   9.069   9.287 -0.0672  0.1312 -0.0468
 6941W        W 6941   8.884   5.967   9.363 -0.1709 -0.2489 -0.1043
 6942W        W 6942   4.810   4.882   1.150  0.0682  0.0113  0.0221
 6943W        W 6943   8.259   6.990   7.275  0.4374 -0.0637 -0.3379
 6944W        W 6944   8.295   9.698   5.717 -0.1074  0.4762  0.0123
 6945W        W 6945   6.748   4.876   1.312 -0.0005 -0.0544  0.1461
 6946W        W 6946   6.326   2.532   7.701  0.0943 -0.0383 -0.1810
 6947W        W 6947   2.171   1.468   0.547 -0.2203  0.1087  0.0707
 6948W        W 6948   7.080   8.288   3.125 -0.0836 -0.1551  0.1011
 6949W        W 6949   3.853   0.587   3.584  0.0448  0.0272  0.0676
 6950W        W 6950   1.568   2.523   8.880  0.1409 -0.0007 -0.0511
 6951W        W 6951   4.542   7.108   8.962 -0.2455  0.1307  0.0015
 6952W        W 6952   7.443   8.222   3.458 -0.3411 -0.1305 -0.0185
 6953W        W 6953   5.982   4.227   9.705 -0.2428  0.2970  0.0358
 6954W        W 6954   6.786   3.230   1.150  0.0077  0.0075  0.0694
 6955W        W 6955   1.638   8.305   9.564  0.1502  0.0505 -0.1911
 6956W        W 6956   1.434   8.888   3.625 -0.1342 -0.2722  0.1093
 6957W        W 6957   8.711   7.371   9.376  0.0439  0.1495  0.2476
 6958W        W 6958   3.462   7.839   9.122  0.4308  0.3811 -0.0231
 6959W        W 6959   4.631   4.920   8.635 -0.3219  0.2180  0.1164
 6960W        W 6960   6.698   2.262   0.209  0.0619 -0.0288 -0.0893
 6961W        W 6961   1.762  10.281   0.289 -0.0819 -0.1067  0.1128
 6962W        W 6962   6.181   0.279   1.475 -0.1896  0.0358 -0.0331
 6963W        W 6963   1.451   2.544   0.217 -0.1743  0.1681  0.0586
 6964W        W 6964   0.625   1.495  10.305  0.1258  0.0567 -0.0301
 6965W        W 6965   2.394   9.867   9.451  0.0594 -0.0830  0.1514
 6966W        W 6966   2.560  10.253   6.580  0.0505  0.0209  0.1875
 6967W        W 6967   9.065   1.775   5.706 -0.2019 -0.4041 -0.0558
 6968W        W 6968   6.870   8.286   0.828 -0.0917 -0.4268  0.0634
 6969W        W 6969   6.090   0.090   0.551 -0.0585  0.0893 -0.0732
 6970W        W 6970   7.406   8.422   0.947  0.1181 -0.2625  0.2741
 6971W        W 6971   5.871   9.726   1.395  0.2218  0.2031 -0.1989
 6972W        W 6972   4.379   2.455   9.285 -0.1847 -0.1631 -0.0313
 6973W        W 6973   0.529   4.881   5.007  0.0510  0.0498  0.2943
 6974W        W 6974   5.066   4.573   3.408  0.1020  0.2439 -0.0585
 6975W        W 6975   2.966   5.988   0.266 -0.4054  0.2716  0.1330
 6976W        W 6976   9.936   8.624   1.647 -0.1378 -0.1432 -0.1989
 6977W        W 6977   7.859   6.153   7.787  0.0614 -0.1528 -0.1624
 6978W        W 6978   5.050   4.622   9.641 -0.1095  0.2166  0.0711
 6979W        W 6979   8.800   7.749   6.770 -0.4082  0.0912  0.0278
 6980W        W 6980   1.922   5.820   6.057 -0.0883 -0.1453  0.0978
 6981W        W 6981   3.669   1.415   1.563  0.1398  0.0502  0.1157
 6982W        W 6982   1.396   1.376   9.441  0.0252  0.4239 -0.0893
 6983W        W 6983   6.593   0.362   5.325  0.0226 -0.0235  0.2591
 6984W        W 6984   3.579   2.730   8.625 -0.1114 -0.0187 -0.1436
 6985W        W 6985   5.163   3.569   9.718 -0.1386 -0.0557  0.3232
 6986W        W 6986   8.316   7.465   1.257  0.1436  0.2764 -0.3066
 6987W        W 6987   2.804   1.568   9.899  0.1194  0.1895  0.1088
 6988W        W 6988  10.269   0.004   3.173  0.1261 -0.1726  0.3150
 6989W        W 6989   5.098   8.465   2.915  0.4328  0.1894 -0.1166
 6990W        W 6990   2.725   6.176   1.520  0.2909 -0.1879 -0.1593
 6991W        W 6991  10.100   8.112   2.987  0.1191  0.1241  0.2225
 6992W        W 6992   3.804   9.533   7.802 -0.3209  0.4146 -0.0557
 6993W        W 6993   1.722   6.021   9.874 -0.2977  0.1446 -0.0196
 6994W        W 6994   5.472   5.317   0.135 -0.0894  0.3477 -0.1154
 6995W        W 6995   9.698   7.926   7.986  0.1210 -0.1193 -0.2423
 6996W        W 6996   0.794   7.657   4.668 -0.3341 -0.0363 -0.1557
 6997W        W 6997   9.649   5.284   6.131  0.3414  0.0146  0.2283
 6998W        W 6998   7.434   4.390   9.440  0.1307 -0.1114 -0.1976
 6999W        W 6999   0.567   3.178   5.451 -0.2191  0.0316  0.4572
 7000W        W 7000   4.535   8.661   3.058 -0.2157  0.0584  0.0878
 7001W        W 7001   6.394   3.900   2.497  0.2985 -0.0815  0.0595
 7002W        W 7002   4.780   9.341   2.077  0.3672  0.4397 -0.0897
 7003W        W 7003   6.948   7.130   4.103  0.1088  0.0878  0.1336
 7004W        W 7004   9.012   9.618   6.389 -0.0914  0.2229  0.2398
 7005W        W 7005   7.735   7.078   3.043 -0.0603 -0.4145 -0.0430
 7006W        W 7006   7.814   2.908   4.693 -0.0860  0.0106 -0.1216
 7007W        W 7007   4.188   2.228   7.770 -0.0674  0.0285 -0.1381
 7008W        W 7008   7.037   1.075   5.130 -0.0041 -0.0906  0.0422
 7009W        W 7009   1.463   3.792   6.463  0.1184 -0.0376 -0.4356
 7010W        W 7010   2.151   0.148   0.565 -0.0157 -0.4702 -0.2296
 7011W        W 7011   9.629   6.471   9.584 -0.0793  0.1067 -0.0185
 7012W        W 7012   1.244   4.676   1.424 -0.0986 -0.1153 -0.2662
 7013W        W 7013   8.483   6.465   5.708  0.1493  0.0584  0.0266
 7014W        W 7014   7.384   2.209   7.689 -0.0499 -0.5298 -0.1402
 7015W        W 7015  10.300   6.296   9.162 -0.0517 -0.1097 -0.4073
 7016W        W 7016   6.655   3.166   4.333  0.3684  0.1141  0.0604
 7017W        W 7017   0.151   1.570   0.745 -0.2198  0.0562 -0.2808
 7018W        W 7018   7.402   3.381   3.269 -0.0330  0.1108  0.1848
 7019W        W 7019   2.442   7.385   3.158  0.2101 -0.0784  0.0343
 7020W        W 7020   2.811   8.720  10.197 -0.2333  0.0999  0.2566
 7021W        W 7021   2.153   2.659   1.772  0.0996  0.0561 -0.0943
 7022W        W 7022   0.113   7.974   0.812 -0.1138 -0.0376  0.0847
 7023W        W 7023   8.208   8.725   4.323  0.1033  0.0662 -0.1072
 7024W        W 7024   7.107   0.848   1.183  0.3642 -0.0369  0.0708
 7025W        W 7025   2.499   0.032   1.198  0.5948  0.1717 -0.3372
 7026W        W 7026   7.428   5.515   9.165 -0.1440 -0.2672  0.0125
 7027W        W 7027   6.759   2.516   2.981  0.1655  0.0908 -0.5001
 7028W        W 7028   3.479   4.971   3.637 -0.1485 -0.1086 -0.0737
 7029W        W 7029   5.164   3.716   5.520 -0.1765 -0.1008 -0.3856
 7030W        W 7030   1.934   4.414   4.102 -0.0137  0.0511  0.0445
 7031W        W 7031   3.118   6.443   4.870 -0.0666 -0.0507  0.2501
 7032W        W 7032   7.686   3.682   7.293 -0.1731  0.2979  0.0652
 7033W        W 7033   1.663   0.757   0.094 -0.0864 -0.0609 -0.4467
 7034W        W 7034   8.464   8.170   7.544  0.4846 -0.1518  0.1264
 7035W        W 7035   8.348   2.952   5.000 -0.0394 -0.4943  0.1408
 7036W        W 7036   2.057   3.099   7.752  0.3854  0.1142  0.2675
 7037W        W 7037   6.455   7.982   7.157 -0.1340 -0.2293 -0.0860
 7038W        W 7038   4.562   9.317   8.258  0.0273  0.2345  0.2740
 7039W        W 7039   8.918   7.187   7.661 -0.2527 -0.1895  0.1335
 7040W        W 7040   2.039   3.500   5.489 -0.0205  0.0608  0.0038
 7041W        W 7041   4.438   9.466   6.273 -0.2339 -0.2642  0.1147
 7042W        W 7042   2.859   5.935   8.884 -0.1001 -0.3005  0.0048
 7043W        W 7043   7.565   2.883   3.112 -0.0704 -0.0855 -0.0071
 7044W        W 7044   3.132   9.228   4.996 -0.1700 -0.0876 -0.2058
 7045W        W 7045   1.218   2.895   1.422  0.1200 -0.0723  0.3222
 7046W        W 7046   5.775   8.875   2.256  0.1700 -0.1161  0.0573
 7047W        W 7047   4.294   5.364   1.745  0.1085  0.0938 -0.2588
 7048W        W 7048   0.806   1.310   9.419 -0.1116  0.0972  0.1205
 7049W        W 7049   1.666   5.224   8.169  0.0070 -0.0630  0.1592
 7050W        W 7050   8.772   9.722   8.759  0.1319 -0.0619 -0.4281
 7051W        W 7051   2.972   2.621   1.796  0.0666 -0.0160 -0.0566
 7052W        W 7052   9.628   0.504   0.808  0.3694 -0.1140 -0.0368
 7053W        W 7053   0.107   1.662   8.787 -0.1232 -0.0731  0.1349
 7054W        W 7054   3.621   5.808   4.358  0.2336  0.0761  0.3106
 7055W        W 7055   2.935   1.864   1.539  0.0711  0.1075  0.0338
 7056W        W 7056   2.396   8.956   1.998 -0.0732  0.0737  0.4106
 7057W        W 7057   4.527   0.326   4.422 -0.4209  0.1096 -0.1561
 7058W        W 7058   5.625   6.761   8.270 -0.2011 -0.0106  0.2331
 7059W        W 7059  10.128   7.712   8.065  0.0120  0.2660  0.0710
 7060W        W 7060   4.881   9.763   6.202 -0.0920  0.1032 -0.0989
 7061W        W 7061   4.130   9.008   3.800  0.0991  0.0131 -0.2514
 7062W        W 7062   8.033  10.025   5.471 -0.0522  0.1612 -0.1934
 7063W        W 7063   6.493   5.147   4.613 -0.2901  0.0846 -0.0508
 7064W        W 7064   0.329  10.314   7.835  0.0945  0.4051  0.1199
 7065W        W 7065  10.199   0.918   2.843  0.2438 -0.1437  0.0123
 7066W        W 7066   7.669   4.686   3.240 -0.3063 -0.1611  0.1684
 7067W        W 7067   9.384   5.137  10.002  0.0734 -0.0901  0.0574
 7068W        W 7068   9.677   6.897   8.214 -0.3703 -0.0517 -0.1458
 7069W        W 7069   8.955   4.050   5.610 -0.1596 -0.1179  0.3041
 7070W        W 7070   1.492   6.730   0.340 -0.0050  0.0233  0.1862
 7071W        W 7071   3.583   4.877   2.746  0.1614 -0.1119  0.2136
 7072W        W 7072   9.265   3.432   2.794 -0.0711 -0.0570  0.2343
 7073W        W 7073   6.282   0.874   6.629 -0.1661  0.0176  0.3535
 7074W        W 7074   3.282   5.221   9.186  0.0171  0.1116  0.1435
 7075W        W 7075   1.537   6.122   7.879  0.0928 -0.1305 -0.0690
 7076W        W 7076   5.962   3.263   2.126 -0.0711  0.0857  0.0069
 7077W        W 7077   5.204   0.352   1.531 -0.0058 -0.1305  0.1703
 7078W        W 7078   0.834   4.765   5.338  0.0354  0.0641 -0.1595
 7079W        W 7079   9.336   5.496   0.278  0.0304  0.0150  0.0591
 7080W        W 7080   4.958   1.232   1.607  0.3159 -0.1807 -0.1622
 7081W        W 7081   3.172   7.754   4.075 -0.1140  0.0087 -0.1413
 7082W        W 7082   7.861   0.880   4.350 -0.0780 -0.0722 -0.1848
 7083W        W 7083   8.767   2.833   2.165  0.1776  0.1146  0.1235
 7084W        W 7084   7.407   7.831   8.750  0.0159 -0.0578 -0.0748
 7085W        W 7085   7.360   0.630   4.968 -0.4915  0.1859 -0.0865
 7086W        W 7086   2.222   7.705   2.287  0.0281  0.1249 -0.0143
 7087W        W 7087   9.744   1.636   0.817  0.2206  0.0415  0.0546
 7088W        W 7088   4.598   2.887   7.251 -0.1664 -0.0036 -0.0218
 7089W        W 7089   3.428   0.989   8.126  0.0732 -0.2053 -0.1241
 7090W        W 7090   0.035   0.153   9.070  0.1478  0.0936  0.0498
 7091W        W 7091   9.772   5.988   3.052 -0.2533  0.2566  0.0693
 7092W        W 7092   2.244   9.362   2.934 -0.2380  0.0037  0.2666
 7093W        W 7093   9.782   1.221   0.134 -0.1475  0.0263 -0.4936
 7094W        W 7094   9.558   7.804   7.311 -0.0711  0.0561  0.2254
 7095W        W 7095   0.542   3.288   5.946 -0.0755 -0.4613 -0.0824
 7096W        W 7096   7.008   5.419   4.069 -0.1229 -0.2277  0.0375
 7097W        W 7097   5.081   4.431   7.326 -0.0287 -0.1444  0.1682
 7098W        W 7098   9.347   4.994   8.653 -0.0906 -0.0147 -0.3237
 7099W        W 7099   1.135   4.727   9.572  0.3114  0.1972  0.1592
 7100W        W 7100   5.140   8.146   7.498 -0.1214  0.1294 -0.1205
 7101W        W 7101   4.810   3.531   3.528 -0.0181  0.0839  0.0367
 7102W        W 7102   2.087   1.769   9.084  0.0355 -0.1991 -0.0345
 7103W        W 7103   9.268   4.235   1.082  0.1254  0.0614  0.3045
 7104W        W 7104   0.375   5.338   7.022  0.1925 -0.3222 -0.0762
 7105W        W 7105   1.862   3.874   8.554  0.2731 -0.1367  0.2157
 7106W        W 7106   5.859   2.129   4.201  0.3134  0.0101 -0.0422
 7107W        W 7107   4.426   3.733   6.806  0.1128 -0.0278  0.5101
 7108W        W 7108   1.286   4.820   8.062  0.0691 -0.0311 -0.0203
 7109W        W 7109   7.079   7.186   7.277 -0.3181  0.0158 -0.1626
 7110W        W 7110   8.966   7.460   8.075 -0.0893  0.0846 -0.2678
 7111W        W 7111   4.801   0.550   2.860 -0.0294  0.0882  0.2967
 7112W        W 7112   3.733   2.565   5.603  0.1087  0.2909 -0.0732
 7113W        W 7113   2.867   1.195   0.990 -0.2985  0.2262  0.0525
 7114W        W 7114   1.831   7.363   3.046  0.0399 -0.1223 -0.0526
 7115W        W 7115   8.668   0.248   8.891  0.2690  0.0784 -0.0495
 7116W        W 7116   8.144   1.811   1.378  0.3601  0.1613  0.1236
 7117W        W 7117   8.772   3.754  10.244  0.1445 -0.0913 -0.0398
 7118W        W 7118   9.568   9.580   2.442 -0.4317  0.2284 -0.1677
 7119W        W 7119   5.822   6.578   0.650 -0.3184 -0.1717  0.1668
 7120W        W 7120   0.688   3.181   8.064  0.1630 -0.0247  0.0250
 7121W        W 7121   7.293   0.618   9.635 -0.0881  0.1071  0.0296
 7122W        W 7122   7.315   8.987   7.445  0.1678 -0.1075 -0.4948
 7123W        W 7123   4.596   5.716   8.467  0.0718 -0.1143  0.1136
 7124W        W 7124   6.836   9.841   0.404 -0.2748  0.0725  0.0872
 7125W        W 7125   8.140   3.910   2.531 -0.0349 -0.0122  0.1154
 7126W        W 7126   9.009   4.276   6.414  0.0987  0.0939  0.1000
 7127W        W 7127  10.153   4.534   2.934 -0.0172  0.3665  0.0055
 7128W        W 7128   1.341   3.634   2.181 -0.1965  0.0594 -0.1323
 7129W        W 7129   9.214   1.574   6.349  0.2603 -0.1482  0.0074
 7130W        W 7130   2.586   8.162   9.538 -0.1090 -0.0922  0.0473
 7131W        W 7131   2.442   0.639  10.151  0.1183  0.2081 -0.1494
 7132W        W 7132   9.079  10.127   2.305 -0.2313  0.2099 -0.2102
 7133W        W 7133   8.742   4.726   6.903 -0.0882 -0.0564  0.0468
 7134W        W 7134   1.801   0.129  10.147  0.0872  0.3293 -0.0469
 7135W        W 7135   1.973  10.045   4.425 -0.2089 -0.1120  0.0771
 7136W        W 7136   5.477   4.296  10.317  0.3913  0.2679 -0.1165
 7137W        W 7137   2.454   3.606   5.735 -0.1595 -0.1015  0.2182
 7138W        W 7138   3.593   3.660   8.531 -0.0412  0.2576 -0.0604
 7139W        W 7139  10.310   8.921   9.157  0.2185  0.1173 -0.0073
 7140W        W 7140   2.680   1.315   4.915 -0.0905  0.2368 -0.0048
 7141W        W 7141   1.419   5.923   2.864 -0.2958  0.0008  0.1365
 7142W        W 7142   0.902   1.509   6.662  0.1530  0.1269 -0.0322
 7143W        W 7143   4.179   3.982  10.068 -0.1476 -0.0856 -0.1582
 7144W        W 7144   9.144   6.691   2.898 -0.1488  0.1642 -0.0158
 7145W        W 7145   5.728   4.115   2.198  0.1481 -0.2858 -0.0016
 7146W        W 7146   5.245   1.914   6.011  0.0986  0.0886 -0.3255
 7147W        W 7147   7.489  10.145   7.422 -0.5291 -0.1105 -0.0096
 7148W        W 7148   7.718   9.194   9.133 -0.2240  0.5324  0.0217
 7149W        W 7149   3.480   5.464   2.962  0.0070 -0.0424  0.0448
 7150W        W 7150   2.400   3.621   3.832  0.1749  0.0325 -0.3739
 7151W        W 7151   8.007   6.249   5.799 -0.0355  0.0410 -0.2581
 7152W        W 7152  10.031   3.645   4.548 -0.0844  0.2849  0.0361
 7153W        W 7153   1.765   2.982   6.985  0.3325 -0.1108  0.1708
 7154W        W 7154   3.725   6.343   5.217  0.0628 -0.1000 -0.1960
 7155W        W 7155   9.976   3.163   4.336  0.0745 -0.2680  0.1773
 7156W        W 7156   0.158  10.301   1.555  0.2665  0.0275  0.3923
 7157W        W 7157   8.622   4.335   6.110  0.0808  0.0790  0.2207
 7158W        W 7158   8.160   4.791   8.071  0.2006 -0.0127 -0.1972
 7159W        W 7159   2.944   6.971   9.120 -0.1268  0.2707 -0.3866
 7160W        W 7160   6.421   1.595   4.021  0.0402 -0.0148 -0.4016
 7161W        W 7161   9.416   6.502   4.023  0.1896 -0.2388 -0.1418
 7162W        W 7162   1.517   4.115   4.154  0.0025  0.1866 -0.1056
 7163W        W 7163   0.097   7.206   6.897 -0.3229  0.2802 -0.1816
 7164W        W 7164   3.261   3.959   3.494  0.0790  0.2044 -0.1549
 7165W        W 7165   5.991   0.365   9.822 -0.0827 -0.2235 -0.0539
 7166W        W 7166   2.598   1.806   5.822 -0.2412 -0.0873  0.2908
 7167W        W 7167   2.115   8.095   9.790 -0.1800  0.0416  0.0658
 7168W        W 7168   2.045   8.280   6.220  0.1177  0.1731  0.0130
 7169W        W 7169   7.502   8.048   5.438  0.0015 -0.0959  0.1460
 7170W        W 7170   2.045   5.953   4.532  0.0477 -0.2807  0.0889
 7171W        W 7171   1.198   6.868   5.227  0.3480 -0.2342  0.0159
 7172W        W 7172   4.888   3.372   0.744 -0.1570  0.0600  0.0244
 7173W        W 7173   4.333   9.370   8.784 -0.2582 -0.2080  0.0175
 7174W        W 7174   7.348   1.780   5.684 -0.0556 -0.2302 -0.1033
 7175W        W 7175   4.508   1.952   5.106  0.0626  0.1267  0.0804
 7176W        W 7176   0.195   0.927   4.603  0.1293  0.1687 -0.2107
 7177W        W 7177   9.971   8.856   3.696 -0.0890  0.0723  0.0358
 7178W        W 7178   4.926   5.916   9.848 -0.0122 -0.1426  0.1121
 7179W        W 7179   0.360   6.511   5.684 -0.2536 -0.0815 -0.1689
 7180W        W 7180   7.076   0.883  10.101 -0.0407  0.3411 -0.0672
 7181W        W 7181   8.915   7.287   5.511 -0.0130 -0.2720  0.2575
 7182W        W 7182   7.001   1.863   9.764  0.1410  0.0676 -0.0420
 7183W        W 7183   0.020  10.246   2.179  0.2531 -0.2231  0.1537
 7184W        W 7184   6.133   1.377   7.772 -0.0565  0.0515  0.2001
 7185W        W 7185   9.075   9.587   2.502  0.1020 -0.0877  0.2110
 7186W        W 7186   7.243   3.378   5.141 -0.2283 -0.3172  0.1405
 7187W        W 7187   3.915   9.167   3.000  0.0480  0.0011 -0.2685
 7188W        W 7188   5.623   4.708   4.450  0.2394  0.0360 -0.0469
 7189W        W 7189   2.346   1.968   2.763  0.3204  0.0926 -0.3156
 7190W        W 7190   8.334   5.569   6.964 -0.1290 -0.1785 -0.0421
 7191W        W 7191   5.877   0.045   2.568  0.0451 -0.4177 -0.1825
 7192W        W 7192   4.076   3.956   9.152  0.1298 -0.0124 -0.3345
 7193W        W 7193   4.224   7.007   5.518 -0.1550  0.3187  0.2301
 7194W        W 7194   9.601   3.791   1.838  0.3503 -0.3238 -0.1229
 7195W        W 7195   4.431   6.029   7.575  0.1425  0.1599  0.3585
 7196W        W 7196   8.939   6.161   2.712 -0.0894 -0.0559  0.0178
 7197W        W 7197   7.367   8.841   6.956  0.0412  0.0720  0.2054
 7198W        W 7198   2.452   0.156   9.421 -0.1700 -0.0201 -0.0713
 7199W        W 7199   1.213   0.945   9.693  0.2283 -0.3885  0.3450
 7200W        W 7200   5.001   6.205   8.598  0.2624  0.0982 -0.4362
 7201W        W 7201   8.828   5.975   5.727 -0.0448  0.1803  0.3108
 7202W        W 7202   2.377   0.093   2.243 -0.0854  0.0336 -0.0384
 7203W        W 7203   4.809   2.104   9.135 -0.0417  0.0011 -0.0198
 7204W        W 7204   4.159   9.268   2.527 -0.0070  0.1592 -0.1120
 7205W        W 7205  10.129   5.607   0.632  0.0124  0.0769  0.1496
 7206W        W 7206   5.703   6.366   7.925  0.1126  0.0023  0.4598
 7207W        W 7207   9.540   8.231   3.291 -0.1678  0.0781  0.1347
 7208W        W 7208   6.719   2.782   6.515  0.0826  0.1567 -0.0562
 7209W        W 7209   2.851   5.681   6.971 -0.0890  0.1820  0.2147
 7210W        W 7210   2.093   4.789   5.880 -0.1244  0.1040  0.2065
 7211W        W 7211  10.008   5.827   4.407  0.0044  0.1649 -0.2165
 7212W        W 7212   1.018   7.659   3.114  0.2673 -0.1591 -0.1797
 7213W        W 7213   0.088   9.604   9.487  0.1744 -0.1456  0.0126
 7214W        W 7214   0.273   6.276   2.640  0.0779  0.0085  0.0314
 7215W        W 7215   2.629  10.096   2.543 -0.0033  0.3276  0.1487
 7216W        W 7216   5.090   4.210   6.160 -0.1075 -0.0636 -0.4662
 7217W        W 7217   4.144   4.080   4.657 -0.2737 -0.3097  0.1265
 7218W        W 7218   9.385   6.031   4.010  0.0023 -0.1891  0.0944
 7219W        W 7219   3.040   0.038   7.059 -0.2462 -0.0986  0.2188
 7220W        W 7220   5.440   0.876   4.672 -0.1008 -0.1675  0.0871
 7221W        W 7221   9.498   3.440   9.197  0.0190  0.1169  0.0106
 7222W        W 7222   1.225   3.474   9.969 -0.1224  0.1849  0.0227
 7223W        W 7223   2.268   1.851   2.230 -0.1169  0.1164  0.2074
 7224W        W 7224   8.465   1.111   4.032 -0.1821  0.1937  0.2147
 7225W        W 7225   7.044   2.462   4.743 -0.0112  0.1235 -0.0795
 7226W        W 7226   0.673   6.320   4.826 -0.0001 -0.0611  0.1960
 7227W        W 7227   4.250   7.087   9.514 -0.0768 -0.1410 -0.0179
 7228W        W 7228   5.414   5.931   0.313  0.0095  0.0575  0.4050
 7229W        W 7229   2.033   9.167   1.575 -0.1727 -0.0347  0.1149
 7230W        W 7230   9.717   1.724   9.803 -0.0155 -0.0596 -0.0334
 7231W        W 7231   7.538   6.166   5.974 -0.1574 -0.5125 -0.1259
 7232W        W 7232   8.495   8.117   6.360  0.4047 -0.1889  0.0425
 7233W        W 7233   6.231   0.440   9.054  0.2629 -0.1177  0.0021
 7234W        W 7234   6.835   3.772   7.679 -0.0848  0.2933 -0.2914
 7235W        W 7235   1.364   6.704   1.125  0.0046  0.2209  0.0246
 7236W        W 7236   3.872   6.078   8.941  0.2991 -0.0485 -0.1962
 7237W        W 7237   3.964   5.923   7.055  0.0870 -0.0418 -0.1060
 7238W        W 7238   5.782   6.275   2.990  0.1286 -0.1166  0.1798
 7239W        W 7239   0.847   0.729   8.067  0.2112  0.1133  0.2825
 7240W        W 7240   2.689   2.271   7.637 -0.1633  0.1284  0.1826
 7241W        W 7241   2.915   7.000   8.550  0.1408  0.1314  0.0716
 7242W        W 7242   7.676   2.418   6.902 -0.0042 -0.1408 -0.0654
 7243W        W 7243   0.576   5.370  10.215  0.1164 -0.1180 -0.0348
 7244W        W 7244   2.423   7.548   6.918 -0.0653 -0.0055  0.0417
 7245W        W 7245   6.853   1.474   6.141  0.0847 -0.0218  0.1983
 7246W        W 7246   3.366   9.905   1.035  0.4267  0.3612  0.1279
 7247W        W 7247   9.493  10.301   3.905  0.0790  0.1705 -0.0599
 7248W        W 7248   6.356   0.972   7.529  0.6859  0.1973 -0.1717
 7249W        W 7249   4.898   4.752   7.784 -0.2172  0.0702 -0.0651
 7250W        W 7250   2.476   7.593   7.404 -0.0438 -0.0884 -0.1794
 7251W        W 7251   0.808   0.283   2.377 -0.2264 -0.0126  0.0236
 7252W        W 7252   7.690   4.700   0.067  0.0411 -0.0898 -0.1067
 7253W        W 7253   5.335   4.871  10.053 -0.1398 -0.0201  0.0211
 7254W        W 7254   0.030   4.081   8.672 -0.0964  0.0991  0.0111
 7255W        W 7255   5.661   7.355   3.042  0.0065 -0.2088 -0.2560
 7256W        W 7256   3.420   8.206   8.664  0.1130 -0.0636 -0.1488
 7257W        W 7257   2.454   1.329   5.527 -0.1668  0.1149  0.0972
 7258W        W 7258   9.366   9.506  10.189 -0.0010  0.1113  0.0874
 7259W        W 7259   5.500   7.586   2.587  0.1314 -0.2442 -0.0896
 7260W        W 7260   2.169   5.552   2.222  0.0237 -0.0991  0.0946
 7261W        W 7261   0.174   9.475   3.324  0.2001  0.1229 -0.5356
 7262W        W 7262   0.633   9.174   0.281 -0.0113 -0.0533 -0.3616
 7263W        W 7263   9.012   9.476   1.446 -0.2525 -0.0529  0.2869
 7264W        W 7264   8.898   3.883   9.754  0.1117 -0.2287 -0.0470
 7265W        W 7265   3.309   6.959   6.385  0.1456 -0.0565 -0.1216
 7266W        W 7266   7.515   1.556   4.146 -0.1553  0.0281  0.0758
 7267W        W 7267   7.101   7.884   2.803  0.1454  0.0312 -0.1772
 7268W        W 7268   5.463   3.497   8.938  0.2832  0.2879  0.0173
 7269W        W 7269   1.328   3.710   1.617  0.1016 -0.3712 -0.0590
 7270W        W 7270   3.430   3.453   4.319  0.0868 -0.1117 -0.2088
 7271W        W 7271   9.393   3.090   8.410 -0.1668  0.3159 -0.2560
 7272W        W 7272   4.207   5.265   5.441 -0.2287 -0.2304  0.2464
 7273W        W 7273   6.443   8.075   0.538  0.2761 -0.2828  0.0197
 7274W        W 7274   8.912   0.946   1.541 -0.3213 -0.2057 -0.0745
 7275W        W 7275   3.825   0.290   4.964 -0.3822  0.0811 -0.0357
 7276W        W 7276   6.498   1.676   2.511 -0.0352 -0.0955 -0.1725
 7277W        W 7277   3.967   7.240   4.216 -0.2075  0.1064  0.1222
 7278W        W 7278   5.158   1.172   3.779 -0.1971 -0.1694 -0.1873
 7279W        W 7279   6.891   8.791   2.988  0.1621  0.2150 -0.2441
 7280W        W 7280   2.068   7.673  10.111 -0.1459 -0.2384 -0.4091
 7281W        W 7281   1.479   7.462   9.936  0.1217  0.2117 -0.1334
 7282W        W 7282   2.907   5.402   7.422  0.1152  0.2032  0.0842
 7283W        W 7283   7.119   3.372   4.351  0.2594 -0.2798  0.0813
 7284W        W 7284   0.418   1.606   3.511 -0.1810  0.1286  0.1605
 7285W        W 7285   1.530   3.639   9.279  0.1028  0.1945  0.0813
 7286W        W 7286   2.205   2.828   0.654  0.1279  0.0747  0.1602
 7287W        W 7287   2.431   4.179   3.956 -0.3110 -0.0081 -0.2358
 7288W        W 7288   5.248   8.205   0.151  0.2339  0.0653 -0.3372
 7289W        W 7289   5.641   9.336   8.505 -0.0718  0.2539 -0.0647
 7290W        W 7290  10.087   0.097   3.783  0.1223 -0.2438  0.0576
 7291W        W 7291   6.997   2.424   7.359 -0.3175 -0.0016  0.1115
 7292W        W 7292   2.957   3.099   5.686 -0.4232 -0.0465 -0.2656
 7293W        W 7293   5.215   2.106   4.044 -0.2835 -0.1891  0.1362
 7294W        W 7294   3.779   3.452   5.858 -0.0082  0.3125  0.0722
 7295W        W 7295   3.338   0.044   0.271  0.1612 -0.0161 -0.3325
 7296W        W 7296   8.141   7.203   1.839  0.3649  0.0086 -0.0744
 7297W        W 7297   2.327   6.474  10.197 -0.4413  0.3461 -0.0468
 7298W        W 7298   3.595   3.872   0.078  0.3551  0.1939 -0.2806
 7299W        W 7299   2.244   4.678   0.999  0.0730 -0.0554  0.0296
 7300W        W 7300   7.553   4.582   5.800  0.3051 -0.5451 -0.1090
 7301W        W 7301   3.073   8.888   5.681  0.1722  0.0511 -0.0495
 7302W        W 7302   5.984   9.313   4.418  0.1067  0.2247  0.2154
 7303W        W 7303   4.821   9.057   9.615 -0.3645 -0.0429 -0.1028
 7304W        W 7304   6.476   4.744   7.838 -0.0767 -0.1651  0.0621
 7305W        W 7305   2.659   8.644   9.681  0.5470  0.2220 -0.1175
 7306W        W 7306   2.755   0.386   1.459 -0.1296  0.4693 -0.3142
 7307W        W 7307   7.886   5.132   6.030 -0.0205  0.0370 -0.3388
 7308W        W 7308   3.853   9.493   9.046  0.1962  0.0640 -0.1132
 7309W        W 7309   8.473   2.014   2.602 -0.2172 -0.0035  0.0270
 7310W        W 7310   1.836   5.235   7.677 -0.0295  0.0559 -0.1425
 7311W        W 7311   4.188   6.411   7.368 -0.0851  0.0030  0.1587
 7312W        W 7312   3.753   9.043  10.121 -0.0307 -0.0349  0.3110
 7313W        W 7313   3.906   8.696   0.222 -0.2276 -0.1301 -0.1617
 7314W        W 7314   1.197   1.174   1.263  0.0210 -0.2675 -0.0338
 7315W        W 7315   1.810   5.677   3.693 -0.4386  0.0093  0.4610
 7316W        W 7316   4.575   4.908   0.662 -0.1064 -0.1322 -0.0863
 7317W        W 7317   0.168   0.971   6.720 -0.1465 -0.2120  0.1447
 7318W        W 7318   7.583   5.036   1.184  0.2189 -0.1192  0.3930
 7319W        W 7319   0.520   9.883   3.788 -0.1639 -0.0622  0.1901
 7320W        W 7320   0.926   0.767   7.191  0.0281 -0.0556  0.2332
 7321W        W 7321   5.617   3.554   6.320  0.0002 -0.1496 -0.0571
 7322W        W 7322   8.265   2.412   7.400 -0.0919  0.0764  0.2068
 7323W        W 7323   6.906   7.603   1.490 -0.1679  0.1270  0.0663
 7324W        W 7324   8.411   5.251   8.409 -0.0453 -0.1727 -0.1636
 7325W        W 7325   8.234   9.226   7.057 -0.2575 -0.0387  0.0697
 7326W        W 7326   8.622   6.842   6.286  0.2741 -0.0327  0.0421
 7327W        W 7327   3.249   9.171   3.580  0.2172 -0.1981  0.0592
 7328W        W 7328   3.844   4.353   7.405  0.2973 -0.2327 -0.1866
 7329W        W 7329   7.318   4.270   8.565  0.4121  0.1737  0.2053
 7330W        W 7330   6.634  10.050   9.548 -0.1278  0.1379  0.1008
 7331W        W 7331  10.014   9.931   6.932 -0.1944  0.1533  0.0774
 7332W        W 7332   4.342   1.567   5.994 -0.3611 -0.0660  0.0080
 7333W        W 7333   0.644   6.665   3.183  0.1396  0.2666 -0.1836
 7334W        W 7334   6.513   0.098   5.864  0.0961 -0.1008  0.2194
 7335W        W 7335   2.961   4.892   9.382 -0.0722 -0.2335  0.2408
 7336W        W 7336   9.307   3.115   7.837  0.0279  0.0563 -0.0719
 7337W        W 7337   2.464   9.120   2.539  0.1379  0.2010 -0.0370
 7338W        W 7338   9.167   0.702   0.689 -0.2646  0.1246 -0.1604
 7339W        W 7339   6.495   8.242   2.263  0.2448  0.3739 -0.2969
 7340W        W 7340   7.969   7.211   5.731 -0.2126  0.0829  0.1357
 7341W        W 7341   1.063   0.622   3.351 -0.1148 -0.0332  0.3620
 7342W        W 7342   1.938   3.512   3.075  0.1607 -0.1663 -0.1683
 7343W        W 7343   5.733   2.832   2.149  0.1368 -0.0217 -0.1693
 7344W        W 7344   9.202   5.022   2.878 -0.1355 -0.2892  0.1453
 7345W        W 7345   0.259   5.134   2.318 -0.0500  0.0656 -0.2109
 7346W        W 7346   8.257   6.851   9.954 -0.0384  0.1972  0.0174
 7347W        W 7347   2.177   5.288   3.202  0.1193  0.1317  0.1207
 7348W        W 7348   5.433   4.022   1.739 -0.0904 -0.2991  0.2271
 7349W        W 7349   4.381   9.107   4.232 -0.0119  0.0621  0.1106
 7350W        W 7350   3.102   5.907   6.142  0.1350  0.2337 -0.0333
 7351W        W 7351   3.802   0.209   9.512 -0.0401 -0.0191  0.2366
 7352W        W 7352   5.535   5.522   0.644  0.2372 -0.1996  0.0448
 7353W        W 7353   8.995   6.438   5.565 -0.0913 -0.4386 -0.1168
 7354W        W 7354   3.451   7.598   2.414 -0.4829  0.0725  0.2667
 7355W        W 7355   6.418   1.321   6.305  0.2031  0.0796  0.2643
 7356W        W 7356   0.792   9.439   5.424  0.2829 -0.3406 -0.4236
 7357W        W 7357   2.529   6.356   8.034 -0.1242  0.1912  0.0578
 7358W        W 7358   4.955   8.345   8.301 -0.0628 -0.0347 -0.1239
 7359W        W 7359   5.800   3.842   5.522 -0.1457  0.1139  0.0595
 7360W        W 7360   0.520   5.698   2.120 -0.2547 -0.0646  0.0130
 7361W        W 7361   3.831   6.858   3.372 -0.0035  0.3597  0.0468
 7362W        W 7362   0.797   9.409   4.024  0.0478 -0.1261 -0.3456
 7363W        W 7363   7.804   2.828   2.305 -0.0149 -0.1156 -0.0769
 7364W        W 7364   6.864   8.808   1.636 -0.0413  0.0268  0.0104
 7365W        W 7365   9.424   7.000   5.029  0.0007 -0.1746 -0.0357
 7366W        W 7366   8.363   9.902   3.055 -0.1554 -0.1530 -0.2736
 7367W        W 7367   7.898   8.001   3.568  0.0005  0.0373  0.3941
 7368W        W 7368   8.043   2.681   1.881  0.2122  0.1954 -0.0048
 7369W        W 7369   4.248   9.669   1.048  0.0768  0.0050 -0.2814
 7370W        W 7370   6.625   2.937   1.578 -0.1414  0.0638  0.3843
 7371W        W 7371   7.011   4.505   2.875  0.0600 -0.1905  0.1153
 7372W        W 7372   6.801   3.414   8.711 -0.1190  0.3469 -0.0774
 7373W        W 7373   3.627   9.320   2.594  0.3692 -0.0839 -0.1493
 7374W        W 7374   0.226   6.678   6.205 -0.0867  0.0076 -0.3071
 7375W        W 7375   9.821   3.716   0.243  0.1218 -0.0000  0.0429
 7376W        W 7376   4.381   3.469   2.136 -0.1697 -0.1118 -0.0224
 7377W        W 7377   6.224   9.425   2.619 -0.4669  0.1105  0.1078
 7378W        W 7378   6.026   5.388   8.504 -0.1411 -0.0141  0.0265
 7379W        W 7379   8.901   5.944   4.019 -0.0911  0.0035  0.3214
 7380W        W 7380   9.878   0.086   9.088  0.0748 -0.4221 -0.0695
 7381W        W 7381   2.883   3.478   2.170  0.2761 -0.1710 -0.4950
 7382W        W 7382   5.185   5.478   9.635 -0.4076 -0.1179  0.2195
 7383W        W 7383   2.747   0.897   1.716 -0.0815 -0.3347  0.0660
 7384W        W 7384   8.221   1.624   2.794 -0.1652 -0.1662  0.3126
 7385W        W 7385   0.535   6.479   4.000 -0.2207  0.3269 -0.0009
 7386W        W 7386   2.896   3.497   5.964 -0.0243 -0.1457 -0.1185
 7387W        W 7387  10.026   1.609   5.178  0.0780 -0.0892 -0.0908
 7388W        W 7388   8.002   8.867   5.563  0.2996  0.0830  0.0959
 7389W        W 7389   2.720   5.824   7.421 -0.2452 -0.4555  0.2666
 7390W        W 7390   7.585   9.313   1.694  0.0535  0.0582  0.2624
 7391W        W 7391   3.477   6.319   0.875 -0.1023 -0.0320  0.0532
 7392W        W 7392   2.832  10.234   8.731 -0.0527  0.0032  0.3918
 7393W        W 7393   6.848   5.604   9.133 -0.0133 -0.1263 -0.0650
 7394W        W 7394   5.212   3.859   6.476  0.2203 -0.1989 -0.4377
 7395W        W 7395   5.369   5.983   4.933 -0.2431 -0.2819  0.1709
 7396W        W 7396   2.873   8.945   0.312  0.2593 -0.1365 -0.1959
 7397W        W 7397   4.809   9.318   3.346 -0.0425  0.1680  0.1704
 7398W        W 7398   5.764   1.525   5.700  0.0614 -0.0570  0.1694
 7399W        W 7399   3.924   4.880   7.855 -0.1368 -0.1466  0.1287
 7400W        W 7400   3.821   3.258   1.583 -0.0097 -0.0067 -0.0373
 7401W        W 7401   4.863   1.911   1.807  0.0660 -0.1863 -0.0204
 7402W        W 7402   1.061   4.143   5.102 -0.0200 -0.1082 -0.1237
 7403W        W 7403   1.976   2.494   8.546  0.2527  0.0836 -0.0063
 7404W        W 7404   3.053   0.015   1.642  0.1415 -0.0168  0.0034
 7405W        W 7405   8.669   9.914   1.301  0.0068 -0.2129 -0.0219
 7406W        W 7406   2.869   7.774   7.091  0.0837  0.1305  0.3452
 7407W        W 7407   1.402   3.766   0.456  0.0792  0.0859  0.0716
 7408W        W 7408   1.486   7.728   3.046  0.1212 -0.4624  0.0299
 7409W        W 7409   0.061   7.705   2.983  0.0428 -0.0007  0.1536
 7410W        W 7410   7.412   9.413   6.327 -0.1983 -0.0306  0.1990
 7411W        W 7411   0.210   6.088   5.115  0.0813  0.0722  0.0476
 7412W        W 7412   9.982   0.268   1.047 -0.0202 -0.0786  0.1316
 7413W        W 7413   0.754   7.319   5.523 -0.2350 -0.1134 -0.2010
 7414W        W 7414   4.883   8.460   1.127  0.1736 -0.0850  0.0064
 7415W        W 7415   8.946   3.824   3.537  0.4244  0.0174  0.1190
 7416W        W 7416   4.670   6.871   4.849  0.1507 -0.1577  0.2172
 7417W        W 7417   7.915   1.974   6.915  0.0032 -0.0572  0.0786
 7418W        W 7418   8.338   5.064   7.007  0.0081 -0.1237  0.1218
 7419W        W 7419   9.056   8.447   4.743 -0.1584 -0.1458  0.1928
 7420W        W 7420   5.049  10.262   0.554 -0.1387 -0.1010  0.1735
 7421W        W 7421   3.769   9.020   9.619 -0.1555 -0.0342  0.1071
 7422W        W 7422   4.684   1.865   1.192 -0.1287  0.0486 -0.0687
 7423W        W 7423   0.001   6.228   7.042  0.0199  0.0673  0.0954
 7424W        W 7424   3.158   7.628   0.752 -0.0007 -0.0500 -0.3938
 7425W        W 7425   6.114   2.347   9.946 -0.4264  0.3077  0.0405
 7426W        W 7426   7.734   2.335   2.091 -0.1218  0.2372 -0.3132
 7427W        W 7427   2.302   7.805   6.105 -0.0937 -0.2107  0.0456
 7428W        W 7428   0.380   6.539   1.016 -0.2281 -0.1926  0.0582
 7429W        W 7429   0.306   0.458   1.263  0.4274 -0.0758 -0.3138
 7430W        W 7430   3.597   4.681   0.319  0.1539 -0.0649 -0.1005
 7431W        W 7431   3.521   8.597   9.638 -0.2470  0.2552 -0.0382
 7432W        W 7432   2.801   9.581   6.171 -0.0441  0.0477 -0.1765
 7433W        W 7433   4.785   3.153   3.237 -0.0058 -0.0999  0.1390
 7434W        W 7434   9.767   1.659   7.697  0.1109  0.3687  0.4002
 7435W        W 7435   0.756   7.850   5.426  0.0881 -0.2160 -0.0214
 7436W        W 7436   7.518   7.240   0.037  0.0818  0.0684 -0.0217
 7437W        W 7437   0.745   7.436   7.243 -0.0530 -0.0267  0.0720
 7438W        W 7438   2.403   7.623   4.914 -0.1726 -0.0228 -0.4341
 7439W        W 7439   8.815   2.143   3.003 -0.0642 -0.0854  0.2893
 7440W        W 7440   8.783   6.318   3.155  0.0681  0.2037 -0.1008
 7441W        W 7441   3.001   2.560   0.394  0.1473  0.2577 -0.0386
 7442W        W 7442   8.739   3.428   8.717  0.0350  0.0394 -0.2012
 7443W        W 7443   9.163   3.382   9.581 -0.0076  0.0154 -0.1539
 7444W        W 7444   2.302   8.622  10.077  0.2117  0.2347 -0.0919
 7445W        W 7445   7.056   9.233   1.114 -0.1658 -0.2392  0.0092
 7446W        W 7446   2.716   0.574   8.252 -0.0206 -0.1958  0.4147
 7447W        W 7447   5.498   8.599   5.575  0.2168  0.0438 -0.3186
 7448W        W 7448   4.850   0.593   3.932  0.1323  0.0142  0.0529
 7449W        W 7449   3.371   9.568   9.283 -0.1728 -0.2005 -0.1982
 7450W        W 7450  10.061   7.628   2.635 -0.1319 -0.0603  0.2787
 7451W        W 7451   7.438   2.014   0.179  0.0852 -0.1101 -0.3580
 7452W        W 7452   1.320   7.272   4.596 -0.2050  0.1053 -0.1662
 7453W        W 7453  10.184   5.035   3.129  0.3274  0.0028  0.0987
 7454W        W 7454   0.529   0.217   8.269 -0.0511 -0.1244 -0.1193
 7455W        W 7455   9.315   2.716   5.987 -0.1700 -0.3357  0.0248
 7456W        W 7456   0.583   1.580   2.598  0.3497  0.0351  0.0701
 7457W        W 7457   2.351   7.699   1.568 -0.3270  0.0940 -0.1461
 7458W        W 7458   2.022   3.789   9.136  0.0731 -0.1254  0.3298
 7459W        W 7459   1.531   0.348   5.067  0.1812 -0.1739 -0.1625
 7460W        W 7460   9.177   7.875   3.015 -0.3052 -0.1748 -0.0336
 7461W        W 7461   8.631   5.092   3.650  0.2572  0.0232  0.3830
 7462W        W 7462   1.686   3.741   1.297  0.1292 -0.0619  0.1272
 7463W        W 7463   5.795   2.408   0.009  0.1220  0.1157 -0.2906
 7464W        W 7464   8.994   2.889   2.560  0.0933 -0.2511 -0.4566
 7465W        W 7465   1.733   1.733   4.699 -0.1487  0.2516  0.1304
 7466W        W 7466   7.043   2.960   4.587 -0.0813 -0.0155  0.0712
 7467W        W 7467   1.264  10.157   1.585 -0.2333  0.6451  0.0623
 7468W        W 7468   0.196   3.240   9.300  0.1544  0.2583 -0.0280
 7469W        W 7469   1.162   6.794   0.022 -0.0264  0.1392  0.3835
 7470W        W 7470   7.841  10.104   5.040  0.0434 -0.2063  0.4269
 7471W        W 7471   5.004   3.663  10.188  0.1477  0.1068  0.0408
 7472W        W 7472   3.210   5.577  10.161 -0.3133 -0.0044 -0.0756
 7473W        W 7473   1.600   9.867   8.043  0.0227  0.1075 -0.2796
 7474W        W 7474   6.474   8.597   9.240 -0.1409 -0.1192 -0.1071
 7475W        W 7475   8.269   7.175   3.468  0.0308  0.3501 -0.0681
 7476W        W 7476   6.107   0.578   8.537 -0.0735  0.3225  0.0906
 7477W        W 7477   4.819   3.400   7.235 -0.3347 -0.2438 -0.1437
 7478W        W 7478   4.159   3.235   2.626 -0.1667 -0.1958 -0.1064
 7479W        W 7479   3.434   2.420   1.726  0.1463 -0.1306  0.1888
 7480W        W 7480   7.650   2.895   0.875 -0.1607 -0.3095 -0.0590
 7481W        W 7481   6.025   5.183   8.980  0.0493 -0.1459 -0.0304
 7482W        W 7482   2.576   1.414   1.644  0.2685  0.0241  0.0452
 7483W        W 7483   2.774   0.151   4.517 -0.2210 -0.2129  0.1950
 7484W        W 7484   0.955   6.029   6.905 -0.0132  0.1891 -0.2433
 7485W        W 7485   5.317   2.137   6.912 -0.1286 -0.4539 -0.1571
 7486W        W 7486   7.461   5.190   3.893 -0.1604  0.0247 -0.0353
 7487W        W 7487   8.964   3.072   5.897 -0.2361  0.0165 -0.3513
 7488W        W 7488   7.736   1.943   0.632  0.1810 -0.0067 -0.2409
 7489W        W 7489   1.419   1.975  10.029  0.1645 -0.3532  0.0411
 7490W        W 7490   5.140   3.599   1.579 -0.0524 -0.0149 -0.2243
 7491W        W 7491   5.768   0.831   3.540  0.1172 -0.1449 -0.1323
 7492W        W 7492   0.560   1.467   7.376 -0.0092 -0.1237 -0.0515
 7493W        W 7493   8.545   1.078  10.104  0.2224  0.0374  0.0179
 7494W        W 7494   0.437   1.509   4.029  0.1341 -0.1037 -0.3208
 7495W        W 7495   1.651   9.369   1.320 -0.2408 -0.2721 -0.0909
 7496W        W 7496   2.563   8.517   1.764 -0.0059  0.3869  0.1041
 7497W        W 7497   6.079   2.876   1.749 -0.1979  0.2182 -0.0674
 7498W        W 7498   3.600   7.201  10.144 -0.0149 -0.0084  0.1182
 7499W        W 7499   7.748   3.524   2.437  0.1035  0.1925 -0.1061
 7500W        W 7500   1.222   8.807   2.401 -0.0301  0.0788 -0.0045
 7501W        W 7501   9.297   5.700   9.817  0.1248 -0.0247  0.2732
 7502W        W 7502   6.274   2.451   5.718  0.1742  0.0686  0.0693
 7503W        W 7503   7.696   9.832   6.599  0.1131  0.1288  0.1736
 7504W        W 7504   9.406   3.902   8.976 -0.1532 -0.0333 -0.2956
 7505W        W 7505   2.000   7.391   7.225  0.2115  0.1702  0.2584
 7506W        W 7506   1.447   0.972   2.685 -0.0230 -0.0787 -0.2287
 7507W        W 7507   2.170   1.529   3.095 -0.0383  0.1338 -0.0002
 7508W        W 7508   7.755   0.337   6.568 -0.4117  0.0649  0.1802
 7509W        W 7509   7.035   8.720   1.094  0.2594  0.0281 -0.1033
 7510W        W 7510   0.631   7.111   1.998  0.0366  0.0034  0.0401
 7511W        W 7511   8.905   8.852   9.047 -0.0742 -0.4544  0.1000
 7512W        W 7512   1.166   9.378   6.387 -0.3002  0.2681  0.2487
 7513W        W 7513   0.720   8.394   9.346 -0.0513 -0.0056 -0.2398
 7514W        W 7514   2.884   7.509   1.348  0.3224  0.0495  0.1768
 7515W        W 7515   1.066   2.614   9.306 -0.0765 -0.3383 -0.0153
 7516W        W 7516   4.706   2.564   5.901 -0.1973  0.1746  0.1483
 7517W        W 7517   4.314   6.528   4.056 -0.0298  0.3846 -0.4513
 7518W        W 7518   4.151   6.206   4.968 -0.2428 -0.2117 -0.2081
 7519W        W 7519   5.788   8.187   0.098  0.0312  0.1033 -0.1701
 7520W        W 7520   5.229   4.879   4.126  0.2448  0.0365  0.0527
 7521W        W 7521   1.331   9.294   3.938  0.0578 -0.2564  0.1956
 7522W        W 7522   4.168   5.080   0.959  0.5221 -0.0729  0.2298
 7523W        W 7523   6.495   9.401   5.477 -0.1070  0.2777 -0.0883
 7524W        W 7524   1.953   4.926   2.356 -0.1107 -0.0317  0.1793
 7525W        W 7525   5.563   9.601   2.178 -0.2974 -0.0973  0.0247
 7526W        W 7526   0.954   2.721   0.083  0.0385  0.2642 -0.0896
 7527W        W 7527   2.964   5.203   4.492 -0.0205  0.1539  0.1434
 7528W        W 7528   3.271   3.013   9.060 -0.1722  0.2009  0.1676
 7529W        W 7529   5.617   0.392   4.488 -0.0955  0.2098  0.2604
 7530W        W 7530   3.418   2.915   1.780  0.2168 -0.1218 -0.2821
 7531W        W 7531   9.064   6.753   3.484 -0.0493  0.1824  0.0011
 7532W        W 7532   6.940   3.065  10.314 -0.0936 -0.2642 -0.0066
 7533W        W 7533   1.863   8.189   3.375 -0.1311 -0.2052 -0.0770
 7534W        W 7534   5.735   3.574   1.667  0.0006  0.0432 -0.1154
 7535W        W 7535   4.661   6.871   8.533 -0.1058  0.2122  0.0927
 7536W        W 7536   7.289   7.923   9.534  0.0235  0.0499 -0.2491
 7537W        W 7537   7.668   6.047   3.967 -0.0276  0.2280  0.0650
 7538W        W 7538   8.166   3.941   6.083  0.0572  0.0668 -0.0726
 7539W        W 7539   3.533   8.340   6.791  0.0569  0.1289  0.0858
 7540W        W 7540   5.505   6.458   2.108 -0.3992  0.1151  0.0655
 7541W        W 7541   2.054   9.474  10.045 -0.3189  0.2274  0.3318
 7542W        W 7542   5.040   5.712   8.810  0.1916  0.1833 -0.0246
 7543W        W 7543   0.096   0.012   4.825  0.1613  0.0589 -0.0349
 7544W        W 7544   4.188   0.454   2.036 -0.2108 -0.0439 -0.2050
 7545W        W 7545   6.259   4.847   0.653  0.1653  0.2703  0.2012
 7546W        W 7546   8.365   4.103   4.182 -0.0596 -0.2196 -0.0548
 7547W        W 7547   3.043   6.149   7.793 -0.0773 -0.1843 -0.2589
 7548W        W 7548   7.360   9.842   0.596 -0.3399 -0.0674 -0.1888
 7549W        W 7549   2.106   4.915   1.437 -0.3521  0.1547  0.1821
 7550W        W 7550   6.318   7.014   6.132  0.1642 -0.2224  0.0086
 7551W        W 7551   4.261   9.086   9.364 -0.4409 -0.1230  0.3019
 7552W        W 7552   1.712   7.669   0.846 -0.2151  0.3971 -0.2327
 7553W        W 7553   3.099   1.935   5.676  0.2682 -0.0371  0.1602
 7554W        W 7554   0.920   5.963   2.233 -0.1156  0.1063 -0.0218
 7555W        W 7555   4.100   0.049   3.675  0.0810 -0.0507  0.1536
 7556W        W 7556   5.069   5.016   3.664  0.1135 -0.0387  0.1416
 7557W        W 7557   0.176   3.427   5.625 -0.1146  0.1027 -0.0751
 7558W        W 7558   3.361   3.633   6.704  0.0686 -0.3929  0.1497
 7559W        W 7559   6.611   4.195   8.959 -0.1748  0.2263  0.3092
 7560W        W 7560   6.357   2.308   3.280 -0.1561  0.0228 -0.0704
 7561W        W 7561   9.512   9.095   7.572 -0.0880  0.1883  0.0746
 7562W        W 7562   2.318   8.743   2.869  0.0866  0.1077 -0.0246
 7563W        W 7563   4.964   5.398   2.902 -0.0619 -0.1759  0.2398
 7564W        W 7564   4.206   5.039   2.362  0.0233 -0.2022  0.0750
 7565W        W 7565   3.110   8.058   1.211 -0.0008  0.2231  0.0872
 7566W        W 7566   7.209   5.241   6.878  0.2973 -0.0686  0.1977
 7567W        W 7567   4.174   3.543   4.486 -0.1735 -0.1651 -0.2019
 7568W        W 7568   8.936   1.895   2.565  0.0807 -0.1588 -0.1864
 7569W        W 7569   4.918   8.713   7.155 -0.0865  0.1676  0.0332
 7570W        W 7570   5.485   0.799   0.650 -0.0927 -0.0654 -0.2539
 7571W        W 7571   2.731   4.326   8.571  0.2096 -0.0881 -0.0475
 7572W        W 7572  10.079   3.986   4.914 -0.1311 -0.0054 -0.1571
 7573W        W 7573   4.908   0.626   5.180 -0.2783 -0.1256 -0.2200
 7574W        W 7574   1.415   6.762   2.414 -0.1120  0.1181 -0.1741
 7575W        W 7575   2.666   4.069   1.307 -0.3005  0.2441  0.2046
 7576W        W 7576   3.817   8.288   3.207 -0.2682 -0.2519  0.2207
 7577W        W 7577   2.447   7.001   9.869 -0.0234 -0.1727 -0.0709
 7578W        W 7578   9.981   9.139   4.464 -0.1363 -0.0563  0.1528
 7579W        W 7579   7.481   6.544   0.834 -0.2224  0.3501  0.0399
 7580W        W 7580   0.116   8.836   1.559  0.3135 -0.0553  0.1266
 7581W        W 7581   6.360   8.371   3.916 -0.0338  0.2484  0.3035
 7582W        W 7582   9.287   8.349   5.205 -0.0278  0.2087  0.4678
 7583W        W 7583   0.093   4.340   1.841 -0.0601  0.2075  0.0604
 7584W        W 7584   1.733   5.534   3.205 -0.1480 -0.0812  0.0084
 7585W        W 7585   1.224   3.552   7.464 -0.0653  0.0919 -0.2396
 7586W        W 7586   0.032   6.384   7.818  0.2550 -0.2499  0.1452
 7587W        W 7587   5.686   3.124   1.424  0.2304 -0.0326  0.0256
 7588W        W 7588   9.681   7.932  10.227 -0.1342  0.0703  0.0212
 7589W        W 7589   7.665   8.065   4.041  0.3682  0.3549  0.3018
 7590W        W 7590   9.504  10.211   8.592  0.0373  0.0006 -0.1430
 7591W        W 7591   3.424   0.047   7.601  0.1046  0.0983  0.0129
 7592W        W 7592   0.060   2.458   5.502 -0.2136  0.0608  0.0237
 7593W        W 7593   5.611   7.941   5.470 -0.0801 -0.1476 -0.2084
 7594W        W 7594   7.112   8.018   1.168  0.1723 -0.1077  0.0928
 7595W        W 7595   5.840   5.997   9.228  0.0620 -0.0701  0.0522
 7596W        W 7596   2.728   7.834   6.562  0.3312 -0.2100  0.2162
 7597W        W 7597   5.140   0.761   5.628 -0.0335 -0.0488 -0.1470
 7598W        W 7598   5.305  10.245   9.954  0.3326  0.0553 -0.0880
 7599W        W 7599   9.802   1.294   1.138 -0.0943  0.0508 -0.2423
 7600W        W 7600   0.229   0.414   2.959  0.0778  0.1757 -0.2705
 7601W        W 7601   6.843   2.036   7.016  0.1994  0.3683 -0.0510
 7602W        W 7602   1.878   5.103   2.835 -0.1628 -0.1779 -0.2011
 7603W        W 7603   9.843   4.015   9.704  0.0649  0.4484  0.0561
 7604W        W 7604   6.796   7.448   8.623  0.0596  0.1558  0.0902
 7605W        W 7605   9.434   2.889  10.184 -0.1455  0.0246  0.1410
 7606W        W 7606   4.064   4.828   2.807  0.1763 -0.1840 -0.2023
 7607W        W 7607   2.767   2.212   7.120  0.1045 -0.1587  0.0143
 7608W        W 7608   8.009   1.768   9.659  0.0213 -0.2476 -0.0922
 7609W        W 7609   3.862   9.490   2.199 -0.1406 -0.0952  0.0758
 7610W        W 7610   2.302   9.295   7.266 -0.1056  0.1315 -0.1888
 7611W        W 7611   5.324   6.739   3.576 -0.1446  0.0247  0.3361
 7612W        W 7612   3.575   7.419   0.512  0.1248  0.1678 -0.2337
 7613W        W 7613   0.517   9.655   5.830  0.0229 -0.0382 -0.0502
 7614W        W 7614   2.294   2.179   7.302 -0.0427 -0.0188  0.0612
 7615W        W 7615   5.164   2.676   9.736 -0.0478 -0.1614  0.2733
 7616W        W 7616   9.320   2.332   5.477  0.0850 -0.0860 -0.0376
 7617W        W 7617   6.110   8.499   2.912 -0.1099 -0.1301  0.2167
 7618W        W 7618   7.140   0.137   3.627 -0.1090  0.0973 -0.0849
 7619W        W 7619   3.242   2.489   6.927  0.2855 -0.0354  0.2803
 7620W        W 7620   0.973   6.442   6.594 -0.0362  0.0629 -0.0060
 7621W        W 7621   2.010   6.122   5.099  0.1011  0.0971  0.1629
 7622W        W 7622   0.264   1.964   8.415 -0.0747  0.3248  0.2194
 7623W        W 7623   1.216   5.263   7.183  0.1112 -0.3882 -0.0727
 7624W        W 7624   8.275   8.803   3.563 -0.0442  0.0773 -0.1799
 7625W        W 7625   4.569   4.984   2.004 -0.0581 -0.0726  0.0310
 7626W        W 7626   8.557   2.916   5.458  0.1348 -0.0157  0.1124
 7627W        W 7627   4.793   7.297   4.596  0.1266  0.1071 -0.0943
 7628W        W 7628   3.060   5.932   2.260  0.1702 -0.1452  0.0040
 7629W        W 7629   2.826   4.925   9.986 -0.1380  0.0431  0.0478
 7630W        W 7630   2.092   7.267   5.454 -0.4127 -0.1973 -0.2757
 7631W        W 7631   7.986   9.110   4.858  0.1808  0.0942  0.0298
 7632W        W 7632   9.691   2.927   9.293 -0.0265 -0.0624  0.1361
 7633W        W 7633   4.963   2.829   6.724 -0.0031 -0.2208  0.0838
 7634W        W 7634   0.818   3.195   4.986  0.1377 -0.0129  0.2752
 7635W        W 7635   1.336   1.622   1.173  0.1410  0.2545 -0.2132
 7636W        W 7636   4.937   6.095   4.608  0.2780 -0.0421 -0.2122
 7637W        W 7637   7.780  10.282   4.184 -0.0622  0.2213  0.4193
 7638W        W 7638   6.385   6.763   9.033 -0.2399 -0.2973  0.1945
 7639W        W 7639   8.905   3.509   6.305  0.0393 -0.1319  0.1910
 7640W        W 7640   9.237   1.237   1.138 -0.1160  0.1343  0.1337
 7641W        W 7641   6.347   2.190   5.280 -0.2581 -0.0992 -0.1820
 7642W        W 7642   9.769   0.909   8.395  0.0910 -0.3027 -0.1775
 7643W        W 7643   0.765   1.077   2.007  0.0016  0.0380  0.1043
 7644W        W 7644   1.112   6.976   7.321 -0.1350 -0.2928  0.2394
 7645W        W 7645   9.106   9.456   8.378  0.0597  0.1081  0.2358
 7646W        W 7646   8.621   9.574   5.332  0.2836 -0.1940  0.0338
 7647W        W 7647   6.580   6.322   1.216  0.1166 -0.2617  0.2687
 7648W        W 7648   4.068   9.991   0.611 -0.0469  0.1383  0.1564
 7649W        W 7649   9.993   3.966   3.319  0.1436  0.2285 -0.0070
 7650W        W 7650   4.312   0.725   1.110 -0.2617  0.4685  0.2958
 7651W        W 7651   9.360   8.890   5.031  0.1538  0.2364  0.1339
 7652W        W 7652   3.031   2.639   9.408  0.0333  0.1153 -0.1238
 7653W        W 7653   1.597   4.428   7.140  0.2999  0.0722 -0.0265
 7654W        W 7654   6.626   7.064   4.736  0.0456 -0.0168  0.3886
 7655W        W 7655   4.446   4.510   4.596 -0.2987  0.0015 -0.1727
 7656W        W 7656   4.273   7.649   4.474  0.2331  0.3303  0.0566
 7657W        W 7657   2.462   7.473   1.112  0.1607  0.2179  0.0543
 7658W        W 7658   1.159   8.093   5.368 -0.0265  0.1743 -0.0387
 7659W        W 7659   1.348   1.354   6.015 -0.0096  0.1003  0.1410
 7660W        W 7660   5.645   2.515   6.549 -0.2085  0.2934 -0.0678
 7661W        W 7661   4.659   2.802   9.759 -0.0726  0.1061  0.1508
 7662W        W 7662   9.240   7.928   5.503 -0.2347  0.0795 -0.1074
 7663W        W 7663   9.900   6.378   8.249  0.1026  0.1408  0.3408
 7664W        W 7664   6.465   9.951   4.273  0.1710  0.1676 -0.1260
 7665W        W 7665   3.840   1.178   2.462  0.0215 -0.0542  0.1391
 7666W        W 7666   3.534   8.294   0.742 -0.2210  0.0643 -0.2819
 7667W        W 7667   7.357   6.854   7.621 -0.1787 -0.0096  0.2281
 7668W        W 7668   0.529   0.348   9.817  0.2391  0.4173  0.0851
 7669W        W 7669   7.732   7.780   5.059 -0.1972 -0.1004 -0.0539
 7670W        W 7670   0.605   2.217   1.351  0.2695  0.1100 -0.1937
 7671W        W 7671   6.076   2.129   1.481  0.3183 -0.0710 -0.0296
 7672W        W 7672   2.419   6.004   9.904 -0.3059  0.0673 -0.7254
 7673W        W 7673   1.407   8.018   8.788 -0.0609 -0.0386 -0.0243
 7674W        W 7674   3.330   2.318   4.702 -0.2809  0.1015  0.0524
 7675W        W 7675   1.753   1.132   8.150  0.2581  0.1116  0.0255
 7676W        W 7676   4.804   9.694   1.645  0.0889  0.1688 -0.1179
 7677W        W 7677   3.342   6.576   7.882 -0.3526  0.1808 -0.1021
 7678W        W 7678   0.747   6.076   5.809 -0.3661 -0.2266 -0.0821
 7679W        W 7679   7.728  10.081   8.583  0.0358 -0.1239  0.0548
 7680W        W 7680   4.520   4.735   2.604 -0.3511 -0.0842 -0.1967
 7681W        W 7681   5.609   8.806   4.505  0.1381  0.1782  0.0667
 7682W        W 7682   8.431   9.508   4.138  0.2796 -0.0594 -0.0378
 7683W        W 7683   7.984   0.754   8.076 -0.0354  0.0104 -0.0332
 7684W        W 7684   6.616   2.150   7.425  0.3034  0.0144 -0.3657
 7685W        W 7685   5.163   8.359   9.907 -0.0088 -0.1493 -0.0561
 7686W        W 7686   5.057   3.743   8.106  0.3055 -0.1750 -0.1506
 7687W        W 7687   1.327   7.195   7.692  0.0339 -0.0214  0.1797
 7688W        W 7688   1.049   0.276   8.033 -0.1936 -0.0401  0.0010
 7689W        W 7689   1.949   2.672   2.568 -0.2772  0.1946  0.1581
 7690W        W 7690   8.878   7.595   3.293  0.1648 -0.1133 -0.1594
 7691W        W 7691   1.964   6.851   0.362 -0.5338 -0.2266  0.4511
 7692W        W 7692   4.417   3.914   7.649 -0.0202 -0.0296 -0.3701
 7693W        W 7693   2.619   0.396   1.914 -0.2121  0.0856 -0.4109
 7694W        W 7694   2.576   6.968   1.082 -0.1959  0.0993 -0.1918
 7695W        W 7695   1.557   9.450   0.104  0.0622 -0.0349  0.0403
 7696W        W 7696   8.146   2.032   1.976  0.4498  0.0326  0.2015
 7697W        W 7697   6.713   8.078   4.213 -0.0178 -0.3102  0.0533
 7698W        W 7698   2.000   3.727   6.558  0.3851 -0.0280  0.1685
 7699W        W 7699   2.033   4.888   0.542  0.2402  0.0633  0.1742
 7700W        W 7700   1.915   8.304   8.671  0.1815  0.1669  0.1739
 7701W        W 7701   8.967   6.505   8.913  0.0778 -0.3036  0.0405
 7702W        W 7702   4.756   2.784   1.565  0.0221 -0.2097 -0.0268
 7703W        W 7703   1.204   6.731   6.887  0.0805  0.0018 -0.3060
 7704W        W 7704   4.022   5.776   7.712 -0.1864 -0.1892 -0.0322
 7705W        W 7705   7.532   7.816   4.576 -0.0667 -0.1757  0.0921
 7706W        W 7706   9.090   1.201   0.652 -0.0441  0.1461  0.1032
 7707W        W 7707   6.922   0.483   9.235  0.3725 -0.0792 -0.0557
 7708W        W 7708   4.448   6.130   4.490 -0.0498  0.0354 -0.1409
 7709W        W 7709   8.402  10.299  10.160 -0.0056 -0.3796 -0.1300
 7710W        W 7710   6.749   7.833   0.889  0.1968 -0.1364 -0.0283
 7711W        W 7711   3.649   0.426   1.958 -0.2424  0.3100  0.1767
 7712W        W 7712   3.261   3.385   3.495 -0.1111 -0.0415 -0.0076
 7713W        W 7713   6.821   0.669   4.951  0.0160 -0.0781  0.0596
 7714W        W 7714   5.976   3.844   8.271  0.1540  0.0217 -0.0267
 7715W        W 7715   0.543   8.828   9.194 -0.0345 -0.0159  0.0683
 7716W        W 7716   7.533   2.734   5.885  0.1308 -0.1098 -0.0043
 7717W        W 7717   1.835   4.959   1.024  0.1453 -0.1776  0.0992
 7718W        W 7718   3.004   6.285   9.797  0.1430 -0.0739 -0.1484
 7719W        W 7719   3.471   7.505   6.619  0.2712 -0.0967  0.3637
 7720W        W 7720   2.203   7.850   0.885  0.0814  0.1921  0.1867
 7721W        W 7721   8.612   8.947   9.435  0.1188  0.0604  0.1788
 7722W        W 7722   2.454   9.072   9.969  0.2201 -0.0921 -0.1925
 7723W        W 7723   0.087   1.536   8.288 -0.2146 -0.2230 -0.3736
 7724W        W 7724   8.444   2.235   5.038  0.0636  0.0946 -0.2492
 7725W        W 7725   4.079   6.665   1.931  0.0151 -0.1636 -0.3579
 7726W        W 7726   3.990   7.925   7.840 -0.0021 -0.0453 -0.1769
 7727W        W 7727   5.337   2.693   9.170 -0.0851 -0.1287 -0.0865
 7728W        W 7728   0.947   7.651  10.011 -0.2202 -0.0359 -0.0517
 7729W        W 7729   4.851   8.070   8.807  0.1870  0.0527  0.0006
 7730W        W 7730   6.770   1.537   7.089  0.1395 -0.1175 -0.4315
 7731W        W 7731   2.425   6.865   9.347 -0.2712 -0.2411 -0.0484
 7732W        W 7732   3.543   1.782   2.035 -0.2964  0.0908 -0.1814
 7733W        W 7733   1.657   3.387   7.329  0.1785  0.1028  0.3005
 7734W        W 7734   7.043   2.995   3.208  0.0092 -0.0778 -0.2473
 7735W        W 7735   9.950   0.948   6.492  0.0477 -0.0564  0.1445
 7736W        W 7736   8.934   0.308   0.803 -0.2220  0.1329 -0.0893
 7737W        W 7737   8.491   8.939   0.737  0.0639 -0.0965 -0.0643
 7738W        W 7738   0.331   4.562   5.370 -0.2873 -0.0709 -0.1878
 7739W        W 7739   5.919   6.109   4.631 -0.1707  0.0105 -0.0008
 7740W        W 7740   8.326   7.137   2.891 -0.3174  0.0031  0.0285
 7741W        W 7741   8.949   5.846   3.310  0.1480 -0.1310 -0.1644
 7742W        W 7742   8.264   4.538   3.940  0.1845 -0.1196  0.1047
 7743W        W 7743   6.598   3.861   4.617 -0.0345 -0.0105  0.1071
 7744W        W 7744   0.988   6.049   5.104 -0.2911  0.3330 -0.0293
 7745W        W 7745   9.999   8.456   3.418 -0.1041  0.2380 -0.1769
 7746W        W 7746   7.261   7.091   8.452  0.1438 -0.0247 -0.3673
 7747W        W 7747   1.888   8.173   6.940  0.1524 -0.0964  0.0935
 7748W        W 7748   1.086   5.760   1.417 -0.0457  0.2805  0.0081
 7749W        W 7749   5.104   2.954   0.943 -0.1081 -0.2860 -0.1502
 7750W        W 7750   6.370   1.515   2.033  0.2668 -0.1684  0.0621
 7751W        W 7751   5.646   2.585   8.433  0.0227  0.2391 -0.1955
 7752W        W 7752   8.947   0.738  10.240 -0.0211 -0.2028 -0.3061
 7753W        W 7753   4.707   5.526   6.955  0.1263 -0.3994  0.1653
 7754W        W 7754   7.232   0.499   8.861 -0.1655  0.3722  0.0088
 7755W        W 7755   0.175   8.244   7.318 -0.1339 -0.0173  0.1095
 7756W        W 7756   7.191   5.665   8.438 -0.2708  0.2049 -0.1800
 7757W        W 7757   2.494   7.165   6.273 -0.0014  0.0858 -0.0157
 7758W        W 7758   4.047  10.284   2.741  0.0710 -0.0958  0.0757
 7759W        W 7759   5.342   7.581   9.341  0.1069 -0.1994 -0.0783
 7760W        W 7760   1.286   5.314   3.039  0.0308 -0.3865 -0.0788
 7761W        W 7761   9.708   7.935   5.123 -0.0046  0.2873  0.2030
 7762W        W 7762   9.499   5.810   4.460  0.0722  0.0710  0.0075
 7763W        W 7763   0.809   0.092  10.147 -0.0225 -0.0137 -0.4571
 7764W        W 7764   6.221   3.386   6.513  0.2325 -0.1030  0.0269
 7765W        W 7765   9.261   8.423   0.659  0.0216  0.0478  0.0730
 7766W        W 7766   5.184   7.640   0.208 -0.1009  0.1611  0.1713
 7767W        W 7767   3.433   7.963   4.612  0.1901 -0.1837 -0.0042
 7768W        W 7768   2.113   5.453   8.094  0.1926  0.0467  0.2954
 7769W        W 7769   2.226   3.801  10.066 -0.3059  0.0250 -0.1575
 7770W        W 7770   5.290   5.600   1.876  0.0781  0.1188  0.3616
 7771W        W 7771   2.875   0.009   5.547 -0.0576  0.0311 -0.0193
 7772W        W 7772   3.962   5.736   2.939 -0.3052 -0.2608 -0.2240
 7773W        W 7773   2.984   8.173   0.746  0.5307 -0.2108 -0.1571
 7774W        W 7774   5.346   8.360   9.021  0.0932 -0.0311  0.0235
 7775W        W 7775   7.670   3.425   8.163 -0.1603  0.1706  0.4208
 7776W        W 7776   9.925  10.011   4.077  0.1779  0.0988  0.2504
 7777W        W 7777   5.084   0.156   0.003  0.1735  0.2719 -0.0466
 7778W        W 7778   6.078   8.159   1.443  0.3589  0.0701  0.2090
 7779W        W 7779   1.448   3.838   5.058  0.4720  0.1930  0.1509
 7780W        W 7780   3.504   7.161   4.032  0.2893  0.0471  0.2426
 7781W        W 7781   9.001   5.850   0.362 -0.0868 -0.0260 -0.0109
 7782W        W 7782   8.880   9.391   5.821 -0.2409 -0.2748 -0.0461
 7783W        W 7783   1.685   0.892   9.525 -0.0527 -0.1092  0.1592
 7784W        W 7784  10.137   5.905   8.057  0.2108 -0.0692  0.1080
 7785W        W 7785   2.134   5.869   7.318  0.0289  0.1268  0.0600
 7786W        W 7786   6.807   5.810   7.458  0.3350 -0.2668  0.1700
 7787W        W 7787   7.279   9.641   1.431 -0.0795 -0.0520  0.0233
 7788W        W 7788   7.021   7.790   5.372  0.2357  0.1662  0.1760
 7789W        W 7789   7.856   0.493   2.177 -0.1486  0.1220  0.2575
 7790W        W 7790   5.562   2.611   4.919  0.0514 -0.0180 -0.0051
 7791W        W 7791   3.616   1.368   1.043 -0.2491 -0.2373  0.0343
 7792W        W 7792   9.379   4.538   7.070 -0.1460  0.3208  0.0288
 7793W        W 7793   9.410   7.826   4.384  0.0663 -0.2515  0.1328
 7794W        W 7794   6.994   6.091   1.274  0.2182  0.0241 -0.1595
 7795W        W 7795   4.410   3.179   7.725  0.2458 -0.1033 -0.1251
 7796W        W 7796   2.355   2.138   9.345 -0.1342 -0.0166 -0.0914
 7797W        W 7797   3.019   6.203   0.680  0.0527 -0.1050 -0.1578
 7798W        W 7798  10.015   7.902   7.063  0.0279  0.1015 -0.0535
 7799W        W 7799   8.926   2.587   1.560 -0.2357 -0.0261  0.2651
 7800W        W 7800   8.801   7.773   5.278  0.0689 -0.0652 -0.2480
 7801W        W 7801   1.864   5.853   2.017 -0.2000  0.1192  0.1628
 7802W        W 7802   8.725   9.075   6.235 -0.1108  0.1083  0.0652
 7803W        W 7803   1.881   4.783   7.977 -0.2199  0.1292  0.0782
 7804W        W 7804   0.839   9.573   8.975  0.0713  0.1661 -0.0546
 7805W        W 7805   6.573   5.490   1.919 -0.0619 -0.1202 -0.1016
 7806W        W 7806   9.222   2.917   9.492  0.2351  0.1352 -0.1400
 7807W        W 7807   0.653   4.408   4.992 -0.1522 -0.0366 -0.0277
 7808W        W 7808   3.401   8.049  10.255 -0.0467  0.2532  0.0026
 7809W        W 7809   0.638   8.475   3.126 -0.3694  0.2380  0.1358
 7810W        W 7810   4.964   7.379   6.154 -0.0937  0.0688 -0.2762
 7811W        W 7811   3.035   6.638   3.220  0.0121 -0.1328 -0.1496
 7812W        W 7812   9.313   9.703   8.746 -0.2643 -0.3269 -0.2157
 7813W        W 7813   4.655   3.883   9.907  0.3130 -0.0749  0.1070
 7814W        W 7814   1.271   3.822   2.797  0.0199 -0.1800 -0.3286
 7815W        W 7815   8.265   2.574   4.697  0.3529  0.0997  0.0988
 7816W        W 7816   7.986   2.338   3.790  0.0016  0.1572 -0.3294
 7817W        W 7817   1.923   4.721   0.071  0.0575 -0.0576  0.0334
 7818W        W 7818   1.443   5.584   4.508  0.1599  0.4064 -0.4172
 7819W        W 7819   0.669   4.505   9.736  0.1452 -0.0031 -0.0630
 7820W        W 7820   2.514   3.254   4.568 -0.1935  0.1361 -0.0668
 7821W        W 7821   5.397   7.182   2.321 -0.2008  0.1581 -0.2145
 7822W        W 7822   5.506   6.780   7.265 -0.3358  0.0567 -0.2018
 7823W        W 7823  10.295   2.809   4.584 -0.0543  0.0447 -0.0649
 7824W        W 7824   3.824   4.974   9.951 -0.2084 -0.7305  0.0135
 7825W        W 7825   6.597   3.689   6.720 -0.1564  0.0932  0.1037
 7826W        W 7826   2.742   8.724   6.617 -0.0965  0.0550 -0.1042
 7827W        W 7827   5.336   4.126   9.413  0.1556  0.2137 -0.0991
 7828W        W 7828  10.041   1.060   1.560 -0.0446  0.0847 -0.2804
 7829W        W 7829   2.698  10.116   6.150  0.0563  0.1370 -0.3301
 7830W        W 7830   6.750   7.596   7.292 -0.0767  0.0773  0.0133
 7831W        W 7831   7.534   4.203   8.084 -0.1060  0.0527  0.2225
 7832W        W 7832   2.733   8.407   1.277  0.0417 -0.1994  0.2400
 7833W        W 7833   7.565   8.713   4.848  0.2643 -0.0714  0.1894
 7834W        W 7834   5.154   7.599   2.948 -0.1494  0.2317  0.1561
 7835W        W 7835   3.945   8.170   0.242 -0.1677 -0.3558  0.0812
 7836W        W 7836   0.711   2.225   4.155 -0.1257 -0.0794  0.0486
 7837W        W 7837   5.853   5.103   2.426 -0.0976  0.2229 -0.1758
 7838W        W 7838   7.836   7.329   0.441 -0.1905  0.1114  0.0803
 7839W        W 7839   1.648   2.043   5.033 -0.1109  0.2184  0.2073
 7840W        W 7840   5.689   6.767   1.079  0.1421 -0.1765  0.1003
 7841W        W 7841   3.867   0.800   7.556 -0.1669  0.0578 -0.2536
 7842W        W 7842   5.398   7.084   9.517  0.0041  0.1565  0.0619
 7843W        W 7843   9.632   3.800   4.779  0.2059  0.1676 -0.0528
 7844W        W 7844   4.857   6.245   0.877  0.1751  0.1199 -0.2655
 7845W        W 7845   5.796   9.217   3.391  0.0463 -0.0085 -0.1205
 7846W        W 7846   1.185   3.310   6.371  0.1767  0.0315  0.1067
 7847W        W 7847   1.263   6.124   3.704  0.0665  0.1607  0.0936
 7848W        W 7848   0.421   4.102   7.270  0.2396  0.0477  0.1590
 7849W        W 7849   4.834   1.647   5.503  0.2803  0.0464  0.0170
 7850W        W 7850   9.428   4.486   7.940  0.2441  0.0724  0.0816
 7851W        W 7851   7.141   7.908   5.909  0.2983  0.1937 -0.1705
 7852W        W 7852   5.689   9.027   1.778  0.2009 -0.4317  0.0826
 7853W        W 7853   4.991   6.911   9.809  0.3191  0.1516  0.1855
 7854W        W 7854   8.966   4.498   7.350  0.0757 -0.0015  0.1952
 7855W        W 7855   4.613   5.464   0.048 -0.1413 -0.4213  0.0004
 7856W        W 7856   8.282   7.386   4.069 -0.1056  0.0914 -0.0388
 7857W        W 7857  10.261   9.037   6.702  0.2519 -0.0940 -0.1410
 7858W        W 7858   7.228   5.877   6.258 -0.2990 -0.1271 -0.3365
 7859W        W 7859   8.114   0.939   2.054 -0.0067  0.2016 -0.1186
 7860W        W 7860   1.361   8.111   6.764  0.0168 -0.2272  0.2188
 7861W        W 7861   1.226   9.808   7.032 -0.0451 -0.1271 -0.1626
 7862W        W 7862   4.069   0.415   2.885  0.3335 -0.2263 -0.2766
 7863W        W 7863   7.926   8.666   7.534 -0.0171  0.1149 -0.0341
 7864W        W 7864   4.571   6.224   3.709  0.1105  0.0394 -0.1139
 7865W        W 7865   7.431   2.193   1.526  0.2891 -0.1982  0.1817
 7866W        W 7866   3.481   9.459   1.363  0.0883  0.0920 -0.0881
 7867W        W 7867   6.773   1.172   3.856 -0.1185  0.1226  0.0966
 7868W        W 7868   5.258   4.401   1.438  0.1039 -0.2722  0.3117
 7869W        W 7869   3.746   7.862   6.879  0.0922 -0.1613 -0.2988
 7870W        W 7870   1.213   7.567   5.398 -0.1819 -0.2084 -0.0738
 7871W        W 7871   3.008   3.459   8.919 -0.0580  0.0909 -0.0089
 7872W        W 7872   0.924   2.721   4.819  0.0265  0.1729 -0.1579
 7873W        W 7873   2.526   6.866   1.948 -0.0057 -0.1134  0.0862
 7874W        W 7874   0.905   3.803   9.911  0.1202  0.3489 -0.0135
 7875W        W 7875   0.059   5.984   7.507 -0.0331 -0.2179 -0.0895
 7876W        W 7876   3.426   8.184   2.458  0.0612  0.0090 -0.0993
 7877W        W 7877   5.514   9.880   1.732  0.0155 -0.1851 -0.2465
 7878W        W 7878   5.393   7.003  10.056  0.1587  0.2219  0.0768
 7879W        W 7879   8.140   9.652   3.622 -0.0400 -0.0127 -0.0327
 7880W        W 7880   1.022   9.366   5.925  0.1402 -0.0749 -0.3689
 7881W        W 7881   5.128   0.458   8.358 -0.0581 -0.1753  0.1107
 7882W        W 7882   7.426   6.854   3.418  0.2954 -0.0494 -0.0089
 7883W        W 7883   8.826   1.765   7.223 -0.1429  0.2203  0.2937
 7884W        W 7884   5.808   2.053   5.230  0.3092  0.0288 -0.0296
 7885W        W 7885   7.164   9.621   8.557 -0.2197  0.1698  0.0206
 7886W        W 7886   0.930   5.574   7.747  0.1741 -0.0485 -0.0102
 7887W        W 7887   8.830   6.999   2.679 -0.0901 -0.4009 -0.1829
 7888W        W 7888   6.164   5.283   9.680  0.1233 -0.0448 -0.3427
 7889W        W 7889   0.802   3.646   2.767 -0.1451  0.2313 -0.0160
 7890W        W 7890   7.488   5.990   8.193  0.0990 -0.2124  0.0237
 7891W        W 7891   0.479   2.486   9.605  0.1988 -0.5731 -0.2188
 7892W        W 7892   3.271   6.969   5.718 -0.2254 -0.2966  0.0044
 7893W        W 7893   8.483   2.531   0.379 -0.2721 -0.2389 -0.1143
 7894W        W 7894   9.827   0.040   8.282 -0.3609  0.1695  0.1985
 7895W        W 7895   8.944   7.512   4.537 -0.0102 -0.3801 -0.4122
 7896W        W 7896   7.072   6.464   4.306 -0.0365 -0.0450  0.2928
 7897W        W 7897   7.254   1.963   9.260  0.0137  0.1025 -0.0963
 7898W        W 7898   7.097   4.917   6.507  0.1016 -0.0590  0.1624
 7899W        W 7899   4.314   3.974   4.163 -0.0778  0.0882 -0.1735
 7900W        W 7900   3.276   2.095   3.035  0.1092 -0.0239  0.0864
 7901W        W 7901  10.287   9.104   7.557 -0.0908  0.0054  0.0020
 7902W        W 7902   4.660   9.102  10.080 -0.0600  0.2833  0.2212
 7903W        W 7903   2.740   6.972   5.576  0.1756 -0.0191  0.1056
 7904W        W 7904   9.261   1.344   4.339  0.1372  0.0023 -0.0406
 7905W        W 7905   7.859   6.152   5.001  0.0551 -0.0281  0.1456
 7906W        W 7906   1.462   4.862   3.711  0.1087 -0.0230 -0.0615
 7907W        W 7907   2.584   1.417   7.185 -0.1060  0.2090 -0.1669
 7908W        W 7908   2.596   1.802   7.909 -0.0933  0.0778  0.0919
 7909W        W 7909   5.193   1.544   1.932 -0.0511  0.0047  0.1933
 7910W        W 7910   1.266   6.308   7.221 -0.1656  0.0056  0.1051
 7911W        W 7911  10.277   7.573  10.233  0.1654 -0.3804 -0.0253
 7912W        W 7912   6.134   1.460   8.789  0.0594  0.2097 -0.1679
 7913W        W 7913   7.921   1.489   4.508  0.2898 -0.5275  0.0765
 7914W        W 7914   5.958   8.778   5.404 -0.0982  0.0642 -0.2592
 7915W        W 7915   6.473   7.542   6.898  0.1959  0.2205  0.0605
 7916W        W 7916   8.401   9.179   4.561  0.0510  0.2476 -0.2262
 7917W        W 7917   5.299   8.928   2.711  0.1435 -0.3798 -0.2384
 7918W        W 7918   6.661   1.461   8.677  0.0896 -0.1477  0.3528
 7919W        W 7919   4.353   1.859   0.210  0.3400 -0.1382 -0.0377
 7920W        W 7920   5.441   4.060   8.751 -0.0910 -0.2447 -0.4437
 7921W        W 7921   8.235   2.148   9.083 -0.1558 -0.0603 -0.3055
 7922W        W 7922   3.599   5.109   2.154 -0.2133  0.1121 -0.2886
 7923W        W 7923  10.169   3.898   2.823  0.2668 -0.2762 -0.0535
 7924W        W 7924  10.252   3.055   8.641 -0.2395  0.2596 -0.3759
 7925W        W 7925  10.183   7.238   7.725 -0.1450  0.2011 -0.2465
 7926W        W 7926   4.745   8.487   5.482  0.0553  0.1272 -0.1338
 7927W        W 7927   2.536   8.959   4.824 -0.0369 -0.2280  0.0586
 7928W        W 7928   0.331   9.235   9.288 -0.1978 -0.4329  0.0324
 7929W        W 7929   6.968   2.689   8.632  0.1119 -0.0836  0.2029
 7930W        W 7930   4.465   4.823   0.179  0.2065 -0.1944  0.3271
 7931W        W 7931   8.024   1.265   4.987  0.0676  0.1031  0.0055
 7932W        W 7932   8.683   2.923   7.902 -0.0368 -0.1213 -0.0655
 7933W        W 7933   3.675   2.577  10.230 -0.0899  0.0202 -0.0971
 7934W        W 7934   5.770  10.132  10.112  0.2595  0.2519  0.0176
 7935W        W 7935   6.073   0.612   2.391  0.0935 -0.1841 -0.3235
 7936W        W 7936   6.129   4.383   6.337 -0.2360 -0.0100 -0.0649
 7937W        W 7937   1.604   7.031   7.234 -0.1759  0.0364  0.3352
 7938W        W 7938   0.291   1.954   4.488  0.0794 -0.0372  0.1585
 7939W        W 7939   0.342   0.267  10.281  0.2975  0.3774  0.0920
 7940W        W 7940   5.945   1.169   6.473 -0.0950 -0.2980  0.2025
 7941W        W 7941   7.196  10.180   2.695  0.0212 -0.2005 -0.3741
 7942W        W 7942   9.250   9.715   9.259  0.2062  0.1056  0.0151
 7943W        W 7943   3.185   6.606   6.803  0.2286 -0.0870 -0.0521
 7944W        W 7944   2.529   8.029   3.286 -0.2221  0.0904  0.1595
 7945W        W 7945   6.751   8.248   3.532 -0.0306  0.1965  0.2636
 7946W        W 7946   4.233   6.747   8.114 -0.0620  0.0653 -0.0742
 7947W        W 7947   6.428   7.127   5.248 -0.3460 -0.0752  0.0112
 7948W        W 7948   5.465   9.325   4.353  0.3018  0.1258  0.2213
 7949W        W 7949   4.481   2.953   5.602 -0.1599  0.0951  0.1378
 7950W        W 7950   4.946   6.648   6.356  0.3243  0.2630 -0.1749
 7951W        W 7951   7.858   6.714   5.022  0.0608  0.3731  0.2182
 7952W        W 7952   6.543   0.668   2.537  0.2907 -0.0307  0.2543
 7953W        W 7953   5.524   5.768   7.232  0.0967  0.0756 -0.1255
 7954W        W 7954   3.078   7.886   2.694  0.0481 -0.0285  0.2190
 7955W        W 7955   5.143   6.990   8.056 -0.0980  0.1093 -0.0487
 7956W        W 7956   0.202   0.783   9.612 -0.0437 -0.2225  0.0634
 7957W        W 7957   7.435   4.171   9.894 -0.3640 -0.0385  0.0982
 7958W        W 7958   5.368   2.335   3.631 -0.0751 -0.1039  0.3330
 7959W        W 7959   4.503   6.324   1.912  0.0033 -0.2024 -0.0807
 7960W        W 7960   4.163   5.083   5.917 -0.0074  0.3444 -0.0076
 7961W        W 7961   2.468   2.500   8.473  0.2415 -0.4169  0.2883
 7962W        W 7962   1.967   9.981   5.994 -0.0071 -0.0643 -0.0777
 7963W        W 7963   3.844   7.256   5.735 -0.1096  0.1649 -0.2184
 7964W        W 7964   5.984   9.968   5.010 -0.2823  0.2156 -0.2762
 7965W        W 7965   8.331   8.331   2.628  0.0921 -0.0048 -0.1107
 7966W        W 7966   5.296   5.730   2.718  0.1339  0.1848  0.2221
 7967W        W 7967   2.797   2.751   5.413  0.0318  0.0345 -0.0182
 7968W        W 7968   2.524   0.901   5.945 -0.4273  0.0407 -0.3795
 7969W        W 7969   3.886   2.145   8.764 -0.2112  0.1858 -0.0764
 7970W        W 7970   1.313   3.115   1.866  0.0638  0.1083  0.1206
 7971W        W 7971   6.082   6.482   8.236 -0.0726 -0.0463  0.1115
 7972W        W 7972   3.581   6.999   7.775 -0.2609 -0.1925 -0.0840
 7973W        W 7973   3.897   5.242   7.500  0.0412 -0.0106 -0.2409
 7974W        W 7974   0.014   5.718   7.093 -0.1361 -0.2227 -0.0318
 7975W        W 7975   4.319   0.637   0.355 -0.2282  0.3026 -0.0301
 7976W        W 7976   8.063   3.421   8.469  0.0433  0.1659  0.1500
 7977W        W 7977   3.245   8.695   3.721 -0.2024 -0.1177  0.1126
 7978W        W 7978   1.231   5.245   6.618  0.1257 -0.0145 -0.1113
 7979W        W 7979   1.738   0.624   8.048 -0.2315 -0.1844  0.1412
 7980W        W 7980   7.686   5.427   5.162  0.0044 -0.0714 -0.0165
 7981W        W 7981   9.863   0.747   2.454 -0.0499 -0.1421 -0.1765
 7982W        W 7982   5.027   2.385   0.599  0.2851  0.2829 -0.1755
 7983W        W 7983   6.704   4.497   9.749  0.1479  0.2301 -0.2335
 7984W        W 7984   8.561   3.865   5.766 -0.2006  0.0673 -0.2413
 7985W        W 7985   3.006  10.225  10.202 -0.0596  0.2784 -0.0967
 7986W        W 7986   4.065   4.465   6.384 -0.3319 -0.1023  0.2153
 7987W        W 7987   9.144  10.124   0.701  0.2005  0.2559 -0.0897
 7988W        W 7988  10.250   3.660   0.546  0.1865 -0.1826 -0.1145
 7989W        W 7989   6.424   7.003   8.605  0.1108  0.0283  0.3073
 7990W        W 7990   4.307   6.114   5.480 -0.0114 -0.0526  0.1832
 7991W        W 7991   8.112   8.108   4.822 -0.0923 -0.1837  0.0663
 7992W        W 7992   9.747   4.195   7.712  0.2910  0.1636  0.0652
 7993W        W 7993   7.371   6.408   1.388 -0.0912  0.0905 -0.1880
 7994W        W 7994   8.206   4.254   5.653 -0.0749 -0.3167 -0.0747
 7995W        W 7995   9.756   6.809   8.919  0.0557 -0.0777 -0.2306
 7996W        W 7996   3.782   7.881   0.648 -0.0257  0.0817  0.0733
 7997W        W 7997   3.542   6.307   8.597  0.0743  0.1459 -0.1105
 7998W        W 7998   8.558  10.264   8.446 -0.2053  0.2759 -0.0233
 7999W        W 7999   7.156   6.538   5.901 -0.0495  0.2021 -0.0770
 8000W        W 8000   9.708   7.861   2.252 -0.0846 -0.3207 -0.0853
 8001W        W 8001   3.771   5.401   7.973 -0.3312 -0.0475 -0.0291
 8002W        W 8002   4.988   3.553   6.147 -0.2010  0.0879  0.0535
 8003W        W 8003   1.190   8.285   2.435 -0.1449  0.1258  0.2144
 8004W        W 8004   1.042   0.237   9.100  0.1430 -0.0708  0.0110
 8005W        W 8005   3.000   9.200   6.763 -0.0307 -0.4173  0.1035
 8006W        W 8006   5.933   7.202   5.290 -0.1533 -0.1666  0.0458
 8007W        W 8007   2.697  10.144   3.235  0.2771  0.4515 -0.3115
 8008W        W 8008   1.951   3.950   3.979 -0.0095  0.0170 -0.0379
 8009W        W 8009   1.858   4.325   7.508  0.0665 -0.3137  0.0667
 8010W        W 8010   0.440   2.619   1.749 -0.4156  0.0675 -0.0233
 8011W        W 8011   7.201   3.398   1.473  0.0913 -0.0095  0.1579
 8012W        W 8012   6.226   6.020   3.222 -0.0148  0.2236 -0.0352
 8013W        W 8013   5.083   3.095   9.009  0.0659  0.0332  0.2463
 8014W        W 8014   3.380   4.049   4.133  0.1125 -0.0561  0.0890
 8015W        W 8015   9.325   2.660   4.282  0.2001  0.3170  0.1724
 8016W        W 8016   7.213  10.225   1.826 -0.1872 -0.1041 -0.0361
 8017W        W 8017   1.277   8.910   1.815  0.1844  0.0484 -0.0019
 8018W        W 8018   6.791   2.237   7.916  0.1445 -0.0876  0.2549
 8019W        W 8019   7.292   0.743   3.171  0.0883 -0.0129  0.0508
 8020W        W 8020   1.608   6.239   8.428 -0.0627 -0.2313 -0.4138
 8021W        W 8021   9.775   4.952   2.014 -0.2021  0.1522  0.0211
 8022W        W 8022   3.627   5.476   3.451 -0.1180 -0.0480  0.1255
 8023W        W 8023   0.475   6.244   0.123  0.0310  0.1445 -0.1669
 8024W        W 8024   2.862   6.519   5.636 -0.1176  0.1567  0.1107
 8025W        W 8025   5.301   2.254   2.642  0.1666  0.1179  0.2128
 8026W        W 8026   7.269   4.845   4.992  0.1461  0.0399  0.0642
 8027W        W 8027   2.226   6.503   1.965 -0.0511  0.0953  0.0732
 8028W        W 8028   9.458   8.102   3.950  0.0557  0.1314 -0.0720
 8029W        W 8029   5.600   2.307   1.389  0.0641  0.2110 -0.3075
 8030W        W 8030   6.648   5.673   4.480 -0.2833 -0.1591  0.0997
 8031W        W 8031   6.119   6.053   8.587 -0.2744 -0.1292  0.0787
 8032W        W 8032   9.291   5.075   2.101 -0.4312  0.4424 -0.0389
 8033W        W 8033   6.971   3.584   3.123 -0.1909  0.1829 -0.0499
 8034W        W 8034   2.483   2.704   7.598  0.4493 -0.1352  0.0532
 8035W        W 8035   8.485   5.715   4.725  0.0861  0.1905 -0.1463
 8036W        W 8036   0.204   2.443   3.471 -0.1994  0.2038 -0.1837
 8037W        W 8037   2.733   4.512   2.356 -0.4262 -0.3395 -0.0120
 8038W        W 8038   3.631   1.607   7.352 -0.0281  0.4648  0.2673
 8039W        W 8039   5.482   2.388   9.968 -0.0085  0.1604  0.0992
 8040W        W 8040   0.124   1.124   4.191 -0.4198 -0.0551 -0.1851
 8041W        W 8041   5.415   4.305   0.499  0.3067  0.0030  0.1588
 8042W        W 8042   3.995   6.447   6.142  0.3684 -0.0825  0.2246
 8043W        W 8043   7.426  10.258   6.602  0.2449 -0.2123 -0.3272
 8044W        W 8044   7.313   9.706   4.842 -0.1526 -0.0680  0.4304
 8045W        W 8045   4.831   2.078   0.243  0.0505  0.1113  0.3394
 8046W        W 8046   5.659   5.364   9.392 -0.2085  0.1420  0.0343
 8047W        W 8047   2.367   3.591   1.738  0.0481 -0.1508 -0.0865
 8048W        W 8048   1.350   6.926   4.171  0.2629 -0.2141 -0.1406
 8049W        W 8049   0.687   1.634   9.825 -0.0157  0.1529  0.2611
 8050W        W 8050   6.393   1.701   9.531  0.0989  0.1461  0.2781
 8051W        W 8051   6.241   5.290   8.083 -0.0534  0.1476 -0.3029
 8052W        W 8052   3.482   9.112   4.561 -0.2880  0.0430 -0.1281
 8053W        W 8053   5.558   6.382   5.248  0.3238 -0.1873  0.1183
 8054W        W 8054   9.747   2.680   0.279 -0.1173 -0.3437 -0.0356
 8055W        W 8055   5.218   8.292   1.939 -0.2201  0.1544 -0.0600
 8056W        W 8056   8.979   6.171   6.956  0.1467  0.0530  0.2203
 8057W        W 8057   3.848   8.451   7.823  0.1829 -0.0234 -0.0878
 8058W        W 8058   3.414   7.885   3.232 -0.1803  0.2982  0.0394
 8059W        W 8059   9.442   8.588   7.179 -0.0659 -0.2596 -0.1278
 8060W        W 8060   5.603   5.268   9.873  0.1719 -0.1691 -0.4540
 8061W        W 8061   5.480   3.204   1.922  0.1915  0.2772  0.1695
 8062W        W 8062   2.915  10.076   1.156  0.0561 -0.3404 -0.0451
 8063W        W 8063   9.251   1.710  10.001  0.0701 -0.1878  0.2285
 8064W        W 8064   1.976   0.160   7.314 -0.2214  0.0479  0.3761
 8065W        W 8065   8.390   2.912   7.525  0.1518  0.1427  0.0383
 8066W        W 8066   2.454   0.117   3.749 -0.1480  0.1374  0.0398
 8067W        W 8067   9.562   0.523   3.910  0.1410  0.4893  0.1043
 8068W        W 8068   3.341   8.696  10.190 -0.0532  0.2498  0.0035
 8069W        W 8069   2.768   6.181   5.215 -0.2840 -0.0091  0.1286
 8070W        W 8070   8.531   0.348   5.975 -0.0917 -0.2790  0.3671
 8071W        W 8071   5.823   5.866   5.114 -0.1004 -0.1049 -0.1956
 8072W        W 8072   6.905   8.178   0.343  0.0897  0.3771  0.0656
 8073W        W 8073   9.838   6.180   9.294  0.1789 -0.1902  0.0478
 8074W        W 8074   6.089   6.280   2.298 -0.1262 -0.1975  0.2099
 8075W        W 8075   0.058   9.866   5.657  0.0047  0.0544 -0.0221
 8076W        W 8076   6.433   6.450   9.856 -0.2819  0.0092  0.2370
 8077W        W 8077   8.531   8.971   6.719  0.2324 -0.2450  0.2852
 8078W        W 8078   1.447   5.023   9.888  0.1662 -0.1586 -0.4238
 8079W        W 8079   6.512   4.431   7.285 -0.2396 -0.2047 -0.0163
 8080W        W 8080   4.201   8.222   9.118 -0.1541 -0.0868 -0.0479
 8081W        W 8081   2.341   8.872   9.335  0.0317 -0.3079  0.3683
 8082W        W 8082  10.192   4.972   6.301 -0.0334  0.0914 -0.0579
 8083W        W 8083   4.946   4.752   8.314  0.1235 -0.0630 -0.3008
 8084W        W 8084   3.151  10.283   0.727  0.1942 -0.1835  0.1888
 8085W        W 8085   1.553   5.909   9.441 -0.0515  0.1418  0.2055
 8086W        W 8086   5.941   3.553   3.807 -0.1625  0.1243  0.0220
 8087W        W 8087   3.815   2.335   6.153  0.1531 -0.0578  0.0388
 8088W        W 8088   0.409   6.949   5.334 -0.0686 -0.1818  0.0290
 8089W        W 8089   8.035   8.986   0.018  0.1346  0.0025  0.1586
 8090W        W 8090   3.833   8.967   2.315  0.3222  0.2087  0.0998
 8091W        W 8091   4.609   5.513   9.914  0.0108  0.2170 -0.1377
 8092W        W 8092   1.045   7.853   4.249 -0.0872 -0.3019  0.0377
 8093W        W 8093   7.250   7.002   1.738  0.2087  0.1750 -0.1734
 8094W        W 8094   8.818   4.167   2.346 -0.2493  0.0471  0.0693
 8095W        W 8095   0.445   7.412   9.554  0.0435  0.0158 -0.0020
 8096W        W 8096   6.009   5.909   8.103 -0.0620 -0.0049 -0.2366
 8097W        W 8097   1.847   5.979   6.938 -0.0154 -0.0282 -0.3028
 8098W        W 8098   5.092   4.704   0.710  0.3808 -0.1079  0.4236
 8099W        W 8099   4.486   5.082   3.001  0.1476 -0.0548 -0.1087
 8100W        W 8100   3.857   2.538   8.022  0.5265 -0.0599  0.2741
 8101W        W 8101   2.074   5.019   4.115  0.2734 -0.0039  0.3860
 8102W        W 8102   9.150   4.546   4.242 -0.0185  0.3673  0.3226
 8103W        W 8103   2.085   5.298   5.871 -0.1823 -0.0246  0.1587
 8104W        W 8104   8.480   6.289   7.616 -0.1063 -0.0076 -0.0839
 8105W        W 8105   4.423   6.311   6.443 -0.2580 -0.0618  0.1472
 8106W        W 8106   1.948   9.751   9.426  0.0357 -0.1033  0.4885
 8107W        W 8107   1.902   7.842   2.722  0.4930  0.0281  0.1934
 8108W        W 8108   4.567   7.824   9.208 -0.2127  0.0758  0.3331
 8109W        W 8109   7.407   5.090   5.473 -0.0861  0.0726 -0.0504
 8110W        W 8110   7.267   0.799   3.690 -0.3064  0.0348  0.3473
 8111W        W 8111   4.994   8.483   3.939 -0.2223  0.2006  0.2027
 8112W        W 8112   6.470   8.833   9.707  0.0037  0.3909 -0.0958
 8113W        W 8113   7.486   6.442   8.496  0.0642 -0.1476  0.0889
 8114W        W 8114   9.717   7.294   2.823 -0.2361 -0.0668  0.1934
 8115W        W 8115   0.365   1.777   1.258  0.3772  0.2863 -0.0955
 8116W        W 8116   9.885   8.833   2.328  0.1244  0.0556  0.0784
 8117W        W 8117   1.977   0.368   2.402 -0.1789 -0.2515  0.0955
 8118W        W 8118   5.466   1.020   7.699 -0.1036  0.0551  0.1070
 8119W        W 8119   0.551   0.293   9.290  0.3502  0.1450  0.0260
 8120W        W 8120   3.229   9.605   5.874 -0.3314  0.2542  0.1832
 8121W        W 8121   9.688   0.646   9.020  0.0116  0.2070 -0.0262
 8122W        W 8122   2.158   1.582  10.134 -0.2106  0.1074 -0.0190
 8123W        W 8123  10.249   6.964   6.504 -0.0872 -0.0471 -0.1057
 8124W        W 8124   6.295   1.127   3.685  0.1678  0.0117  0.1725
 8125W        W 8125   1.755   4.493   1.129 -0.0525 -0.0845  0.2727
 8126W        W 8126   2.664   1.816   7.418  0.0656 -0.0770 -0.3560
 8127W        W 8127   8.941   1.738   4.318 -0.0931  0.0868 -0.2157
 8128W        W 8128   6.774   6.658   6.991 -0.0347 -0.0198  0.0592
 8129W        W 8129   6.391   3.874   6.216  0.2497 -0.0431  0.2421
 8130W        W 8130   8.026   1.094   2.940  0.0508  0.2823 -0.0285
 8131W        W 8131   8.224   8.196   1.979 -0.3278 -0.2766 -0.0893
 8132W        W 8132   6.871   5.468   7.116 -0.1948 -0.1164 -0.1296
 8133W        W 8133   5.372   6.064   1.817  0.2511 -0.0441  0.4525
 8134W        W 8134   0.865   0.779   1.549  0.4745 -0.0375  0.1043
 8135W        W 8135   5.763   2.966   5.202  0.1129  0.4203 -0.1643
 8136W        W 8136   9.490   4.028   6.929  0.1427  0.2238  0.3837
 8137W        W 8137   6.206   8.968   0.641 -0.0883 -0.3785 -0.3459
 8138W        W 8138   2.959   7.198   3.199 -0.1308  0.1466 -0.1916
 8139W        W 8139   6.006   6.453   9.001 -0.0651  0.1249  0.1018
 8140W        W 8140   7.870   2.956   5.581  0.2747 -0.3296 -0.0651
 8141W        W 8141   7.247   7.918   2.101  0.3040 -0.2406  0.0173
 8142W        W 8142   9.085   8.933   4.138  0.1959 -0.0754  0.0604
 8143W        W 8143   8.677   6.566   2.394  0.0459 -0.1041  0.0121
 8144W        W 8144   9.202   6.934   8.110 -0.0386 -0.0496  0.1599
 8145W        W 8145   9.506   0.580   8.112 -0.2454  0.1490  0.1745
 8146W        W 8146   1.780   3.853   3.494  0.3849  0.2819  0.0942
 8147W        W 8147   8.015   9.321   5.860  0.1182  0.1657 -0.1483
 8148W        W 8148   6.929   4.991  10.288  0.3064  0.0371  0.0076
 8149W        W 8149   6.882   0.978   2.892  0.0315  0.1464  0.0850
 8150W        W 8150   8.395   8.474   9.363 -0.1275 -0.1406 -0.1301
 8151W        W 8151   2.524   3.847   2.294  0.1341  0.1028  0.0308
 8152W        W 8152   5.247   3.307   0.038  0.3551  0.0352 -0.0399
 8153W        W 8153   1.525   2.621   4.617 -0.2630  0.1180  0.0393
 8154W        W 8154   3.768   7.759   4.271  0.0868 -0.0463  0.0463
 8155W        W 8155   0.741   3.996   8.863 -0.1338 -0.1036  0.1593
 8156W        W 8156   4.527   1.048   1.346 -0.2427 -0.0116 -0.1494
 8157W        W 8157   4.133   6.915   6.041  0.1160  0.1065 -0.0793
 8158W        W 8158   7.259   3.903   7.171  0.0346 -0.2114  0.0644
 8159W        W 8159   5.792   3.893   4.090  0.0566  0.2592 -0.0184
 8160W        W 8160   4.658   0.787   6.985 -0.2630  0.0580 -0.0085
 8161W        W 8161   0.321   2.013   2.582 -0.0489 -0.0721 -0.0098
 8162W        W 8162   7.683   0.657   6.180 -0.0693 -0.2515  0.1752
 8163W        W 8163   1.158   2.930   7.998 -0.1867 -0.0063  0.0245
 8164W        W 8164   2.485   9.870   4.969  0.0799 -0.1986  0.0826
 8165W        W 8165   0.115   0.401   7.272 -0.1454 -0.0771  0.3209
 8166W        W 8166   5.583   5.895   1.312  0.2374 -0.4652  0.0230
 8167W        W 8167   4.290   2.854   4.663  0.1311  0.1426 -0.1464
 8168W        W 8168   4.465   4.894   7.147  0.2459 -0.3310  0.1580
 8169W        W 8169   4.598   8.747   6.785 -0.2658  0.1899  0.3862
 8170W        W 8170   4.049   8.614   4.426 -0.1714 -0.1534  0.1626
 8171W        W 8171   4.566   2.402   3.090 -0.1027 -0.1739 -0.0291
 8172W        W 8172   1.744   5.469   9.681 -0.1561  0.0162  0.1474
 8173W        W 8173   5.914   3.505   1.227 -0.2459 -0.0078  0.2978
 8174W        W 8174   0.044   7.184   8.720 -0.0185  0.1400 -0.0337
 8175W        W 8175   7.345   3.064   8.412 -0.0183  0.0947  0.0433
 8176W        W 8176   9.432   4.964   0.231  0.2851  0.1312 -0.2343
 8177W        W 8177   6.065   9.546   8.462 -0.0958  0.2922  0.0134
 8178W        W 8178   6.588   4.492   1.960  0.0056  0.1222  0.2434
 8179W        W 8179   4.063   7.013  10.003 -0.0853  0.1249  0.2320
 8180W        W 8180   7.571   7.321   5.990 -0.2927  0.2750  0.1472
 8181W        W 8181   7.122   2.860   9.443 -0.1674 -0.0491 -0.3126
 8182W        W 8182   3.291   9.661   3.677  0.2991  0.0036 -0.0938
 8183W        W 8183   6.830   0.889   3.426 -0.1374 -0.1885  0.2424
 8184W        W 8184   6.254   5.482   1.502 -0.0027 -0.5990 -0.1068
 8185W        W 8185   2.815   0.948   0.245  0.2302 -0.0295  0.0489
 8186W        W 8186   1.918   0.887   3.714 -0.0056 -0.1495 -0.0498
 8187W        W 8187   9.996   2.090   2.364 -0.0680  0.3063  0.1464
 8188W        W 8188   4.551   8.946   3.572 -0.0359 -0.0662 -0.2621
 8189W        W 8189   8.923   5.614   2.530  0.1014 -0.2430 -0.0406
 8190W        W 8190   4.160   8.691   3.350 -0.2283 -0.0035 -0.0128
 8191W        W 8191   2.462   5.870   0.090  0.1629  0.2268  0.0292
 8192W        W 8192   0.510   3.943   2.398 -0.1580  0.0707  0.0007
 8193W        W 8193   4.808   6.310   6.031  0.0460  0.1097  0.0339
 8194W        W 8194   7.249   1.681   0.793 -0.2190 -0.0244 -0.3628
 8195W        W 8195   4.220   7.408   9.105  0.2021 -0.0566  0.0280
 8196W        W 8196   8.482   3.445   5.155 -0.1038 -0.0775 -0.1827
 8197W        W 8197   1.334   2.916   0.941  0.1634  0.1021  0.1400
 8198W        W 8198   2.334   0.021   1.716 -0.1471 -0.0145  0.0658
 8199W        W 8199   1.811   9.064   7.472  0.0521 -0.1145  0.3795
 8200W        W 8200   6.753   7.487   4.434 -0.1081 -0.0292 -0.1364
 8201W        W 8201  10.202   1.930   1.923  0.1515 -0.0785 -0.0339
 8202W        W 8202   3.270   0.101   4.254 -0.2230  0.3493 -0.0958
 8203W        W 8203   7.540   0.475   4.532 -0.1433 -0.2029 -0.0585
 8204W        W 8204   9.892   8.617   9.789 -0.1351 -0.0418  0.0504
 8205W        W 8205   8.461   3.461   6.123 -0.1595 -0.1737  0.0996
 8206W        W 8206   8.433   1.531   7.525 -0.1044 -0.5152  0.1702
 8207W        W 8207   3.804   5.392   1.704  0.1343 -0.2560 -0.2899
 8208W        W 8208   0.652   3.268   2.514 -0.0428  0.1193 -0.2030
 8209W        W 8209  10.242   6.595   2.223 -0.0205  0.4354 -0.3131
 8210W        W 8210   0.852   6.662   8.948  0.0592  0.5877 -0.1255
 8211W        W 8211   6.203   7.744   2.324 -0.2636 -0.2061 -0.2554
 8212W        W 8212   0.624  10.255   0.768 -0.1078 -0.2061  0.0736
 8213W        W 8213   2.695   7.923   5.613 -0.1501 -0.1236 -0.0278
 8214W        W 8214   4.890   8.129   5.966 -0.0509 -0.2622  0.2450
 8215W        W 8215   8.539   2.032   8.662 -0.1400  0.1329  0.1074
 8216W        W 8216   5.370   2.277   5.340  0.1877  0.0197  0.0939
 8217W        W 8217   2.174   6.824   7.836  0.2317  0.0234 -0.0626
 8218W        W 8218   1.869   6.264   1.735 -0.1799  0.4056  0.0217
 8219W        W 8219   3.020   2.190   8.621  0.0925  0.2130 -0.0371
 8220W        W 8220   0.333   5.504   5.701  0.3148  0.0025 -0.3987
 8221W        W 8221   1.727   9.485   5.221 -0.0645  0.1561  0.0394
 8222W        W 8222   8.676   2.227   5.516  0.0587  0.1481 -0.0165
 8223W        W 8223   6.781   9.837   9.020  0.0006 -0.0775  0.1299
 8224W        W 8224   3.997   8.661   9.274 -0.0174 -0.1043 -0.0591
 8225W        W 8225   6.272   4.231   3.290  0.2529 -0.0959  0.2507
 8226W        W 8226   9.175   3.037   4.719  0.1249 -0.0201  0.2182
 8227W        W 8227   5.595   9.409   0.183 -0.1703  0.0578  0.3960
 8228W        W 8228   3.116   3.066   8.594 -0.1141  0.1965 -0.3335
 8229W        W 8229   4.218   3.411   9.293  0.1103 -0.1263 -0.2987
 8230W        W 8230   3.368   3.703   5.043  0.4328  0.1964  0.1016
 8231W        W 8231   2.094   5.214   7.261  0.0013  0.1211 -0.1013
 8232W        W 8232   0.219   1.742   2.210 -0.0111  0.2716  0.2019
 8233W        W 8233   8.963   9.134   1.012 -0.2794 -0.0588 -0.0753
 8234W        W 8234   2.198   0.936   9.560 -0.0664 -0.1155 -0.0307
 8235W        W 8235   1.259   7.865   0.775 -0.2817  0.3521 -0.1147
 8236W        W 8236   3.964   8.256   9.587  0.1893 -0.0998  0.1195
 8237W        W 8237   6.190   5.671   9.347  0.0593  0.0684 -0.0436
 8238W        W 8238   4.537   7.187   9.930  0.0194 -0.2285  0.0222
 8239W        W 8239   9.065   2.037   6.313  0.2518 -0.2509 -0.0936
 8240W        W 8240   3.235   4.124  10.093  0.3601 -0.0247 -0.5728
 8241W        W 8241   3.522  10.273   2.825  0.0514 -0.0643 -0.0540
 8242W        W 8242   1.137   9.541   1.091 -0.1795  0.1632  0.0906
 8243W        W 8243   1.474   2.304   6.812 -0.0019  0.0890  0.3042
 8244W        W 8244   0.007   7.746   6.694 -0.0823  0.1935 -0.0404
 8245W        W 8245   6.323   6.181   2.755 -0.2225 -0.3677 -0.0494
 8246W        W 8246   7.537   8.409   5.809 -0.0553 -0.3638 -0.1052
 8247W        W 8247   6.981   6.827   6.588 -0.1612 -0.4320 -0.1886
 8248W        W 8248   2.091   1.287   4.014 -0.0103 -0.0510 -0.4719
 8249W        W 8249   7.615   6.699   2.623  0.0796 -0.0915 -0.1011
 8250W        W 8250   6.052   8.425   2.327 -0.2668 -0.0335  0.3542
 8251W        W 8251   6.168   8.866   7.238 -0.0491  0.0339  0.0638
 8252W        W 8252   6.427   7.519   8.156 -0.2308 -0.1177  0.0332
 8253W        W 8253   9.570   1.241   9.916  0.0089  0.0608  0.2383
 8254W        W 8254   4.509   2.958  10.267 -0.0646 -0.1683 -0.1192
 8255W        W 8255   0.161   1.073   0.767  0.0551  0.1228 -0.3313
 8256W        W 8256   5.256   9.571   7.842  0.2785 -0.0137 -0.0484
 8257W        W 8257   9.549  10.018   4.407  0.0655 -0.3047 -0.2225
 8258W        W 8258   9.434   9.721   3.995  0.0200 -0.1007  0.1911
 8259W        W 8259   9.725   4.157   8.187  0.3192 -0.0813 -0.2316
 8260W        W 8260   7.895   4.127   9.422  0.0338  0.0460 -0.1923
 8261W        W 8261   7.725   4.587   9.114  0.3155 -0.0548 -0.2827
 8262W        W 8262   9.720   5.673   9.396  0.1945  0.0368 -0.4366
 8263W        W 8263   4.709   2.273   1.528 -0.0519  0.0563 -0.0473
 8264W        W 8264   3.227   7.933   6.736 -0.2380 -0.0135  0.1668
 8265W        W 8265   0.593   5.740   9.447  0.0588 -0.1153  0.1446
 8266W        W 8266   0.706   0.577   2.748  0.1582 -0.0475 -0.0848
 8267W        W 8267   9.334   5.677   2.985  0.0686  0.1130 -0.2299
 8268W        W 8268   5.976   2.952   8.485 -0.0376  0.0461 -0.0759
 8269W        W 8269  10.211   5.247   5.860 -0.1795  0.1176 -0.0233
 8270W        W 8270   4.586   8.156   2.242 -0.1385  0.0989  0.2151
 8271W        W 8271   0.308   4.451   1.004 -0.1646  0.0420  0.4603
 8272W        W 8272   4.459  10.012   6.087  0.1817 -0.4638  0.0198
 8273W        W 8273   5.291   3.637   3.593 -0.2790  0.1737 -0.1789
 8274W        W 8274   7.331   8.341   4.419  0.2209 -0.2295  0.1213
 8275W        W 8275   9.211   0.149   3.543 -0.1486 -0.3735  0.0922
 8276W        W 8276   2.934   8.786   7.220 -0.1250  0.1833  0.4922
 8277W        W 8277   9.171   0.671   3.021 -0.1952 -0.2800  0.1747
 8278W        W 8278   2.045   6.511   3.246 -0.4205 -0.0666  0.1125
 8279W        W 8279   4.208   2.496   5.777 -0.1030 -0.4645  0.0829
 8280W        W 8280   1.752   8.571   4.598  0.0589 -0.1875  0.2254
 8281W        W 8281   3.388   3.454   1.796 -0.0418  0.2645 -0.0346
 8282W        W 8282   6.462   8.780   2.171  0.0170  0.2805 -0.1125
 8283W        W 8283   9.285   2.612   2.900  0.0214  0.1318 -0.0754
 8284W        W 8284   1.870   0.148   4.759 -0.0250  0.0379 -0.0293
 8285W        W 8285   1.103   4.331   8.062 -0.1200  0.0050  0.0553
 8286W        W 8286   2.941   4.308   3.310  0.0093 -0.0346 -0.3425
 8287W        W 8287   8.641   7.245   4.974 -0.0679 -0.1234 -0.1190
 8288W        W 8288   9.718   2.783   0.782 -0.4396  0.0856 -0.0383
 8289W        W 8289   1.908   0.349   1.029  0.1805  0.1440 -0.2052
 8290W        W 8290   3.953   2.708   4.367  0.1416 -0.0880  0.1618
 8291W        W 8291   1.813   4.000   7.985  0.0865 -0.2581  0.0876
 8292W        W 8292   8.185   2.011   0.868 -0.3583  0.0767 -0.1257
 8293W        W 8293   3.092   4.762   1.635  0.1127  0.2428  0.1283
 8294W        W 8294   5.638   4.996   7.376  0.2438  0.0179 -0.1211
 8295W        W 8295   8.054   8.462  10.180 -0.0326  0.0332  0.2030
 8296W        W 8296   8.739   5.597   8.531 -0.3434 -0.1343 -0.0280
 8297W        W 8297   7.571   6.190   2.750  0.2161  0.5434 -0.0313
 8298W        W 8298  10.045   4.207   3.764  0.2236  0.2102  0.2212
 8299W        W 8299   9.280   6.814   5.525 -0.0748  0.0843 -0.1022
 8300W        W 8300   9.918  10.162   1.397 -0.2051 -0.0250 -0.0659
 8301W        W 8301   6.636   9.367   4.426  0.0144  0.1401 -0.4401
 8302W        W 8302   8.822   1.447  10.181 -0.6208 -0.0805 -0.3180
 8303W        W 8303   3.705   9.187   1.864 -0.2795  0.0103 -0.0244
 8304W        W 8304   3.391   5.736   5.712 -0.0637 -0.0207  0.1055
 8305W        W 8305   7.081   0.204   1.440  0.1412  0.0958  0.0137
 8306W        W 8306   3.825   5.988   0.651 -0.3160  0.0330 -0.2166
 8307W        W 8307   4.766   6.296   9.579  0.1491  0.1051  0.0220
 8308W        W 8308   5.030   1.081   4.795 -0.0255 -0.2275  0.1214
 8309W        W 8309  10.311   7.085   3.844 -0.2325  0.0299  0.1499
 8310W        W 8310   6.965   4.639   7.531 -0.1481 -0.2580  0.0771
 8311W        W 8311   1.066   2.206   3.656 -0.1184 -0.0905 -0.0447
 8312W        W 8312   5.866   5.571   5.790 -0.1177 -0.1656  0.1572
 8313W        W 8313   4.413   3.297   8.324  0.0660 -0.0001 -0.0429
 8314W        W 8314   7.184   2.510   3.227  0.1438  0.2942 -0.2088
 8315W        W 8315   7.655   8.233   4.892  0.0174 -0.2669 -0.1736
 8316W        W 8316  10.155   7.457   5.841 -0.0067  0.0053 -0.0912
 8317W        W 8317   0.730   5.165   8.081  0.0896 -0.0725 -0.1753
 8318W        W 8318   4.436   2.442   0.636 -0.0219 -0.0021  0.2554
 8319W        W 8319   5.476   8.243   3.818 -0.2679 -0.1222 -0.0166
 8320W        W 8320   9.818   6.626   6.480  0.3311 -0.0095 -0.1604
 8321W        W 8321   3.171   1.732   7.582  0.2328  0.1047 -0.0900
 8322W        W 8322   4.257   9.514   3.908 -0.3561  0.1683  0.1443
 8323W        W 8323  10.030   3.243   9.144  0.1766  0.0444 -0.0807
 8324W        W 8324  10.322   9.587   4.335  0.1613 -0.2066 -0.2484
 8325W        W 8325   4.524   0.407   0.796  0.2010 -0.2094 -0.2528
 8326W        W 8326   9.926   9.660   5.186 -0.1356 -0.3866 -0.0927
 8327W        W 8327   3.243   6.074   5.234  0.2087  0.0037  0.2067
 8328W        W 8328   5.867   6.532   5.772 -0.1869  0.4672 -0.0791
 8329W        W 8329   7.929   6.451   6.289  0.0254  0.3458 -0.0243
 8330W        W 8330   6.553   8.782   3.735 -0.1412 -0.4197 -0.1435
 8331W        W 8331   4.964   6.663   4.459 -0.1432 -0.1266  0.3557
 8332W        W 8332   6.211   7.980   4.280 -0.1414 -0.3355  0.1619
 8333W        W 8333   8.626   9.860   9.362  0.0223  0.1002 -0.1408
 8334W        W 8334   8.932   8.315   6.464  0.0848  0.0137  0.0515
 8335W        W 8335   1.219   4.236   8.943 -0.0414 -0.0505  0.1593
 8336W        W 8336   0.860   2.085   9.112  0.0850 -0.1288  0.0827
 8337W        W 8337   1.816  10.233   8.789  0.1560  0.1831 -0.1762
 8338W        W 8338   0.423   7.370  10.215 -0.2288  0.1161 -0.0526
 8339W        W 8339   9.366   2.326   1.601 -0.1981  0.1097 -0.0074
 8340W        W 8340   4.348   0.766   3.771 -0.1665 -0.1024  0.2492
 8341W        W 8341   1.687   8.001   5.342 -0.1126 -0.0955 -0.2290
 8342W        W 8342   9.984   0.694   5.405  0.0467  0.0209  0.2243
 8343W        W 8343   9.985   7.737   9.837  0.0195  0.1083  0.0029
 8344W        W 8344   9.209   6.979   8.576  0.2613 -0.3447 -0.4019
 8345W        W 8345   6.925   5.732   3.105 -0.1723  0.0570 -0.0634
 8346W        W 8346   3.818   2.290   9.810  0.2565  0.0892 -0.1462
 8347W        W 8347   6.635   2.060   3.694 -0.0103 -0.2924  0.0863
 8348W        W 8348   9.997   1.544   9.439 -0.2652  0.2295 -0.3177
 8349W        W 8349   4.393   5.845   1.535  0.1441 -0.3794  0.3047
 8350W        W 8350   4.580   2.331   2.507  0.1488 -0.3048  0.3198
 8351W        W 8351   3.820   7.602   4.743 -0.1040 -0.2182  0.3118
 8352W        W 8352   6.967   6.884   2.143 -0.1143 -0.0545 -0.0483
 8353W        W 8353   5.699   7.568   1.764 -0.1227  0.1036  0.0512
 8354W        W 8354   9.003   5.267   0.019 -0.3636  0.1420  0.2132
 8355W        W 8355   2.859   6.801   6.423 -0.1696  0.1034 -0.2110
 8356W        W 8356   9.700   0.140   3.442  0.0374 -0.0273 -0.1978
 8357W        W 8357   3.053   2.674   3.032 -0.0186 -0.0600 -0.0083
 8358W        W 8358   2.778   4.915   0.955 -0.2641 -0.0331 -0.2945
 8359W        W 8359   3.326   5.054   0.898  0.0782  0.2376 -0.1476
 8360W        W 8360   0.171   8.176   0.354 -0.1905  0.1387  0.1744
 8361W        W 8361   2.007   9.960   9.970  0.0013 -0.0138 -0.0739
 8362W        W 8362   0.575  10.123   5.714 -0.0685 -0.0003 -0.0350
 8363W        W 8363   2.860   3.961   9.697  0.0044  0.2189  0.1932
 8364W        W 8364   1.583  10.079   9.670  0.0828 -0.0897 -0.5109
 8365W        W 8365   4.342   3.465   7.261  0.0717 -0.0236 -0.1417
 8366W        W 8366   3.490   1.017   5.588 -0.1238  0.0566 -0.1547
 8367W        W 8367   0.340   4.847   8.791 -0.4794  0.2148 -0.0109
 8368W        W 8368   6.100   7.564   5.583  0.1640  0.0096  0.3349
 8369W        W 8369   0.494   0.647   2.128 -0.0692  0.1809  0.0748
 8370W        W 8370   5.024   3.863   2.222  0.1514  0.1120  0.0640
 8371W        W 8371   4.683   2.149   6.661 -0.0966 -0.1113  0.5474
 8372W        W 8372   2.477   5.799   5.352 -0.0014  0.0862 -0.3172
 8373W        W 8373   2.397   0.086   8.495 -0.0662  0.1927 -0.2519
 8374W        W 8374   8.434   8.601   6.410 -0.4385  0.0443 -0.2574
 8375W        W 8375   8.675   7.448   3.808  0.3011  0.2145 -0.0406
 8376W        W 8376   7.424   7.569   5.582  0.0280 -0.0061  0.1681
 8377W        W 8377   2.612   1.318   3.654  0.2005 -0.0853 -0.0400
 8378W        W 8378   1.334   9.075  10.088  0.2489  0.1108 -0.0047
 8379W        W 8379   4.147   8.238   4.162 -0.1087  0.2728 -0.0276
 8380W        W 8380   5.228   6.331   8.141 -0.0669  0.0116 -0.0768
 8381W        W 8381   9.445   8.511   3.673 -0.3776 -0.1193  0.0402
 8382W        W 8382   6.022   2.909  10.284  0.0335  0.2868  0.3532
 8383W        W 8383   6.819   2.360   0.804 -0.0663 -0.0299  0.0081
 8384W        W 8384   3.064   9.467   8.045  0.0304 -0.3890 -0.1301
 8385W        W 8385   3.217   6.477   0.128 -0.0473 -0.1657 -0.1222
 8386W        W 8386   2.403   4.649   6.706  0.0591  0.1029  0.0934
 8387W        W 8387   5.786   3.596   0.620  0.1244  0.2454  0.0273
 8388W        W 8388   4.703   5.933   0.520  0.0071 -0.1261  0.2376
 8389W        W 8389   8.068   9.382   8.732 -0.1892 -0.1188  0.0823
 8390W        W 8390   6.633   7.020   3.277 -0.1752  0.2367  0.1430
 8391W        W 8391   4.538   8.628   8.490 -0.2422  0.1572  0.0860
 8392W        W 8392   1.046   1.101   9.079 -0.2380 -0.0439 -0.1383
 8393W        W 8393   2.304   9.664   2.479 -0.1275 -0.2421 -0.2156
 8394W        W 8394   6.097   8.612  10.308 -0.1655  0.0758 -0.0629
 8395W        W 8395   0.978   2.286   0.302  0.0978  0.0937 -0.0712
 8396W        W 8396   1.721   3.327   6.539  0.2548  0.4830  0.1565
 8397W        W 8397   8.786   5.311   7.095 -0.1601  0.1073 -0.0073
 8398W        W 8398   2.275   6.097   2.324  0.1690 -0.0768 -0.0697
 8399W        W 8399  10.096   0.600   9.282 -0.1653 -0.0901 -0.1300
 8400W        W 8400   1.206   5.871   8.383  0.2775 -0.1419  0.1201
 8401W        W 8401   3.834   2.217   1.317  0.5249 -0.0339 -0.0858
 8402W        W 8402   3.976   3.709   0.759  0.0513 -0.1367  0.2050
 8403W        W 8403   8.096   0.105   8.495  0.0210  0.0198 -0.0136
 8404W        W 8404   3.449   2.089   9.550  0.2206  0.0883  0.1257
 8405W        W 8405   9.611   8.249   5.560  0.0330 -0.0308 -0.0112
 8406W        W 8406   9.639   3.654   4.208  0.3388  0.0539  0.0055
 8407W        W 8407   6.875   6.999   1.274  0.4236 -0.1057  0.0334
 8408W        W 8408   6.120   1.861   8.569 -0.2628 -0.1682 -0.0791
 8409W        W 8409   7.550   8.321   0.487  0.3360 -0.4874 -0.3339
 8410W        W 8410   1.544   9.624   6.067 -0.0354  0.1632 -0.0298
 8411W        W 8411   5.742   8.976   6.988  0.1398 -0.0379 -0.0868
 8412W        W 8412   6.764   2.463   5.153 -0.4037 -0.0696  0.1705
 8413W        W 8413   0.304   5.073   5.428  0.0732 -0.3129  0.1988
 8414W        W 8414   2.349   4.360   7.131 -0.0516 -0.3626  0.0602
 8415W        W 8415   9.321   0.284   5.705 -0.3048  0.0468  0.1653
 8416W        W 8416   5.883   6.570   4.839  0.1900 -0.1759 -0.1561
 8417W        W 8417   8.726   1.565   2.807  0.1459  0.4044  0.1317
 8418W        W 8418   4.831   4.126   6.812 -0.2534  0.1228  0.1019
 8419W        W 8419   0.263   9.859   8.095  0.0436 -0.0010 -0.3793
 8420W        W 8420   7.784   4.617   7.786 -0.0424  0.2877  0.0760
 8421W        W 8421   4.499   7.135   1.259  0.0601 -0.1220 -0.1767
 8422W        W 8422   6.302   9.565   3.194 -0.1082 -0.0553 -0.3835
 8423W        W 8423   5.073   8.634   9.450 -0.0201  0.1671 -0.0123
 8424W        W 8424   8.325   9.691   8.939 -0.4658  0.1566 -0.0289
 8425W        W 8425   5.545   3.446   5.484 -0.0063  0.4047 -0.0664
 8426W        W 8426   1.016   8.265   3.892 -0.1037  0.0347  0.1650
 8427W        W 8427  10.196   0.817   8.796 -0.1373 -0.2601  0.2561
 8428W        W 8428   1.149   0.135   3.404  0.3787 -0.1526 -0.3746
 8429W        W 8429   5.502   7.324   4.338  0.0302 -0.2333 -0.1250
 8430W        W 8430   5.324   9.258   5.318 -0.0745  0.1382 -0.2367
 8431W        W 8431  10.012   8.224   4.398 -0.0188  0.0108  0.3206
 8432W        W 8432   7.088   6.967   3.058  0.1195 -0.0251  0.1018
 8433W        W 8433   3.474   4.570   5.644  0.0376 -0.1226 -0.0856
 8434W        W 8434   7.193   4.066   9.026  0.2261  0.1545 -0.1653
 8435W        W 8435   1.394   4.051   8.472  0.2055 -0.2688 -0.6201
 8436W        W 8436   2.943   7.548   5.402 -0.3381  0.1707  0.0641
 8437W        W 8437   6.648   9.352   2.829  0.0571 -0.1955  0.1240
 8438W        W 8438   9.655   6.735   7.342  0.0730  0.3578  0.1214
 8439W        W 8439   2.553   6.355   3.952 -0.1097  0.2679  0.0970
 8440W        W 8440  10.101   6.767   8.490 -0.1324  0.0779 -0.0365
 8441W        W 8441   7.625   0.186   4.918  0.1779  0.0512 -0.0443
 8442W        W 8442   3.005   9.730   4.086  0.0953 -0.2475  0.4265
 8443W        W 8443   2.583   3.858   2.992 -0.0834 -0.1863  0.2133
 8444W        W 8444   6.541   2.193   4.200 -0.2379  0.0557  0.0894
 8445W        W 8445   2.319   6.188   6.364  0.1641 -0.2858  0.4015
 8446W        W 8446   4.941   1.613   4.897  0.0572 -0.0656 -0.0807
 8447W        W 8447   0.295   3.104   6.856  0.4132 -0.1602 -0.0920
 8448W        W 8448   1.142   9.855   4.291 -0.0977 -0.1540  0.3537
 8449W        W 8449  10.106   4.483   2.163 -0.0948 -0.0200 -0.0382
 8450W        W 8450   0.891   3.978   7.493  0.1804  0.3401  0.0278
 8451W        W 8451   1.452   4.966   2.442  0.2941  0.2718  0.0422
 8452W        W 8452   1.301   7.275   0.026 -0.2203 -0.1651 -0.0245
 8453W        W 8453   3.338   1.522   5.473  0.0208 -0.2143 -0.0948
 8454W        W 8454   9.185   0.786   5.898  0.0062  0.0835 -0.0067
 8455W        W 8455   6.347   0.375   6.801 -0.0808 -0.1400 -0.0207
 8456W        W 8456   8.374   2.762   3.715 -0.0518  0.0485 -0.0976
 8457W        W 8457   3.779   1.752   9.118 -0.1446  0.1625  0.0064
 8458W        W 8458   4.511   8.246   6.747 -0.0086  0.0932  0.0612
 8459W        W 8459   0.825   8.304   4.410 -0.0469  0.0925 -0.1919
 8460W        W 8460   9.969   7.389   6.834 -0.0301 -0.2337  0.3202
 8461W        W 8461   0.371   6.963   9.894 -0.1616 -0.1435 -0.1107
 8462W        W 8462   3.308   0.103   8.987 -0.1074  0.1269 -0.2337
 8463W        W 8463   0.331   4.970   8.302 -0.3147  0.2068  0.1129
 8464W        W 8464   1.788   1.664   3.895 -0.1232 -0.1223 -0.1833
 8465W        W 8465   6.373   5.639   8.850 -0.0135 -0.1731  0.1670
 8466W        W 8466   0.386   6.387   8.878  0.1335 -0.1991  0.0067
 8467W        W 8467   6.548   1.952   1.379 -0.0925  0.1717  0.0809
 8468W        W 8468   0.039   1.991   3.313 -0.0127 -0.2242 -0.0229
 8469W        W 8469   0.239   3.103   4.196  0.0056  0.0253 -0.0967
 8470W        W 8470   4.836   8.943   1.358  0.2561 -0.1202  0.2787
 8471W        W 8471   1.436   1.117   0.312  0.1614 -0.1571 -0.5280
 8472W        W 8472   0.329   5.095   6.048  0.0898  0.1422  0.1557
 8473W        W 8473   4.250   0.665   6.742  0.1752 -0.1124 -0.2033
 8474W        W 8474   4.735   2.312   9.640 -0.3114 -0.1470  0.2183
 8475W        W 8475   7.125   4.539   8.967 -0.0123 -0.0743  0.1645
 8476W        W 8476   0.245   2.556   2.586 -0.3004 -0.2665  0.0640
 8477W        W 8477   6.413   1.133   2.771  0.1292 -0.3369 -0.5635
 8478W        W 8478   7.606   5.218   2.695 -0.3644  0.3370  0.1049
 8479W        W 8479   2.040   8.694   4.140 -0.1112  0.2658  0.0944
 8480W        W 8480   3.652   5.633   7.382  0.1631  0.0818 -0.0676
 8481W        W 8481   0.473   7.054   6.543  0.0528  0.1083 -0.0155
 8482W        W 8482   7.032   9.674   2.615  0.1759 -0.1287  0.2122
 8483W        W 8483   8.011   6.993   6.825 -0.1584 -0.0789  0.1213
 8484W        W 8484   7.742   7.457   4.232 -0.1831  0.1628  0.0378
 8485W        W 8485   2.199   6.182   3.598  0.0004 -0.0069  0.2005
 8486W        W 8486   7.550   4.901   9.558 -0.1571 -0.0833  0.2852
 8487W        W 8487   6.034   9.603   5.551 -0.3996  0.0432 -0.0938
 8488W        W 8488   3.064   5.220   3.399 -0.0574 -0.0981  0.1889
 8489W        W 8489   8.079   1.485   1.896 -0.1589 -0.2072  0.0053
 8490W        W 8490   5.779   6.084   5.632 -0.1335  0.1603 -0.1228
 8491W        W 8491   2.333   6.698   5.416 -0.1456  0.0622  0.1237
 8492W        W 8492   7.704   6.966   6.367  0.0958  0.1976 -0.0224
 8493W        W 8493   4.676   7.790   2.790 -0.0138  0.2715 -0.0240
 8494W        W 8494   4.720   5.140   5.131  0.0159  0.1844 -0.0673
 8495W        W 8495   5.649   2.907   4.354  0.1264  0.0655  0.0255
 8496W        W 8496   9.814   6.653   2.431 -0.0239  0.0315 -0.0839
 8497W        W 8497   9.255   5.380   4.394 -0.1615  0.0035  0.2020
 8498W        W 8498   6.328   8.320   4.961 -0.1704 -0.1189 -0.2309
 8499W        W 8499   6.297   8.886   2.591  0.1174 -0.0738 -0.1872
 8500W        W 8500   8.934   4.561   0.773 -0.3283 -0.1865 -0.2105
 8501W        W 8501   1.323   7.361   3.349 -0.3116 -0.0208  0.0337
 8502W        W 8502   9.847   8.252   2.597  0.0793  0.0103  0.1297
 8503W        W 8503   0.492   2.856  10.103 -0.0542  0.0943 -0.1179
 8504W        W 8504   4.541   4.685   9.595  0.0265 -0.2048 -0.2232
 8505W        W 8505   7.116   5.385   6.347 -0.0486  0.1608 -0.0588
 8506W        W 8506   7.984   1.837   8.812 -0.5143  0.1512 -0.0296
 8507W        W 8507   8.037   0.222   3.601  0.2761 -0.1457 -0.0697
 8508W        W 8508   5.999   5.634   7.078  0.0633  0.0924  0.1548
 8509W        W 8509   5.746   4.246   1.378 -0.2590  0.0163  0.1285
 8510W        W 8510   8.157   1.537   5.390  0.2541 -0.3991  0.1286
 8511W        W 8511   6.785   5.769   5.556  0.0644  0.0918 -0.2344
 8512W        W 8512   2.746   2.226   8.178  0.0516  0.2393 -0.2192
 8513W        W 8513   2.868   5.436   9.011  0.2716  0.1884  0.0903
 8514W        W 8514   8.204   0.665   6.668 -0.1463 -0.0221 -0.0995
 8515W        W 8515   0.720   1.120   9.934 -0.1918 -0.0521  0.0834
 8516W        W 8516   3.790   8.793   8.279  0.0211  0.1949 -0.0720
 8517W        W 8517   0.748  10.024   9.129  0.2241  0.0502  0.1135
 8518W        W 8518   4.746   2.333   0.957  0.1227 -0.1133 -0.1211
 8519W        W 8519   8.404   5.681   4.195 -0.3324 -0.0137 -0.0965
 8520W        W 8520   3.368   4.260   2.379 -0.0544 -0.1587  0.2709
 8521W        W 8521   3.705   0.411   4.408 -0.1467  0.1527  0.0301
 8522W        W 8522   1.273   4.335   7.498 -0.3470 -0.3820  0.1488
 8523W        W 8523   0.092   8.213   6.762 -0.3735  0.0598 -0.4839
 8524W        W 8524   3.177   1.912   0.235  0.0049 -0.1167  0.1902
 8525W        W 8525   2.653   9.096   8.965 -0.1281  0.0484 -0.2276
 8526W        W 8526   7.495   8.565   3.092 -0.1049 -0.1609 -0.0057
 8527W        W 8527   5.533   8.043   2.960  0.1472 -0.2548 -0.0401
 8528W        W 8528   0.917   4.608  10.124  0.2297  0.1939  0.1397
 8529W        W 8529   2.929   3.978   6.111  0.3518  0.0501 -0.1688
 8530W        W 8530   5.515   0.026   3.340 -0.0128 -0.2951  0.0882
 8531W        W 8531   7.523   5.087  10.005 -0.2180 -0.0877  0.3271
 8532W        W 8532   8.386   6.118   9.254  0.2449  0.1127 -0.1146
 8533W        W 8533   2.400   2.643   9.852  0.4110 -0.0513  0.0627
 8534W        W 8534   9.611   5.989   3.554 -0.0636  0.1726  0.1262
 8535W        W 8535   2.224   0.962   7.963  0.0985 -0.3207  0.2045
 8536W        W 8536   6.337   9.388   4.012 -0.0389  0.0928  0.1379
 8537W        W 8537   4.900   9.268   6.066  0.0407  0.0795 -0.0166
 8538W        W 8538   7.527   3.781   5.019 -0.1988  0.1361 -0.0489
 8539W        W 8539   0.595   7.284   1.117  0.0997 -0.1616  0.0478
 8540W        W 8540   6.542   7.269   2.220  0.1759  0.0882 -0.0600
 8541W        W 8541  10.251   2.194   4.163 -0.0447 -0.0626  0.0761
 8542W        W 8542   6.250   6.259   6.907 -0.2334 -0.1980 -0.1032
 8543W        W 8543   6.437   1.198   5.069 -0.1250 -0.0933 -0.2730
 8544W        W 8544   0.820   3.377   7.179 -0.4586  0.0582 -0.0959
 8545W        W 8545   2.591   0.355   8.893  0.0327  0.0539 -0.0636
 8546W        W 8546   1.243   7.533   8.543 -0.1532  0.2225  0.0080
 8547W        W 8547   7.037   5.063   0.495  0.0513  0.2755  0.1299
 8548W        W 8548   5.265   6.034   5.988  0.2156  0.2788  0.1070
 8549W        W 8549   1.327   0.056   9.928  0.2358 -0.0810  0.0668
 8550W        W 8550   2.646  10.290   0.692  0.3244 -0.1718 -0.0133
 8551W        W 8551   3.058   5.289   6.317 -0.2165  0.2407 -0.0661
 8552W        W 8552  10.213   1.124   4.941  0.1505 -0.0675 -0.0127
 8553W        W 8553   1.625   4.610   0.429 -0.2672 -0.1815 -0.2682
 8554W        W 8554   7.732   1.038   8.380 -0.1296  0.0142 -0.1390
 8555W        W 8555  10.322   8.013   4.048 -0.0622 -0.1633  0.0191
 8556W        W 8556   9.229   7.371   4.155  0.1016 -0.1001 -0.0074
 8557W        W 8557   2.658   7.620   0.683  0.2388 -0.0970 -0.0494
 8558W        W 8558   2.191   0.455   2.832  0.4273  0.1167  0.0698
 8559W        W 8559   6.740   5.105   6.799  0.0205  0.1357  0.0208
 8560W        W 8560   2.620   7.952   1.110  0.3177 -0.1988  0.3339
 8561W        W 8561   2.720   9.305   4.004 -0.2813 -0.0685 -0.4211
 8562W        W 8562   5.760   0.786   4.084 -0.0553  0.2313 -0.2687
 8563W        W 8563   2.998   1.100   5.365  0.3826 -0.1573 -0.2848
 8564W        W 8564   6.456   2.629  10.307  0.4845 -0.1701  0.3502
 8565W        W 8565   6.681   7.527   4.977  0.1856 -0.5212  0.1906
 8566W        W 8566   3.354   8.455   7.514  0.3642 -0.0107 -0.0421
 8567W        W 8567   0.228   1.683   6.151 -0.3987  0.1289  0.4245
 8568W        W 8568   6.782   6.680   3.994 -0.0049 -0.0481  0.0931
 8569W        W 8569   8.452   1.529   0.198  0.2948 -0.0857  0.4637
 8570W        W 8570   7.098   9.384   4.479  0.1961 -0.1029  0.1716
 8571W        W 8571   6.478   3.634   1.208  0.2182 -0.0423  0.1087
 8572W        W 8572   8.895   5.034   0.927  0.0248  0.3358  0.1815
 8573W        W 8573   7.077   6.750   9.789  0.1075 -0.2240 -0.1384
 8574W        W 8574   9.947   5.756   6.730  0.2894  0.0152 -0.2631
 8575W        W 8575   0.553   0.977   4.318  0.1466  0.1547  0.2229
 8576W        W 8576   0.005   8.013   8.897 -0.0932 -0.1206 -0.5320
 8577W        W 8577   9.007   0.515   9.342 -0.0558 -0.1618 -0.0871
 8578W        W 8578   4.537   5.385   1.109  0.1922  0.1525 -0.1191
 8579W        W 8579   1.983   7.881   0.405 -0.0852  0.0183  0.0597
 8580W        W 8580   8.637   4.928   8.782 -0.2114 -0.0523 -0.0214
 8581W        W 8581   2.206   5.970   4.036 -0.0729 -0.0031 -0.0099
 8582W        W 8582   7.940   4.594   5.423  0.3840 -0.0887 -0.0931
 8583W        W 8583   8.668   9.837  10.109  0.1593 -0.1715 -0.1215
 8584W        W 8584   7.061   2.589   5.673  0.1850  0.0845  0.0649
 8585W        W 8585   0.894   6.685   0.390 -0.1410  0.0807 -0.2209
 8586W        W 8586   0.424   8.794   9.708 -0.0118  0.0576 -0.1385
 8587W        W 8587   1.856   3.800   0.812  0.2972 -0.0710 -0.0438
 8588W        W 8588   8.381   1.600   4.340 -0.3565  0.0522 -0.1885
 8589W        W 8589   3.575   2.439   3.335 -0.2087 -0.0280 -0.2538
 8590W        W 8590   5.409   1.579   4.024 -0.0625  0.0341 -0.0132
 8591W        W 8591   6.106   6.649   9.439 -0.0365  0.1109 -0.0757
 8592W        W 8592   8.147   7.986  10.092  0.0758  0.1848 -0.0486
 8593W        W 8593   8.875   9.416  10.299 -0.0056 -0.1374  0.1266
 8594W        W 8594   4.363   1.294   3.323 -0.0545 -0.0566 -0.1071
 8595W        W 8595   3.291   3.524   5.706 -0.1541 -0.2949  0.3775
 8596W        W 8596   3.251   3.219   5.258  0.2196 -0.1455  0.2022
 8597W        W 8597   8.680   2.108   3.928 -0.0306 -0.0021  0.1579
 8598W        W 8598   2.851   7.925   0.287 -0.0223 -0.0194  0.1614
 8599W        W 8599   4.145   2.493   3.363 -0.2496 -0.0925  0.1802
 8600W        W 8600   2.919   7.753   9.699  0.0194  0.0038  0.1819
 8601W        W 8601   8.774   2.223   9.150  0.2302  0.2449  0.0783
 8602W        W 8602   2.790   4.791   3.164 -0.2352 -0.0458  0.0467
 8603W        W 8603   7.923   3.289   4.253 -0.0341  0.3572  0.0277
 8604W        W 8604   6.964   5.150   9.294  0.0796 -0.2781  0.1588
 8605W        W 8605   0.400   2.684   0.645  0.3111 -0.3762 -0.0681
 8606W        W 8606   4.386   4.003   5.562 -0.3022  0.0812  0.0977
 8607W        W 8607   9.159   5.206   6.285 -0.2430  0.0969  0.0078
 8608W        W 8608  10.174   5.565   0.073 -0.4787  0.3804 -0.0523
 8609W        W 8609   5.551   5.184   6.036 -0.0217  0.1732  0.2502
 8610W        W 8610   6.724   1.614   2.967 -0.0387  0.1144  0.0247
 8611W        W 8611   3.548   6.580   4.061 -0.2670  0.0384 -0.0189
 8612W        W 8612   2.561   0.865   5.157  0.2747 -0.0543 -0.0486
 8613W        W 8613   5.070   8.938   4.182 -0.2673 -0.1221 -0.1304
 8614W        W 8614   2.414   8.106   4.752 -0.0926 -0.1648  0.2240
 8615W        W 8615   9.069   2.300   5.887  0.1948 -0.0789 -0.2465
 8616W        W 8616   7.034   6.352   7.459  0.3141 -0.1394 -0.2928
 8617W        W 8617   4.245   7.497   2.882  0.0242 -0.4547 -0.0528
 8618W        W 8618   2.889   4.165   6.940  0.1391 -0.1543 -0.1890
 8619W        W 8619   1.091  10.131   1.107  0.0333  0.1407 -0.0013
 8620W        W 8620   5.482   9.750   8.240  0.4275  0.0142 -0.0077
 8621W        W 8621   0.029   7.016   0.556 -0.1860  0.0050  0.1870
 8622W        W 8622  10.181   0.259   7.663 -0.2912  0.2065  0.3732
 8623W        W 8623   7.783   7.524   1.044  0.1182 -0.1845  0.1352
 8624W        W 8624   2.354   2.922   3.314 -0.0913 -0.2031  0.1909
 8625W        W 8625   3.910   6.737   4.289  0.1243  0.0462 -0.3518
 8626W        W 8626   6.433   4.288   6.708 -0.0391  0.2381 -0.1424
 8627W        W 8627   6.438   5.027   1.716 -0.0586 -0.0429 -0.1055
 8628W        W 8628   7.664   6.529   4.159 -0.1419 -0.1326 -0.1389
 8629W        W 8629   5.305   9.020   0.076  0.1683 -0.0820  0.0553
 8630W        W 8630   5.451   5.599   8.528  0.0691 -0.2724 -0.2352
 8631W        W 8631   4.080   7.898   1.047  0.0488  0.0693 -0.3477
 8632W        W 8632   5.900   5.749   0.341 -0.1620 -0.1597  0.2870
 8633W        W 8633   5.018   9.348   8.325  0.1724 -0.3084  0.1498
 8634W        W 8634   1.095   2.019   2.535  0.0712  0.2122 -0.4319
 8635W        W 8635   1.568   4.570   8.994  0.2389 -0.1935 -0.0348
 8636W        W 8636   8.795   7.698   7.665 -0.2953  0.2278 -0.1420
 8637W        W 8637   6.607   6.781   0.890  0.0552 -0.1061  0.0403
 8638W        W 8638   5.812   6.246   6.613  0.1672 -0.1386  0.0871
 8639W        W 8639   9.978   8.022   7.580 -0.0658 -0.1378  0.1345
 8640W        W 8640   0.262   2.158   6.003 -0.0281 -0.1391  0.0029
 8641W        W 8641   3.050   6.159   6.944  0.0424  0.2400  0.0398
 8642W        W 8642   2.384   9.018   6.773 -0.1343  0.1993  0.1999
 8643W        W 8643   0.850   0.610  10.079 -0.3654  0.1597 -0.0200
 8644W        W 8644   0.155   4.294   6.834 -0.1765  0.3831  0.1176
 8645W        W 8645   1.913   9.130   3.850  0.1236  0.2900  0.1202
 8646W        W 8646   9.363   7.043   0.742  0.0829  0.0432 -0.1532
 8647W        W 8647   3.457   2.901   4.281 -0.1412 -0.1984  0.0916
 8648W        W 8648   1.077   5.900   0.452  0.2447 -0.0334 -0.0310
 8649W        W 8649  10.303   6.822   5.778  0.1706 -0.1667 -0.2345
 8650W        W 8650   4.747   6.003   9.170 -0.0869  0.1286 -0.0967
 8651W        W 8651   2.671   9.477   4.678 -0.2157  0.3472 -0.4108
 8652W        W 8652   1.184   5.927   9.852 -0.1174  0.0824  0.1578
 8653W        W 8653   0.300   7.343   5.673 -0.1209  0.2660  0.0025
 8654W        W 8654   2.762   6.105   3.173  0.0789 -0.0699 -0.2925
 8655W        W 8655   7.979   0.024   9.376  0.0142 -0.0967 -0.2450
 8656W        W 8656   6.278   9.621   6.875 -0.1284 -0.1158  0.4394
 8657W        W 8657   4.909   1.397   3.401  0.0154  0.0827  0.0234
 8658W        W 8658   6.777   0.718   0.627  0.1403  0.2974  0.2043
 8659W        W 8659   2.397   2.735   5.754  0.1350  0.1016 -0.0226
 8660W        W 8660   7.192   2.737   2.766 -0.2052 -0.0400  0.0718
 8661W        W 8661   3.935   9.221   5.579 -0.2076 -0.1054 -0.1770
 8662W        W 8662   3.997   1.955   5.853  0.0917 -0.1612  0.1557
 8663W        W 8663   6.133   0.684   9.446 -0.0814  0.0532 -0.0079
 8664W        W 8664   7.881   9.422   2.211  0.0073  0.2242  0.1403
 8665W        W 8665   6.495   1.766   5.988  0.2411  0.2233  0.1492
 8666W        W 8666   7.267   8.764   9.952 -0.2829 -0.0347 -0.1974
 8667W        W 8667   8.683   1.249   1.970  0.3041 -0.1406  0.1840
 8668W        W 8668   1.207   8.677   9.378 -0.1197 -0.0258 -0.0425
 8669W        W 8669   9.826   7.331  10.114 -0.4037  0.1089  0.1654
 8670W        W 8670   8.414   8.021   5.528  0.1192  0.2694  0.1359
 8671W        W 8671  10.078   3.781   1.211  0.0473  0.2065  0.1254
 8672W        W 8672   4.793   9.281   7.781  0.2752  0.2123  0.1622
 8673W        W 8673   0.828   5.610   7.103  0.0994 -0.1930 -0.1832
 8674W        W 8674   8.814   8.583   1.075 -0.0837  0.0416  0.0811
 8675W        W 8675   5.356   0.369   4.877  0.0821 -0.1106 -0.0204
 8676W        W 8676   3.890   1.202   5.378  0.0489 -0.3810  0.2873
 8677W        W 8677   2.670   2.131   1.890 -0.0369 -0.6077  0.0322
 8678W        W 8678   3.042   0.784   9.967 -0.3423  0.0244  0.0591
 8679W        W 8679   2.106   8.530   1.954 -0.0441  0.3057 -0.0916
 8680W        W 8680   2.287   4.345   6.055  0.0261 -0.2361 -0.0795
 8681W        W 8681   7.659   4.921   8.162 -0.2844 -0.2992 -0.4351
 8682W        W 8682   7.360   4.250   2.518  0.0344 -0.1317  0.3195
 8683W        W 8683   4.748   8.823   6.214  0.1768 -0.0515  0.0764
 8684W        W 8684   0.746   6.795   5.061 -0.2390 -0.1445 -0.0250
 8685W        W 8685   5.126   1.500   0.421  0.1169  0.4501 -0.1523
 8686W        W 8686   7.981   2.802   1.314  0.0615 -0.0524  0.2091
 8687W        W 8687   6.133   3.180   9.509 -0.0479  0.0233 -0.0422
 8688W        W 8688   1.729   9.654   2.273  0.1300 -0.0772  0.2710
 8689W        W 8689   1.020   0.594   5.655 -0.2927 -0.0661  0.0363
 8690W        W 8690   7.858   7.121   2.476 -0.1547 -0.0395 -0.1630
 8691W        W 8691   4.105   6.435   3.076  0.2160  0.4264 -0.1179
 8692W        W 8692   9.917   1.992   7.294  0.1276 -0.2003 -0.0226
 8693W        W 8693   6.939   7.964   9.032  0.0407 -0.4231 -0.0330
 8694W        W 8694   8.798   3.306   2.659 -0.2760  0.1903  0.2421
 8695W        W 8695   4.759   7.929   5.491 -0.1192 -0.1000 -0.1874
 8696W        W 8696   5.999   8.725   3.444 -0.0540 -0.0028 -0.1462
 8697W        W 8697   1.536   2.609   4.121  0.2062 -0.1045 -0.4068
 8698W        W 8698   9.827   7.095   5.587 -0.0354 -0.2774 -0.1444
 8699W        W 8699   4.406   5.418   4.396  0.2009  0.1309 -0.2347
 8700W        W 8700   2.235   4.742   3.184 -0.0756 -0.2080  0.1656
 8701W        W 8701   3.679   3.603   7.997  0.1122 -0.1608  0.2825
 8702W        W 8702   0.490   7.743   0.208 -0.0113 -0.2452  0.0832
 8703W        W 8703   3.528   1.395   0.406 -0.2523 -0.1832  0.1641
 8704W        W 8704   0.389   5.541   8.518  0.0068  0.2502 -0.3396
 8705W        W 8705   8.680   0.189   7.979  0.1881 -0.4649  0.0313
 8706W        W 8706   8.091   4.115   4.573  0.0071  0.0369  0.1932
 8707W        W 8707   0.240   8.394   4.212 -0.3765  0.0053 -0.2180
 8708W        W 8708   2.633   5.446   3.203 -0.0464 -0.2736 -0.0492
 8709W        W 8709   7.277   5.968   8.904 -0.0003  0.1610 -0.1206
 8710W        W 8710   1.539   0.362   0.459  0.0850 -0.1300  0.1729
 8711W        W 8711   9.861   6.346   7.774 -0.0257 -0.4217 -0.0596
 8712W        W 8712   4.559   6.070   2.359 -0.3608 -0.0154 -0.0928
 8713W        W 8713   1.955   0.621  10.036 -0.4487  0.2465  0.0878
 8714W        W 8714   6.076   4.426   7.556 -0.0774 -0.0083  0.1880
 8715W        W 8715   0.203   2.665   4.001 -0.0874 -0.1189 -0.2149
 8716W        W 8716   3.627   3.167   6.309  0.1844  0.0765 -0.1070
 8717W        W 8717   3.202   2.563   8.862 -0.3142 -0.2186  0.2395
 8718W        W 8718   8.401   5.892   5.949 -0.1247 -0.1080  0.0345
 8719W        W 8719   2.148   8.543   6.760  0.0989 -0.2680  0.0171
 8720W        W 8720   5.984   6.615   4.264 -0.1195 -0.0775  0.1069
 8721W        W 8721   5.679   7.285   0.997  0.0552 -0.3930 -0.2264
 8722W        W 8722   0.258   8.455   0.938  0.1027  0.0742  0.3831
 8723W        W 8723   1.580   2.139   4.461 -0.0035 -0.2658  0.1503
 8724W        W 8724   5.687   9.225   9.066  0.0221 -0.1056  0.0799
 8725W        W 8725   0.667   4.983   0.548 -0.1102 -0.2427 -0.2126
 8726W        W 8726   2.175   0.177   9.894  0.0354  0.3770  0.1447
 8727W        W 8727   2.849   7.119   0.663  0.1862 -0.2274 -0.1687
 8728W        W 8728   9.685  10.303   6.861 -0.3361 -0.3126  0.2994
 8729W        W 8729   5.597   3.506   8.466  0.1146  0.0304  0.0649
 8730W        W 8730   1.256   0.812   7.769  0.1643  0.2307 -0.2192
 8731W        W 8731   8.835   5.601   9.887 -0.0161 -0.1017  0.2609
 8732W        W 8732   8.860  10.158   3.391  0.0219  0.1274  0.1604
 8733W        W 8733   3.345   5.157   4.938 -0.3057 -0.0591  0.0522
 8734W        W 8734   3.688   6.653   7.341  0.0988 -0.0192 -0.0189
 8735W        W 8735   8.762   8.717   4.442 -0.2385  0.1168 -0.1949
 8736W        W 8736   7.807   0.190   5.394  0.2978 -0.0569 -0.0930
 8737W        W 8737   3.516   3.530   0.836  0.1056 -0.1189 -0.4498
 8738W        W 8738   5.560   3.418   2.698  0.1531  0.3309 -0.5477
 8739W        W 8739   9.022   6.973   9.176 -0.1399  0.0032 -0.2225
 8740W        W 8740   5.878  10.042   6.582  0.1856  0.0483  0.0459
 8741W        W 8741   2.158   1.914   7.706 -0.0484 -0.0467  0.0486
 8742W        W 8742   7.382   5.312   0.771 -0.0930  0.2233  0.0267
 8743W        W 8743   1.750   8.997   6.998  0.1652 -0.0765 -0.2201
 8744W        W 8744   0.961   1.565   5.684  0.0733  0.0681 -0.1470
 8745W        W 8745   4.951   4.905   1.682 -0.1201 -0.2433 -0.0910
 8746W        W 8746   0.437   5.547   1.086  0.1457 -0.0397 -0.1147
 8747W        W 8747   3.924   9.349   8.312 -0.0748 -0.2570  0.1126
 8748W        W 8748   3.578   5.658   8.335  0.2533 -0.0032  0.0169
 8749W        W 8749   3.682   3.959   9.895 -0.0388  0.1387 -0.0844
 8750W        W 8750   7.398   8.542   3.928 -0.1538 -0.2381 -0.0323
 8751W        W 8751   8.710   6.560   7.313  0.0625 -0.0794  0.3365
 8752W        W 8752   3.373   9.197   3.093  0.1937  0.1533 -0.1170
 8753W        W 8753   3.652   7.337   1.491 -0.0971 -0.2868  0.0229
 8754W        W 8754   3.760   5.112   0.640 -0.3329  0.1858 -0.1030
 8755W        W 8755   3.954   8.504   5.929  0.1057  0.1887  0.0879
 8756W        W 8756   6.449   0.118   3.195 -0.1490  0.0859  0.0024
 8757W        W 8757   4.773   7.925   0.283 -0.1327 -0.0489  0.2473
 8758W        W 8758   2.894   5.737   5.034 -0.0060  0.3603 -0.1460
 8759W        W 8759   4.669   2.858   0.724 -0.0490  0.0651 -0.0940
 8760W        W 8760   5.482   7.837   0.975 -0.1064 -0.0112 -0.4421
 8761W        W 8761   9.326   4.381   5.488 -0.1134 -0.0464  0.0834
 8762W        W 8762   4.895   0.968   6.129  0.2067 -0.0441  0.0949
 8763W        W 8763   0.455   7.563   1.991  0.0136  0.0008 -0.0352
 8764W        W 8764   9.017   1.469   5.095  0.0737 -0.0025 -0.0647
 8765W        W 8765   7.307   3.107   0.443  0.3527 -0.0882  0.0981
 8766W        W 8766  10.182   6.804   7.983 -0.2346 -0.3747 -0.1175
 8767W        W 8767   4.765   8.994   2.459  0.1793  0.0768  0.1007
 8768W        W 8768   2.054   1.019   5.254  0.1420  0.4279 -0.2551
 8769W        W 8769   2.288   2.038   0.402 -0.0214  0.2165 -0.0734
 8770W        W 8770   6.310   6.076   9.088 -0.1220  0.1098  0.1904
 8771W        W 8771   4.254   9.060   6.546  0.1980  0.0310 -0.1784
 8772W        W 8772   1.451   7.523   1.387  0.1334 -0.2030  0.0970
 8773W        W 8773   6.208   4.766   8.332  0.0577  0.1168 -0.0532
 8774W        W 8774   6.949   0.132   9.566 -0.1850 -0.1155 -0.0321
 8775W        W 8775   5.830   0.613   5.444 -0.1003 -0.2161 -0.0732
 8776W        W 8776   5.037   4.135   8.453  0.0809 -0.3219 -0.0740
 8777W        W 8777   9.500   0.526   6.891  0.0769  0.0056  0.0221
 8778W        W 8778   3.643   4.015   6.996 -0.0790  0.0504  0.2665
 8779W        W 8779   6.388   7.381  10.015  0.2458  0.1461 -0.0458
 8780W        W 8780   0.692   6.958   8.172  0.2049 -0.1978 -0.0979
 8781W        W 8781  10.233   9.403   8.990 -0.2939 -0.1948 -0.1528
 8782W        W 8782   2.458   3.461   7.252 -0.1796  0.2870 -0.0866
 8783W        W 8783   0.156   6.096   4.616 -0.2452  0.1206  0.4041
 8784W        W 8784   3.873   3.570   6.391  0.1569  0.1974  0.1861
 8785W        W 8785   8.110   2.281   6.301  0.1194  0.0794  0.0399
 8786W        W 8786   2.664   9.368   5.211  0.4095  0.2145 -0.0025
 8787W        W 8787   3.516   6.800   1.112  0.0910 -0.3759  0.1619
 8788W        W 8788   4.178   5.574   0.769  0.1478  0.2539 -0.2699
 8789W        W 8789   7.509   3.113   7.392  0.1646 -0.0932 -0.3389
 8790W        W 8790   3.776   2.458   5.084  0.0092  0.0580  0.1871
 8791W        W 8791   6.548   5.437   6.399  0.2566 -0.0146 -0.1484
 8792W        W 8792   8.240   6.889   8.566 -0.1188  0.1092  0.0368
 8793W        W 8793   1.841   3.166  10.072 -0.1593  0.0928 -0.0655
 8794W        W 8794   5.008   6.845   8.951 -0.2580  0.0467 -0.0066
 8795W        W 8795   8.165   7.569   0.750 -0.1903 -0.2071 -0.2935
 8796W        W 8796   9.402   1.455   2.396 -0.1544  0.0473 -0.2662
 8797W        W 8797   5.995   9.887   0.807  0.0213  0.0150 -0.1249
 8798W        W 8798   6.384   5.326   7.202 -0.3875  0.0508  0.2356
 8799W        W 8799   2.737   3.865   0.719 -0.1838  0.3507 -0.0276
 8800W        W 8800   8.987   7.409   8.922  0.2588  0.1811 -0.0577
 8801W        W 8801   8.109   4.794   9.457 -0.2510  0.1984 -0.0965
 8802W        W 8802   8.120   2.392   2.637  0.1035 -0.1650 -0.0021
 8803W        W 8803  10.034   8.150   5.850 -0.0162  0.1838 -0.0146
 8804W        W 8804   7.788   6.228   1.595 -0.1797 -0.0340 -0.0544
 8805W        W 8805   0.985   0.323   3.826  0.0619  0.1187 -0.0423
 8806W        W 8806   3.565   0.982   3.572  0.3354 -0.1011  0.1770
 8807W        W 8807   5.566   5.070   2.037  0.1903  0.1554 -0.0014
 8808W        W 8808   9.840  10.185   7.363 -0.0580 -0.1185 -0.1335
 8809W        W 8809   6.877   0.362  10.046 -0.0671 -0.1328 -0.1395
 8810W        W 8810   4.220   0.838   1.665  0.1700 -0.3254 -0.2321
 8811W        W 8811   3.506   0.715   4.734  0.2133  0.1368 -0.1785
 8812W        W 8812   8.718   3.807   4.428 -0.0174  0.0269 -0.1868
 8813W        W 8813   1.563  10.319   9.204  0.1308  0.0107  0.3075
 8814W        W 8814   6.877   2.663   7.770 -0.1215 -0.1262  0.2431
 8815W        W 8815   6.895   1.379  10.273 -0.2393 -0.2043 -0.0047
 8816W        W 8816   3.968   7.810   3.268 -0.2654  0.1267 -0.0270
 8817W        W 8817   1.722  10.291   6.361 -0.0592  0.2490  0.1731
 8818W        W 8818   2.035   5.813   0.412 -0.0193 -0.0926 -0.1576
 8819W        W 8819   8.165   9.416   2.685 -0.2258 -0.0143 -0.3624
 8820W        W 8820   0.154   8.434   3.224 -0.0094  0.1348 -0.1207
 8821W        W 8821   0.760   7.786   3.717 -0.1938 -0.0333 -0.1649
 8822W        W 8822   3.620   9.549   3.346 -0.2097 -0.0068 -0.0680
 8823W        W 8823   4.137   3.958   7.269 -0.0709  0.1012 -0.1204
 8824W        W 8824   2.987   4.547  10.275 -0.2984  0.0264 -0.1392
 8825W        W 8825   1.212   8.136  10.239 -0.1264  0.0585  0.0667
 8826W        W 8826   5.495   1.443   0.075 -0.2479 -0.1783  0.1195
 8827W        W 8827   8.912   3.084   1.656  0.4443 -0.2521  0.0534
 8828W        W 8828  10.226   5.268   2.689  0.0249  0.3209 -0.1145
 8829W        W 8829   7.498   1.574   8.919  0.3364 -0.1477 -0.0371
 8830W        W 8830   9.628   5.119   0.751  0.1622  0.2912 -0.0002
 8831W        W 8831   9.956   8.184   0.974 -0.1522  0.2462 -0.1511
 8832W        W 8832   5.399   3.755   4.668 -0.1050 -0.0014  0.0430
 8833W        W 8833   5.313   8.627   8.574 -0.1448 -0.0033 -0.2002
 8834W        W 8834   3.053   5.854   9.397  0.1252  0.0537  0.0295
 8835W        W 8835   4.627   6.362   4.907 -0.0906 -0.0484  0.2378
 8836W        W 8836   8.974   3.361   1.264  0.0131 -0.1085  0.0775
 8837W        W 8837   8.960   9.722   4.171 -0.0045  0.1468  0.1570
 8838W        W 8838   6.300   2.343   8.988  0.2328 -0.0285  0.1393
 8839W        W 8839   6.088   3.438   4.940  0.1996  0.0467  0.1657
 8840W        W 8840   0.161   6.693   6.860 -0.0195  0.4039  0.3272
 8841W        W 8841   3.164   8.098   5.342  0.3986 -0.1492 -0.0950
 8842W        W 8842   7.786   0.914   7.398  0.1223 -0.3060  0.1085
 8843W        W 8843   7.533   3.392   5.629  0.0906  0.0783  0.0141
 8844W        W 8844   7.990   5.950   4.517 -0.0700 -0.0299 -0.3218
 8845W        W 8845   4.397   8.764   2.264  0.2610 -0.0748 -0.3495
 8846W        W 8846  10.125   2.158   5.078 -0.1438 -0.0201 -0.0278
 8847W        W 8847   4.267   6.637  10.299  0.1103  0.1315 -0.0925
 8848W        W 8848   1.650   8.527   2.508  0.0303 -0.1283  0.2932
 8849W        W 8849   9.735   5.484   5.667  0.2330  0.2473 -0.2562
 8850W        W 8850   4.024   3.179   0.106 -0.1324 -0.0174  0.3314
 8851W        W 8851  10.283   2.641   8.320  0.0636  0.2122 -0.1560
 8852W        W 8852   2.113   0.541   1.939  0.2807  0.0118 -0.0793
 8853W        W 8853   3.912   6.220   4.316  0.1048 -0.0867 -0.0472
 8854W        W 8854   4.314   5.670   5.753 -0.0857 -0.1176 -0.2599
 8855W        W 8855   6.962   6.271   9.683 -0.0408  0.2349  0.0963
 8856W        W 8856   4.628   3.739   8.415 -0.1737  0.0879  0.0477
 8857W        W 8857   2.556   9.528   9.844 -0.0028 -0.1869 -0.3251
 8858W        W 8858   2.906   3.151   1.829  0.1424  0.0626 -0.2612
 8859W        W 8859   6.700   1.268   4.337 -0.1685 -0.0311  0.1184
 8860W        W 8860   2.268   6.317   7.589 -0.1018 -0.3071  0.1123
 8861W        W 8861   2.731   8.875   1.515 -0.0941  0.0875 -0.0893
 8862W        W 8862   9.430   6.492   9.066  0.1606  0.0906 -0.2045
 8863W        W 8863   8.458   1.132   2.640  0.2480 -0.0423 -0.0992
 8864W        W 8864   2.935   7.403   8.837 -0.1482 -0.2952 -0.1274
 8865W        W 8865   4.692   3.336   2.715 -0.1782  0.1529 -0.3732
 8866W        W 8866   7.708   0.421   7.449 -0.0951 -0.4074 -0.1461
 8867W        W 8867   1.511   5.025   0.098  0.1924  0.1622  0.0063
 8868W        W 8868  10.205   9.056   5.630 -0.1907  0.1065  0.1775
 8869W        W 8869   2.214   4.493   2.145 -0.1203 -0.4211  0.3750
 8870W        W 8870   9.537   2.845   2.499  0.1748  0.1487 -0.2733
 8871W        W 8871   5.391   8.844   0.871  0.0063  0.0278  0.3760
 8872W        W 8872   1.227   0.766   8.771  0.4833  0.0856 -0.1733
 8873W        W 8873   8.781   1.087   0.235  0.1245 -0.1147 -0.2261
 8874W        W 8874   5.858   8.527   8.638 -0.0392 -0.0993 -0.2754
 8875W        W 8875   0.553   5.244   1.523 -0.0195 -0.0312 -0.0126
 8876W        W 8876   3.003   3.711   3.131 -0.1093 -0.0791 -0.0860
 8877W        W 8877   8.615   5.885   7.268 -0.1780 -0.1824 -0.3361
 8878W        W 8878   1.932   5.456   6.867 -0.0375  0.0360  0.1144
 8879W        W 8879   7.830   4.007   0.933  0.0364  0.3034  0.2158
 8880W        W 8880   1.558   1.525   8.986  0.1543  0.2972 -0.1989
 8881W        W 8881   6.453   4.088   9.765  0.0072  0.0954  0.1922
 8882W        W 8882   9.733   1.516   7.212  0.2793  0.2632  0.0340
 8883W        W 8883   3.447   1.117   5.042  0.0062 -0.0505  0.2173
 8884W        W 8884   1.926   8.226   4.188 -0.0131 -0.0295  0.1485
 8885W        W 8885   3.458   6.418   5.706 -0.0103 -0.2880 -0.0521
 8886W        W 8886   0.820   5.125   6.867  0.3647  0.4325  0.0318
 8887W        W 8887   4.106   8.584   6.822 -0.1057  0.1727  0.2128
 8888W        W 8888   8.907   6.940   2.100  0.2139 -0.0289 -0.3074
 8889W        W 8889   9.871   2.622   2.118  0.2328 -0.1567 -0.0387
 8890W        W 8890   3.996   3.720   3.450  0.1970 -0.0467  0.2364
 8891W        W 8891   7.730   1.619   2.808  0.1457  0.1365  0.0134
 8892W        W 8892   0.976   1.878   1.844 -0.2228  0.2651 -0.0179
 8893W        W 8893   2.936   1.986   6.584 -0.0638  0.2837 -0.0505
 8894W        W 8894   4.353   1.926   2.831 -0.0349 -0.1702 -0.2628
 8895W        W 8895   9.364   6.304   4.489  0.0066 -0.0628 -0.1532
 8896W        W 8896   2.221   2.370   7.929 -0.0034 -0.2244  0.2525
 8897W        W 8897   2.807   8.891   3.624  0.0705  0.1621 -0.0668
 8898W        W 8898   4.728   1.838   3.280  0.0297 -0.3388  0.1700
 8899W        W 8899   5.110   5.186   0.694  0.4053  0.0151  0.0527
 8900W        W 8900   1.188   0.695   0.336 -0.3420  0.0290 -0.3207
 8901W        W 8901   8.899   8.755   5.774  0.1796 -0.0371 -0.2074
 8902W        W 8902   6.479   4.530   1.004 -0.1011  0.2556  0.0358
 8903W        W 8903   4.132   6.853   9.065  0.0944 -0.1224  0.1266
 8904W        W 8904   5.101   0.649   7.293 -0.0131 -0.2576  0.0862
 8905W        W 8905   0.986   9.657   8.353 -0.0381  0.4477 -0.1333
 8906W        W 8906   7.629   6.708   5.930  0.3042 -0.1558 -0.0135
 8907W        W 8907   2.802   3.152   5.063  0.0330 -0.1884 -0.1422
 8908W        W 8908   5.486   3.520   7.871 -0.2179 -0.0151 -0.3235
 8909W        W 8909   6.412   8.974   5.252 -0.1556  0.2166 -0.2383
 8910W        W 8910   2.311   0.129   3.144 -0.0712  0.0493 -0.0328
 8911W        W 8911   7.940   8.088   6.330 -0.3067 -0.0023  0.0538
 8912W        W 8912   0.070   1.073   3.717  0.1752 -0.0187 -0.4227
 8913W        W 8913   1.341   8.658   0.611 -0.3002 -0.0606 -0.0660
 8914W        W 8914   8.223   9.868   6.525  0.0663 -0.0911  0.0443
 8915W        W 8915   6.085   1.891   1.032  0.0094 -0.0201 -0.3286
 8916W        W 8916   9.063   1.648   0.271  0.0193 -0.1880  0.4551
 8917W        W 8917   8.483   1.231   3.118 -0.0321 -0.1345  0.3268
 8918W        W 8918   8.975   3.763   9.189 -0.2240 -0.1061  0.1955
 8919W        W 8919   6.712   8.388   6.995 -0.1131 -0.1907  0.1892
 8920W        W 8920   5.417   4.056   7.638  0.1232 -0.1313  0.1594
 8921W        W 8921   7.477   7.281   8.850 -0.0959  0.1225  0.2688
 8922W        W 8922   8.878   8.238   5.498  0.4501  0.0203  0.0917
 8923W        W 8923   0.969   3.204   0.034 -0.2430 -0.1328  0.1994
 8924W        W 8924   2.719  10.207   2.000 -0.3565 -0.1286  0.0214
 8925W        W 8925   6.135   2.459   8.525  0.5071  0.1421 -0.0773
 8926W        W 8926   2.999   0.683   1.181 -0.0862  0.0330 -0.1646
 8927W        W 8927   4.581   5.700   7.869 -0.2469  0.1303 -0.0265
 8928W        W 8928   1.746   8.649   6.145  0.1554  0.2847  0.2354
 8929W        W 8929   3.542   3.459   0.322 -0.0123  0.4927 -0.0505
 8930W        W 8930   2.641   6.097   6.044  0.1034 -0.0339  0.4179
 8931W        W 8931   1.793   4.039   6.209  0.0564  0.2365 -0.1051
 8932W        W 8932   9.962   6.911   5.158  0.0071 -0.0703 -0.2077
 8933W        W 8933   3.643   4.480   7.884  0.1678 -0.0613 -0.0751
 8934W        W 8934   6.094   1.092   9.184 -0.0572  0.1895  0.0608
 8935W        W 8935   5.527   1.187   4.248 -0.1771  0.1314 -0.0517
 8936W        W 8936   2.107   0.506   4.997 -0.2886 -0.0413  0.0161
 8937W        W 8937   7.204   8.559   8.253 -0.6885  0.0478  0.0752
 8938W        W 8938   3.556   6.008   2.136  0.1677  0.0192  0.0914
 8939W        W 8939   5.328   1.884   0.174 -0.0301  0.1554  0.0040
 8940W        W 8940   6.266  10.162   2.390  0.0631  0.2593 -0.0055
 8941W        W 8941   6.556   9.486   8.705 -0.1273 -0.0737 -0.0779
 8942W        W 8942   9.719   3.705   8.514 -0.1005  0.1791 -0.3856
 8943W        W 8943   2.020  10.250   9.463  0.1958 -0.0033  0.1154
 8944W        W 8944   1.686   0.806   2.288  0.2651  0.0649 -0.0707
 8945W        W 8945  10.082   5.458   6.334 -0.0042 -0.0820  0.3154
 8946W        W 8946   7.516   2.317   6.442 -0.2094  0.0165  0.2108
 8947W        W 8947   9.779   3.535   5.181 -0.0150 -0.1481  0.1304
 8948W        W 8948   9.196   2.715   7.064 -0.1885 -0.0655 -0.0185
 8949W        W 8949   5.117   6.360   9.040  0.0900 -0.0005 -0.2300
 8950W        W 8950   3.113   3.898   2.042  0.0053 -0.1611  0.1735
 8951W        W 8951   6.940   0.351   0.266 -0.0935  0.1485 -0.0944
 8952W        W 8952   2.871   2.963   1.176  0.0083 -0.0696  0.0667
 8953W        W 8953   6.304   9.393   7.318  0.1900 -0.4315  0.3224
 8954W        W 8954   0.186   6.607  10.181 -0.0375 -0.0659 -0.2062
 8955W        W 8955   1.891   3.901   5.719 -0.0165  0.2164  0.2344
 8956W        W 8956   5.461   4.614   7.615 -0.0237  0.2456 -0.0441
 8957W        W 8957   6.021   3.493   7.926 -0.2614 -0.4335 -0.0465
 8958W        W 8958   2.429   5.168   6.755  0.0285  0.1404  0.0258
 8959W        W 8959   7.897   6.950   8.960  0.0039  0.1827  0.1003
 8960W        W 8960   9.985   6.232   1.388  0.3308  0.0007  0.0179
 8961W        W 8961   9.854  10.289   2.961 -0.0750  0.3289  0.0279
 8962W        W 8962   8.755   7.221   0.791  0.0794  0.0930 -0.2176
 8963W        W 8963   2.684   1.390   0.529 -0.2444 -0.2555 -0.1079
 8964W        W 8964   7.651   0.298   9.734 -0.1958 -0.1563  0.2961
 8965W        W 8965   7.637   4.471   0.578  0.0119 -0.3281  0.1831
 8966W        W 8966   5.792   6.691   2.474  0.0813 -0.3592  0.0414
 8967W        W 8967   1.488   8.895   8.121 -0.2727  0.0239  0.1634
 8968W        W 8968   4.472   0.775   4.280  0.2570 -0.3184  0.3504
 8969W        W 8969   9.818   2.654   7.514  0.0323 -0.1607 -0.2297
 8970W        W 8970   3.084   7.816   3.582 -0.2022  0.4477  0.3375
 8971W        W 8971   1.012   0.386   9.651  0.1150  0.2880  0.0333
 8972W        W 8972   5.159   5.847   2.270 -0.0689  0.0195 -0.0948
 8973W        W 8973   1.407   0.517   2.950  0.2056 -0.0867  0.0764
 8974W        W 8974   3.625   2.218   2.295 -0.1498 -0.0093 -0.1000
 8975W        W 8975   1.788   0.646   4.617 -0.1241 -0.0759  0.0165
 8976W        W 8976   7.465   0.166   7.063 -0.1707  0.4865  0.1033
 8977W        W 8977   5.127   7.334   1.888  0.0520  0.0451  0.0174
 8978W        W 8978   4.578   4.589   1.709  0.2409  0.1102  0.3542
 8979W        W 8979   3.030   4.327   9.388  0.0241  0.0225 -0.0803
 8980W        W 8980   1.099   4.570   4.792  0.1898  0.1869 -0.0955
 8981W        W 8981   8.192   9.869   8.483 -0.3204  0.0956  0.0440
 8982W        W 8982   5.880   4.969   6.961 -0.2972  0.1303  0.1537
 8983W        W 8983   7.562   3.660   4.231  0.1671 -0.0125 -0.0898
 8984W        W 8984   2.226   0.418   8.144 -0.0918  0.0155  0.3235
 8985W        W 8985   4.740   3.163   6.185 -0.1686 -0.0768 -0.0159
 8986W        W 8986   6.609   6.890   9.987 -0.0418  0.0957 -0.0920
 8987W        W 8987   0.422   1.085   9.120  0.1306 -0.0401  0.2263
 8988W        W 8988   9.095   6.095   6.403  0.0638  0.3799  0.0646
 8989W        W 8989   9.510   2.798   5.513  0.0119  0.0945  0.1467
 8990W        W 8990   3.724   4.503   6.897  0.3204 -0.1968 -0.0355
 8991W        W 8991   2.848   9.867   0.717 -0.1065  0.0530  0.0102
 8992W        W 8992   5.132   5.408   7.246  0.0177 -0.0742 -0.0901
 8993W        W 8993   0.601   1.709   4.774  0.0443 -0.4289 -0.1677
 8994W        W 8994   1.392  10.251   4.500 -0.0535  0.1219 -0.2483
 8995W        W 8995   3.515   8.303   4.159  0.0776  0.1217 -0.1778
 8996W        W 8996   1.152   4.755   7.117 -0.2418 -0.0077  0.3817
 8997W        W 8997   5.678   9.611   5.191  0.2876  0.1456  0.2508
 8998W        W 8998   3.644   6.557   4.699 -0.2270  0.0490  0.1393
 8999W        W 8999   6.362   6.096   4.251 -0.1184  0.1315  0.0665
 9000W        W 9000   3.670   8.803   3.502 -0.1407  0.0980 -0.1695
 9001W        W 9001   3.557   6.451   3.145 -0.1040 -0.0384  0.1988
 9002W        W 9002   6.847   0.255   2.739 -0.1075 -0.1113 -0.2016
 9003W        W 9003   1.616   4.008   1.905  0.4709  0.0534 -0.0283
 9004W        W 9004   2.522   1.869   6.884  0.0136  0.0921  0.0675
 9005W        W 9005   4.874   2.011   2.767 -0.3061 -0.2327 -0.2187
 9006W        W 9006   7.836   9.793   8.999 -0.2568 -0.0082  0.1350
 9007W        W 9007   0.084   6.961   7.357 -0.0785  0.1124 -0.2288
 9008W        W 9008   8.093   0.820  10.066 -0.0051 -0.4209  0.0202
 9009W        W 9009   0.956   6.570   7.545 -0.0310 -0.0831 -0.1912
 9010W        W 9010   3.446  10.052   3.310 -0.3149  0.2598 -0.0691
 9011W        W 9011   7.330   3.917   2.161 -0.0139  0.1227  0.0139
 9012W        W 9012   3.491   5.253   6.599 -0.0671 -0.0381  0.2139
 9013W        W 9013   6.928   2.928   6.948 -0.0375 -0.1363 -0.1903
 9014W        W 9014   5.568   0.648   5.873  0.1451 -0.0252 -0.2120
 9015W        W 9015   6.783   7.159   6.268  0.1285 -0.0254 -0.4268
 9016W        W 9016   0.093   6.067   3.106 -0.3227  0.0250  0.0894
 9017W        W 9017   6.996   2.180   6.361 -0.1226  0.0714  0.2850
 9018W        W 9018   2.618   9.506   0.380 -0.0692  0.2397 -0.1382
 9019W        W 9019   9.400   7.186   5.928  0.2951  0.3590  0.0738
 9020W        W 9020   4.777   3.790   5.214  0.2213  0.0714  0.1107
 9021W        W 9021   5.677   0.345   0.805  0.0113 -0.0299 -0.1900
 9022W        W 9022   4.961   4.097   4.650  0.0776  0.0568 -0.0063
 9023W        W 9023   2.376   0.470   0.958 -0.5974 -0.2205  0.1148
 9024W        W 9024   6.494   9.802   5.832 -0.0712  0.0997 -0.0470
 9025W        W 9025   8.366   0.245   4.063 -0.0896 -0.0208  0.0916
 9026W        W 9026   3.711   2.994   5.145  0.2054  0.0765 -0.2538
 9027W        W 9027   7.569  10.164   9.651  0.0687 -0.1848  0.2833
 9028W        W 9028   3.849   7.301   3.608  0.1190 -0.2720  0.2460
 9029W        W 9029   3.985   1.688   3.916  0.0903 -0.2166  0.1512
 9030W        W 9030   3.148   4.524   2.043 -0.2010  0.0888  0.2079
 9031W        W 9031  10.055   7.111   4.597  0.0923 -0.1355 -0.0467
 9032W        W 9032   9.002   0.682   8.020  0.0976 -0.2851 -0.0211
 9033W        W 9033   6.328   0.043   4.449 -0.2050  0.2025  0.2536
 9034W        W 9034   2.615   2.513   3.253 -0.0703  0.0391  0.1960
 9035W        W 9035   1.526   6.854   4.812  0.0619  0.2082 -0.1375
 9036W        W 9036   2.790   6.185   2.611 -0.2093  0.0588 -0.4127
 9037W        W 9037   4.876   6.120   7.749 -0.0672 -0.1328 -0.1664
 9038W        W 9038   2.397   1.415   6.071 -0.1714 -0.2367  0.1321
 9039W        W 9039   1.716   9.661   0.843  0.1843  0.1741  0.1748
 9040W        W 9040   6.494   9.428   4.977  0.0082  0.0266 -0.0615
 9041W        W 9041   3.476   8.444   0.268 -0.4798 -0.0567 -0.2759
 9042W        W 9042   3.053   7.675   7.530  0.1189  0.0662 -0.0879
 9043W        W 9043   9.464   7.572   9.787 -0.0758  0.3069 -0.2269
 9044W        W 9044   9.479   3.314   3.459 -0.0463 -0.4138  0.0433
 9045W        W 9045   7.641   9.397   0.530 -0.0408  0.3928 -0.3252
 9046W        W 9046   4.044   4.813   8.498  0.0021  0.1207  0.2633
 9047W        W 9047   2.074   3.397   6.950 -0.0997 -0.0525  0.1164
 9048W        W 9048   9.278   5.529   8.606 -0.0626  0.0671 -0.1386
 9049W        W 9049   6.759   9.414   6.510 -0.2009 -0.0444 -0.2085
 9050W        W 9050   3.129   2.303   2.627  0.1438  0.2803  0.1520
 9051W        W 9051   9.916   1.534   1.686 -0.2722 -0.1049 -0.1596
 9052W        W 9052   1.214   6.334   8.167  0.1168 -0.2788 -0.0484
 9053W        W 9053   6.331   1.855   6.492  0.1488  0.1416 -0.0856
 9054W        W 9054   6.971   9.654   6.114  0.0206  0.2529  0.2425
 9055W        W 9055   8.524   1.765   1.860  0.0554  0.0751 -0.1646
 9056W        W 9056   9.819   9.869   9.493  0.1171  0.0119  0.1900
 9057W        W 9057   1.469   6.127   1.264  0.0868  0.1672 -0.1324
 9058W        W 9058   5.890   1.624   4.801  0.0185 -0.0873  0.0870
 9059W        W 9059   6.380   0.504   6.174  0.0953 -0.0349 -0.0609
 9060W        W 9060   4.694   2.156   4.073 -0.5207  0.4119  0.0583
 9061W        W 9061   1.882   7.879   5.801 -0.1765 -0.3511 -0.1454
 9062W        W 9062   7.293   2.497   9.136  0.0846 -0.1026 -0.0212
 9063W        W 9063   8.209   1.281   5.889 -0.0226 -0.3981  0.4549
 9064W        W 9064   7.407   5.162   0.135 -0.2300 -0.0817  0.2555
 9065W        W 9065   9.691   7.753   6.508  0.0871  0.1681  0.1878
 9066W        W 9066   9.399   7.420   5.457  0.0656  0.1415 -0.2458
 9067W        W 9067   7.690   1.008   3.838 -0.1479  0.1286 -0.0624
 9068W        W 9068   5.657   3.092   8.099 -0.1693 -0.1300  0.1907
 9069W        W 9069   4.900   5.069   6.817 -0.2123 -0.0685 -0.4179
 9070W        W 9070   8.464   9.376   9.640  0.0526  0.2397 -0.0385
 9071W        W 9071   1.694   5.575   9.110  0.0946 -0.0583 -0.0292
 9072W        W 9072   6.190   2.784   0.791 -0.3140  0.1828 -0.0456
 9073W        W 9073   1.483   9.793   7.485  0.0481 -0.3545  0.0475
 9074W        W 9074   4.731   7.777   8.358  0.1649 -0.2182  0.2715
 9075W        W 9075   1.350   4.512  10.304  0.1056  0.1528 -0.1335
 9076W        W 9076   2.216   8.171   3.677  0.2920  0.4131  0.1590
 9077W        W 9077   1.731   1.179   4.486 -0.1183 -0.0437  0.0106
 9078W        W 9078   2.265   1.839   0.940 -0.1474  0.1466  0.0768
 9079W        W 9079   9.543   3.695   1.366 -0.2875  0.3532 -0.2372
 9080W        W 9080   3.529   4.014   8.132  0.0849 -0.2568  0.0868
 9081W        W 9081   7.622   7.653   7.984 -0.3882 -0.1097 -0.0743
 9082W        W 9082   5.921   9.375   6.000  0.0424  0.1238 -0.0564
 9083W        W 9083   2.575   3.140   6.886  0.1534  0.2344 -0.1266
 9084W        W 9084   0.376   2.747   8.034  0.1832  0.3466 -0.1302
 9085W        W 9085   4.965   1.322   7.012 -0.1261 -0.1086  0.0455
 9086W        W 9086   2.454   9.205   6.256  0.0642  0.2680  0.1311
 9087W        W 9087   4.591   8.110   4.004 -0.0512  0.0034  0.1448
 9088W        W 9088   3.918   4.924   4.972  0.0634 -0.1083 -0.1923
 9089W        W 9089   8.627   9.055   4.074  0.2719 -0.2426 -0.0978
 9090W        W 9090   0.456   8.492  10.197 -0.0845  0.2836 -0.0654
 9091W        W 9091   8.195   5.362   6.461  0.1345 -0.0682 -0.0972
 9092W        W 9092   8.209   3.208   1.304 -0.0341  0.2014 -0.0284
 9093W        W 9093   3.646   5.669   9.364 -0.3373 -0.0138  0.1104
 9094W        W 9094   2.263   1.661   3.573  0.0595  0.1179 -0.2150
 9095W        W 9095   8.568   7.648   8.828 -0.0222 -0.0392  0.2330
 9096W        W 9096   8.946   7.655   2.298 -0.0931  0.0417 -0.2529
 9097W        W 9097   5.060   5.338  10.136 -0.4728 -0.4364 -0.0208
 9098W        W 9098   0.938   3.034   8.949 -0.0193  0.1832 -0.0963
 9099W        W 9099   7.582   4.255   4.902  0.0386  0.0610 -0.0641
 9100W        W 9100   0.258   4.650   2.168 -0.2129 -0.0494 -0.2292
 9101W        W 9101   9.862   7.802   4.193 -0.0771  0.1589 -0.0909
 9102W        W 9102   9.418   9.391   0.988  0.1605 -0.2750  0.1265
 9103W        W 9103   8.380  10.224   9.629 -0.0316 -0.2038 -0.0043
 9104W        W 9104  10.326   7.819   5.519 -0.0390 -0.1278 -0.0942
 9105W        W 9105   1.713   3.048   8.120  0.3008  0.1280  0.0995
 9106W        W 9106   9.144   4.946   7.159 -0.2311  0.1520 -0.1435
 9107W        W 9107   3.775   1.153   0.001 -0.1532  0.1802  0.0780
 9108W        W 9108   9.059   3.504   7.338 -0.0728  0.1890 -0.0400
 9109W        W 9109   8.613   9.852   3.696  0.0885  0.4488 -0.1155
 9110W        W 9110   4.897   1.298   1.151 -0.0790  0.1674  0.0330
 9111W        W 9111   6.419   0.670   9.968 -0.1297 -0.1708  0.1460
 9112W        W 9112   0.911   2.715   0.648  0.1370  0.1677 -0.1555
 9113W        W 9113   2.616   5.125   4.093  0.2344  0.2145  0.0741
 9114W        W 9114   6.191   1.633   1.569  0.0361 -0.0023 -0.2461
 9115W        W 9115   7.169   5.508  10.189  0.2994 -0.0883  0.0750
 9116W        W 9116   6.008   9.656  10.199  0.3236 -0.2952  0.1423
 9117W        W 9117   4.828   5.935   6.632 -0.2597 -0.3560  0.1174
 9118W        W 9118   2.350   4.626   7.618  0.0124 -0.1855 -0.2256
 9119W        W 9119  10.197   4.776   6.754 -0.2434 -0.1145 -0.0878
 9120W        W 9120   4.462   3.960   0.491 -0.1119  0.0386 -0.0963
 9121W        W 9121   6.631   9.875   6.547 -0.2074 -0.0950  0.1344
 9122W        W 9122   3.484   4.782   4.649  0.3007  0.2916  0.1079
 9123W        W 9123   3.818   3.168   4.511 -0.5236 -0.0695  0.2040
 9124W        W 9124   3.858   5.590   0.300 -0.0526  0.0674 -0.1877
 9125W        W 9125   3.354   5.299   8.629  0.0305 -0.1452  0.0205
 9126W        W 9126   7.530   7.424   2.207 -0.0618 -0.1673 -0.4272
 9127W        W 9127   8.656   3.385   5.634  0.1323 -0.0404  0.1835
 9128W        W 9128   8.016   6.645   7.637  0.3069  0.1169 -0.0487
 9129W        W 9129   6.652   1.095   1.429  0.1195  0.0505  0.0519
 9130W        W 9130   6.905   4.499  10.209  0.3191 -0.0361  0.0232
 9131W        W 9131  10.034  10.140   8.712  0.1991  0.2177  0.1708
 9132W        W 9132   1.502   8.579   4.072 -0.1716  0.1906  0.2472
 9133W        W 9133   0.882   9.046   8.925  0.1227  0.1622  0.1674
 9134W        W 9134   7.016   7.697   0.193 -0.3518  0.2080  0.1844
 9135W        W 9135   0.610   5.613   6.654 -0.2368  0.0031 -0.2197
 9136W        W 9136   9.782   7.311   3.496  0.0303 -0.1190 -0.0618
 9137W        W 9137   9.165   9.139   9.409  0.0415 -0.1311  0.0920
 9138W        W 9138   3.293   7.529   9.880 -0.0678  0.5042  0.0468
 9139W        W 9139   8.954   2.649   5.557  0.0158  0.0471  0.0230
 9140W        W 9140   7.665   0.812   1.864 -0.3822  0.0667 -0.2710
 9141W        W 9141   1.657   8.312   5.802  0.2969  0.3052 -0.1078
 9142W        W 9142   7.368   2.246   0.794  0.0041 -0.0934  0.3669
 9143W        W 9143   4.438   6.665   9.798  0.1131 -0.1979 -0.3880
 9144W        W 9144   1.124   6.801   9.336 -0.0797  0.0630 -0.0731
 9145W        W 9145   4.994   4.040   2.707 -0.1781  0.0276  0.2372
 9146W        W 9146  10.063   1.702   6.314 -0.0281 -0.2880 -0.0248
 9147W        W 9147   0.147   4.533   4.861  0.0557 -0.1432 -0.2972
 9148W        W 9148   1.270   8.985   6.738 -0.0221 -0.1648  0.5200
 9149W        W 9149   9.720   2.323   0.638 -0.0503 -0.2229  0.0230
 9150W        W 9150   6.057   4.749   1.105 -0.1898  0.0750  0.0528
 9151W        W 9151   7.769   9.679  10.314  0.1525  0.2498 -0.1353
 9152W        W 9152   0.943   2.548   5.578  0.0805 -0.1591  0.0363
 9153W        W 9153   1.671   5.121   1.651  0.0484 -0.0479  0.1659
 9154W        W 9154   2.891   0.390   9.250  0.1875  0.2270 -0.2291
 9155W        W 9155   9.668   9.302   4.827 -0.2610 -0.0986  0.2315
 9156W        W 9156   4.155   9.017   7.140 -0.4416 -0.0594 -0.0339
 9157W        W 9157   0.486   3.983   6.554 -0.0486  0.1438  0.1342
 9158W        W 9158   0.600   1.643   9.096  0.1679 -0.0745  0.0348
 9159W        W 9159   6.140   0.574   3.856  0.2477 -0.1664  0.0519
 9160W        W 9160   1.400   5.952   0.830 -0.2411 -0.1222  0.0137
 9161W        W 9161   1.980   1.677   2.571  0.2060 -0.0866  0.1723
 9162W        W 9162   6.309  10.207   6.873  0.1034 -0.1337  0.1861
 9163W        W 9163   0.742   2.884   4.184  0.1546  0.1033  0.1931
 9164W        W 9164   8.920   3.748   8.336  0.1125 -0.0423  0.0152
 9165W        W 9165   7.477   9.332   9.987  0.0883  0.2191 -0.0021
 9166W        W 9166   6.997   4.016   2.828 -0.1793 -0.0381 -0.0847
 9167W        W 9167   8.294   1.211   8.087  0.0798 -0.1323  0.2776
 9168W        W 9168   9.113   7.018   6.358 -0.1389 -0.3461 -0.2511
 9169W        W 9169   0.811   8.421   0.728  0.1225 -0.2147  0.1007
 9170W        W 9170   9.296   8.017   2.477  0.0518  0.1197  0.1443
 9171W        W 9171   9.723   5.231   4.504 -0.4196 -0.0598 -0.1563
 9172W        W 9172   1.413   4.268   6.577  0.2791  0.0113 -0.1450
 9173W        W 9173   9.979   0.067   9.559 -0.1533  0.0563 -0.1783
 9174W        W 9174   6.744   7.502   9.123 -0.1332 -0.2133 -0.1850
 9175W        W 9175   0.657   7.375   1.572  0.2212  0.0483  0.0563
 9176W        W 9176   2.871   9.743   1.869 -0.2444  0.0868 -0.4600
 9177W        W 9177   7.584   1.616   7.101 -0.0711 -0.2536 -0.2909
 9178W        W 9178   8.708   4.293   1.286  0.0915  0.1120 -0.1418
 9179W        W 9179   3.840   0.838   1.921  0.5310 -0.1146  0.1201
 9180W        W 9180   5.448   0.771   5.198 -0.0016  0.3638 -0.3701
 9181W        W 9181   5.387   3.821   0.233 -0.3186 -0.0570  0.1150
 9182W        W 9182   0.563   6.942   0.709  0.0860  0.0019 -0.4746
 9183W        W 9183   5.964   0.136   3.038 -0.0950 -0.0791 -0.0366
 9184W        W 9184   9.289   3.405   1.697 -0.2229 -0.3801 -0.0566
 9185W        W 9185   4.856   2.396   7.032 -0.0589  0.0895  0.0908
 9186W        W 9186   1.702   5.341   2.121  0.0667 -0.1300 -0.3130
 9187W        W 9187   5.921   8.039   3.733 -0.0095 -0.0082 -0.1404
 9188W        W 9188   4.754   6.753   3.895  0.1993 -0.2042 -0.2007
 9189W        W 9189   5.143   0.928   6.828  0.1355  0.1746  0.3927
 9190W        W 9190   0.180   3.061   2.678  0.1419 -0.0851 -0.1230
 9191W        W 9191   3.405   1.596  10.294  0.3014  0.1358 -0.2767
 9192W        W 9192   6.458   5.282   7.683 -0.0495  0.1256  0.1262
 9193W        W 9193   5.662   2.241   0.433  0.0890 -0.0996  0.0033
 9194W        W 9194   1.849   2.028   8.775  0.2129 -0.1384 -0.1518
 9195W        W 9195   8.823   5.099   5.934  0.0244  0.0451  0.1615
 9196W        W 9196   3.037   2.230   6.045  0.2428  0.1577 -0.0468
 9197W        W 9197   2.752   6.437   1.063 -0.0625 -0.1473 -0.2543
 9198W        W 9198   8.024   6.700   5.528  0.0095  0.1339 -0.1003
 9199W        W 9199   9.778   6.110   5.706  0.4248  0.0579 -0.2414
 9200W        W 9200   4.759   9.083   8.620 -0.0586  0.0115  0.0629
 9201W        W 9201   6.911   9.337   8.252  0.3614  0.2780  0.1394
 9202W        W 9202   0.521   9.780   8.578 -0.1996  0.1001 -0.0289
 9203W        W 9203   2.170   9.533   4.503 -0.0454  0.1341  0.1645
 9204W        W 9204   7.824   2.457   9.093 -0.2023  0.0235 -0.4581
 9205W        W 9205  10.165   3.084   1.784  0.0100 -0.0344 -0.0454
 9206W        W 9206   9.105   1.175   3.931  0.0672 -0.1932  0.3968
 9207W        W 9207   3.977   7.471   2.328 -0.0137  0.0385  0.5611
 9208W        W 9208   2.370  10.245   5.304  0.1549 -0.1303 -0.0873
 9209W        W 9209   6.759   1.756   4.413  0.0212  0.2063 -0.0509
 9210W        W 9210   1.167   8.877   4.269 -0.1443 -0.1722 -0.1017
 9211W        W 9211   3.176   5.382   9.648 -0.3207 -0.0987 -0.0622
 9212W        W 9212   6.921   4.231   2.342 -0.0227  0.0240 -0.0414
 9213W        W 9213  10.196   4.752   5.440 -0.3116 -0.0099  0.1790
 9214W        W 9214   6.893   3.181   2.746  0.2416  0.1682  0.0643
 9215W        W 9215   1.415   5.964  10.296  0.0309 -0.0050 -0.1046
 9216W        W 9216   1.611   2.707   2.950 -0.2619  0.1539 -0.0207
 9217W        W 9217   8.697   5.519   5.624 -0.1158 -0.0076 -0.1209
 9218W        W 9218   7.147   9.803   3.632  0.0834  0.0048  0.0398
 9219W        W 9219   9.063   4.679   1.236 -0.1883 -0.0764 -0.1110
 9220W        W 9220   2.236   0.683   8.727  0.1467 -0.1077 -0.2749
 9221W        W 9221   5.940   3.295   9.959  0.0948  0.1106  0.1812
 9222W        W 9222   4.830   4.242   3.140  0.1160 -0.1011 -0.1241
 9223W        W 9223   5.644   6.385   3.933 -0.0187 -0.2582  0.0231
 9224W        W 9224   6.562   2.551   9.611  0.1524  0.0754  0.3755
 9225W        W 9225   3.634   8.879   4.045  0.1643 -0.2118 -0.0175
 9226W        W 9226   8.867   2.883   9.938 -0.1413 -0.0551  0.1094
 9227W        W 9227  10.285   1.557   3.645  0.0797 -0.0691  0.0377
 9228W        W 9228   7.980   9.213   3.537 -0.0052  0.4291  0.1233
 9229W        W 9229   7.170  10.001   0.021 -0.0371 -0.0709 -0.0788
 9230W        W 9230   6.439   4.821  10.273 -0.1182 -0.2540  0.0902
 9231W        W 9231   9.755   7.573   9.364 -0.2656 -0.0320  0.2844
 9232W        W 9232   8.021   6.491   4.522 -0.2575  0.3478  0.2586
 9233W        W 9233   4.970   2.536   7.678  0.0635 -0.2162 -0.2450
 9234W        W 9234   2.501   3.189   5.501 -0.0691 -0.1423 -0.0051
 9235W        W 9235   6.035   2.217   6.642  0.0358  0.1084  0.0299
 9236W        W 9236   4.749  10.304   5.163 -0.0628  0.2159  0.2058
 9237W        W 9237   8.506   4.173  10.018 -0.2563 -0.1185 -0.0430
 9238W        W 9238   7.962   0.598   0.402 -0.3597 -0.0527  0.0746
 9239W        W 9239   8.282   8.237   1.444  0.0784  0.2343 -0.1796
 9240W        W 9240   6.719   3.577  10.113  0.0211  0.1793  0.1079
 9241W        W 9241   9.420  10.013   3.448 -0.0459 -0.0882  0.1942
 9242W        W 9242   3.876   1.085   4.709  0.0183 -0.1183  0.2663
 9243W        W 9243   8.386   7.688   6.463  0.2810 -0.1227  0.0895
 9244W        W 9244   3.195   5.887   7.378 -0.3243  0.1051  0.4925
 9245W        W 9245   8.556   3.217   3.523  0.2928  0.2727 -0.1419
 9246W        W 9246   3.390   6.957   0.261  0.3100  0.1927  0.1582
 9247W        W 9247   8.587   8.152   0.216  0.1437  0.1140  0.1650
 9248W        W 9248   7.527   0.960   7.882 -0.2234  0.1594  0.0086
 9249W        W 9249   5.420   5.431   1.415  0.0451  0.0133 -0.1581
 9250W        W 9250   8.497   0.774   8.007 -0.2570 -0.0095 -0.0958
 9251W        W 9251   7.340   4.397   1.447  0.0936  0.3128  0.0065
 9252W        W 9252   0.622  10.235   1.391 -0.0431  0.3301 -0.1950
 9253W        W 9253   7.643   3.914   2.773 -0.3019  0.3011  0.3705
 9254W        W 9254   6.905   7.355   6.789 -0.1489 -0.0810 -0.1470
 9255W        W 9255   5.878   1.804   1.930 -0.0128 -0.1729 -0.0056
 9256W        W 9256   3.892   1.768   5.380 -0.1313 -0.0161  0.1447
 9257W        W 9257   4.026   8.712   1.898  0.0172 -0.0531  0.1490
 9258W        W 9258   1.961   3.573   5.001  0.2197 -0.2978 -0.0419
 9259W        W 9259   3.800   9.936   5.296 -0.0368  0.1360  0.0038
 9260W        W 9260   9.551   4.576   8.420 -0.1928 -0.1301  0.0163
 9261W        W 9261   5.990   3.930   2.910 -0.4653 -0.3729  0.0210
 9262W        W 9262   2.031  10.310   2.766 -0.0760 -0.2918 -0.2259
 9263W        W 9263   5.670   0.302   3.918  0.0212 -0.0731 -0.1195
 9264W        W 9264   4.854   6.820   3.337 -0.3950  0.0313  0.1620
 9265W        W 9265   0.093  10.100   0.008  0.1228 -0.1826 -0.1386
 9266W        W 9266   4.177   5.309  10.261  0.0645 -0.0027  0.3370
 9267W        W 9267   2.577   1.840   0.067 -0.1467 -0.0836 -0.0705
 9268W        W 9268   4.752   2.131   7.886 -0.3051 -0.3164  0.0709
 9269W        W 9269   7.011   6.534   1.040  0.0526 -0.2061 -0.1541
 9270W        W 9270   1.678   6.512   0.770 -0.1680 -0.2751  0.0607
 9271W        W 9271   7.275   7.776  10.067  0.1470  0.1670  0.0940
 9272W        W 9272   6.799   6.354  10.204  0.1603 -0.2067 -0.0348
 9273W        W 9273   8.842   7.594   9.853 -0.1232  0.1855 -0.0515
 9274W        W 9274   0.509   6.046   7.836  0.2378  0.3141  0.2502
 9275W        W 9275   8.990   3.196   5.355 -0.2498 -0.0175  0.0211
 9276W        W 9276   0.880   4.338   9.297  0.4125 -0.3954  0.0144
 9277W        W 9277   3.448   3.012   5.709 -0.0520  0.2836 -0.0101
 9278W        W 9278   1.262  10.163   8.802 -0.0085 -0.1168  0.1272
 9279W        W 9279   0.981   0.953   2.937  0.2124  0.3482 -0.0434
 9280W        W 9280   3.208   6.460   7.333  0.0367  0.2934 -0.1849
 9281W        W 9281   2.221  10.261   0.048 -0.2361  0.2795  0.0912
 9282W        W 9282   6.103   2.680   3.576  0.0127  0.1446  0.2593
 9283W        W 9283   3.620   0.801  10.011 -0.0999  0.1979  0.1619
 9284W        W 9284   4.616   9.385   1.203 -0.0306  0.2091  0.0833
 9285W        W 9285   7.620   4.753   8.648 -0.1598  0.1117  0.0811
 9286W        W 9286   5.903   5.079   0.284 -0.1603  0.1615  0.0376
 9287W        W 9287   2.027   4.754   7.262 -0.0084  0.0453  0.1418
 9288W        W 9288   8.614   7.169   9.900 -0.0283  0.4267  0.1236
 9289W        W 9289   5.201   2.885   0.332  0.2425  0.1191  0.0582
 9290W        W 9290   8.969   1.841   4.806 -0.1552 -0.0521 -0.0124
 9291W        W 9291   0.580   7.161   4.756 -0.1055 -0.7276 -0.0771
 9292W        W 9292   9.718   9.365   1.976  0.0869  0.1716  0.0890
 9293W        W 9293  10.067   3.670   9.928 -0.1669  0.0650 -0.1926
 9294W        W 9294   1.819   1.124   0.644  0.2225  0.2602  0.1944
 9295W        W 9295  10.006   0.626   3.693 -0.1978  0.0732  0.1875
 9296W        W 9296   2.514   3.720   0.179  0.2697 -0.1688 -0.1527
 9297W        W 9297   4.981   7.180  10.324 -0.2002 -0.3077 -0.1769
 9298W        W 9298   1.679   7.196   0.583  0.0844 -0.4215  0.0684
 9299W        W 9299   8.029   8.846   6.779 -0.2313 -0.1321  0.2001
 9300W        W 9300   6.915   7.897   6.943 -0.0278 -0.0282  0.0373
 9301W        W 9301   2.308   9.829   1.975  0.1863 -0.1361  0.0496
 9302W        W 9302   1.888   2.170   4.049  0.0952 -0.1468 -0.0595
 9303W        W 9303   8.528   3.857   6.475  0.1462 -0.1568  0.1212
 9304W        W 9304   0.390   5.622   7.467 -0.2187 -0.1406  0.0754
 9305W        W 9305   1.996   4.285  10.171 -0.1206 -0.0591 -0.3161
 9306W        W 9306   9.243   5.350   5.785  0.1288  0.2000 -0.0969
 9307W        W 9307   0.294   3.182   9.788 -0.0850  0.2289  0.3468
 9308W        W 9308   3.495   5.361   1.240  0.1243 -0.0362  0.0687
 9309W        W 9309   4.532   7.594   8.772  0.1014 -0.1034  0.1540
 9310W        W 9310   5.678   4.667   4.929  0.0975 -0.0112 -0.1263
 9311W        W 9311   9.765   4.873   7.927  0.2024 -0.0015 -0.0722
 9312W        W 9312   2.785   3.950   8.172 -0.2664  0.1460 -0.2600
 9313W        W 9313   2.347   9.802   6.520 -0.0088 -0.1573 -0.0304
 9314W        W 9314   4.027   2.440   6.635  0.0544  0.1070 -0.3114
 9315W        W 9315   5.928   4.334   4.653 -0.2711  0.2055 -0.1898
 9316W        W 9316   0.285   8.152   8.449 -0.2668  0.0351  0.1889
 9317W        W 9317   3.605   8.675   1.632 -0.0653  0.0181  0.1379
 9318W        W 9318   1.431   0.557  10.011  0.1967 -0.1046  0.1086
 9319W        W 9319   7.548   8.752   9.232  0.1699 -0.2914  0.2560
 9320W        W 9320   1.130  10.221   6.226  0.1350  0.3838  0.0327
 9321W        W 9321   3.310   3.513   9.818  0.1478 -0.2289 -0.6304
 9322W        W 9322   7.096   8.160   8.016 -0.0027  0.0619 -0.3615
 9323W        W 9323   0.823   7.838   9.607 -0.0321 -0.1474 -0.1049
 9324W        W 9324   2.159   0.067   6.212  0.0372 -0.0279  0.1191
 9325W        W 9325   9.676   2.182   7.726 -0.2563  0.1688 -0.2966
 9326W        W 9326   7.083   2.113   5.331  0.2233  0.1039 -0.1780
 9327W        W 9327   0.929   8.925   3.714  0.0650 -0.0098 -0.0802
 9328W        W 9328   9.826   7.556   7.674 -0.2116 -0.1311  0.0129
 9329W        W 9329   2.048   2.519   7.025  0.0370  0.0273 -0.1572
 9330W        W 9330   6.212   8.133   3.304 -0.0762 -0.0914 -0.0226
 9331W        W 9331   3.221   5.712   3.773  0.0557  0.1026 -0.1117
 9332W        W 9332   2.218   3.177   2.388  0.3294  0.3480 -0.3120
 9333W        W 9333   7.360   8.716   8.713  0.1292  0.1300 -0.0284
 9334W        W 9334   6.733   6.212   3.043 -0.4086  0.3642  0.1136
 9335W        W 9335   7.140   5.442   7.687 -0.2426  0.0361  0.2128
 9336W        W 9336   7.093   8.758   3.463 -0.0570  0.0477  0.0458
 9337W        W 9337   2.388   6.447   4.962 -0.2475  0.3926  0.0740
 9338W        W 9338   9.887   1.109   3.431 -0.1539 -0.3347 -0.0975
 9339W        W 9339  10.034   1.838   8.505 -0.1007  0.1193  0.1925
 9340W        W 9340   9.459   4.114   3.941 -0.0573 -0.0887  0.0054
 9341W        W 9341   5.354   0.534   7.774 -0.0778  0.1922  0.0814
 9342W        W 9342   8.283   3.060   2.278 -0.0475  0.0771 -0.1606
 9343W        W 9343   0.884   3.936   3.365 -0.0776 -0.0347 -0.1048
 9344W        W 9344   7.937   0.861   1.446  0.1105 -0.2069 -0.3275
 9345W        W 9345   1.389   7.978   1.762 -0.1690 -0.0577  0.2606
 9346W        W 9346   1.564   6.458   4.373 -0.0431  0.0501 -0.0282
 9347W        W 9347   5.208   7.767   5.774  0.2576 -0.2507  0.1836
 9348W        W 9348   1.600   6.031   4.728  0.3983 -0.2694 -0.2419
 9349W        W 9349   1.400   9.892   5.394 -0.0639  0.0586 -0.2602
 9350W        W 9350   4.621   6.987   0.278  0.2913  0.1544  0.1643
 9351W        W 9351   0.559   1.947   0.304  0.3334 -0.3026 -0.1456
 9352W        W 9352   1.285   7.772   2.200  0.2589 -0.0140  0.3693
 9353W        W 9353   8.464   2.991   4.517  0.0400 -0.1090 -0.1276
 9354W        W 9354   1.685   4.080   8.941 -0.0147 -0.0054  0.3671
 9355W        W 9355   0.618   4.639   7.954  0.0558  0.0664 -0.1132
 9356W        W 9356   5.771   3.479   3.166 -0.4124 -0.1770  0.1097
 9357W        W 9357   3.511   8.216   3.582 -0.0342  0.0491 -0.0014
 9358W        W 9358   4.374   2.556   1.265  0.1041  0.0175  0.2522
 9359W        W 9359   0.627   6.111   4.357  0.2799 -0.0479 -0.0069
 9360W        W 9360   3.284   0.611   3.387 -0.2808  0.0502 -0.1800
 9361W        W 9361   2.281   0.876   4.703  0.3951 -0.1845 -0.1717
 9362W        W 9362   9.138   7.192   6.811 -0.1578 -0.0022 -0.2584
 9363W        W 9363   9.263   4.609   6.205  0.0391 -0.0707 -0.0179
 9364W        W 9364   5.485   1.408   3.426 -0.0782  0.1754  0.3018
 9365W        W 9365   3.481   6.638   2.632  0.1408 -0.2165 -0.0638
 9366W        W 9366   1.025   1.496   2.376  0.0885  0.0100 -0.2544
 9367W        W 9367   6.564   0.911   7.084 -0.1703  0.3374 -0.0109
 9368W        W 9368   8.875   9.150   2.742  0.0418  0.0132 -0.1778
 9369W        W 9369   7.112   1.580   0.348  0.0520 -0.1666  0.0955
 9370W        W 9370   6.845   3.517   0.293  0.0430  0.0960 -0.1155
 9371W        W 9371   8.191   7.502   2.277 -0.0352 -0.2436  0.4096
 9372W        W 9372   6.853   2.632   9.994 -0.0998  0.0501  0.1812
 9373W        W 9373   3.755   9.382   7.349 -0.0094  0.3995 -0.3298
 9374W        W 9374   1.752   2.548   8.010 -0.4610 -0.0430  0.1255
 9375W        W 9375   9.594   8.854   1.933  0.0570 -0.2645  0.2698
 9376W        W 9376   6.520   9.636   8.226 -0.0371  0.0861  0.0640
 9377W        W 9377   7.029   9.547   9.787 -0.2169 -0.0174 -0.2070
 9378W        W 9378   2.556   6.075   6.879  0.0836 -0.0877 -0.0987
 9379W        W 9379   6.651   9.219   7.781 -0.0943  0.2474 -0.1782
 9380W        W 9380   7.512   9.227   4.717 -0.3115 -0.1225  0.0550
 9381W        W 9381   4.686   4.315   4.206 -0.1617  0.1494 -0.1187
 9382W        W 9382   6.165   8.577   8.267 -0.4085 -0.0064  0.1357
 9383W        W 9383  10.026   6.047   5.237 -0.1724  0.2262  0.0659
 9384W        W 9384   1.648   8.594   3.197  0.0182 -0.4413  0.2146
 9385W        W 9385   5.395   4.858   2.449 -0.0868 -0.5093  0.1531
 9386W        W 9386   8.055   9.428   6.535 -0.1222 -0.2907 -0.3735
 9387W        W 9387   2.773   0.677   5.538 -0.0899 -0.2452 -0.1219
 9388W        W 9388   5.678   3.481   9.513  0.0176 -0.1025  0.0355
 9389W        W 9389   1.028   0.024   5.798 -0.2598  0.1745  0.1708
 9390W        W 9390   0.921   2.939   6.002 -0.3116  0.1720 -0.2381
 9391W        W 9391   4.878   3.896   0.858 -0.1030  0.0448  0.0470
 9392W        W 9392   1.917   1.057   6.726  0.1798  0.0973  0.0375
 9393W        W 9393   1.008   2.370   6.600  0.1124  0.4628  0.2541
 9394W        W 9394   0.723   5.539   6.035  0.0275 -0.2212 -0.0321
 9395W        W 9395   9.192   0.934   8.579 -0.0055 -0.1480  0.3039
 9396W        W 9396   0.986   8.503   8.940 -0.3669 -0.2723  0.0156
 9397W        W 9397   3.597   0.915   4.259  0.0834  0.1353  0.2628
 9398W        W 9398   4.350   8.411   2.594 -0.0448 -0.0498  0.0025
 9399W        W 9399   7.726   1.291   5.436 -0.1510  0.0495  0.0524
 9400W        W 9400   0.984   7.385   4.127 -0.2807 -0.1129 -0.1202
 9401W        W 9401   0.172   1.304   2.757 -0.1302 -0.1021 -0.0222
 9402W        W 9402   4.317   7.510   5.521  0.1756 -0.1524  0.0801
 9403W        W 9403   6.516   3.298   3.214 -0.1699  0.1611  0.4015
 9404W        W 9404   1.138   1.135  10.260 -0.1798 -0.1551 -0.0615
 9405W        W 9405   6.147   7.269   1.846 -0.0069 -0.1670  0.0014
 9406W        W 9406  10.136   8.198   8.483  0.1526  0.0383 -0.0647
 9407W        W 9407   0.918   3.369   1.748  0.0534 -0.1119  0.0699
 9408W        W 9408   2.924   1.144   6.218 -0.1098 -0.1678  0.0109
 9409W        W 9409   5.469   5.318   4.891  0.0536  0.2704  0.0813
 9410W        W 9410  10.009   8.556   9.211  0.0304  0.2113 -0.1563
 9411W        W 9411   9.294   8.658   6.650 -0.1403 -0.0578 -0.0385
 9412W        W 9412   1.945   7.810   1.308  0.2394  0.1259 -0.2600
 9413W        W 9413   7.180   9.216   2.532 -0.0696 -0.1350 -0.1315
 9414W        W 9414   4.295   7.811   0.017 -0.0031  0.1619 -0.1586
 9415W        W 9415   3.250   4.476   6.687  0.1238  0.0424  0.1201
 9416W        W 9416   2.075   1.748   4.274  0.0654  0.1123  0.1127
 9417W        W 9417   1.917   7.447   6.701  0.0900 -0.1881 -0.3294
 9418W        W 9418   0.570   9.252   6.097  0.1852  0.1778  0.1835
 9419W        W 9419   8.959   9.359   3.781  0.1513 -0.1979 -0.0939
 9420W        W 9420   3.333  10.252   9.416  0.3297  0.0611 -0.0061
 9421W        W 9421   2.722   6.028   3.650  0.0502 -0.0487  0.0592
 9422W        W 9422   9.229   7.957   8.192 -0.0960 -0.1572 -0.1057
 9423W        W 9423   8.583   2.549   8.740  0.1743  0.1545 -0.2531
 9424W        W 9424   9.985   0.439   3.171  0.0469 -0.0652  0.0155
 9425W        W 9425   2.108   0.282   9.012 -0.1227 -0.2165  0.1699
 9426W        W 9426  10.064   5.878   8.961 -0.0705  0.3082 -0.1388
 9427W        W 9427   1.518   4.801   6.465 -0.1291  0.0052 -0.0047
 9428W        W 9428   6.611   3.030   3.843  0.3180 -0.1611  0.2797
 9429W        W 9429   0.488   7.481   6.781  0.2412 -0.0432 -0.3224
 9430W        W 9430   1.122   9.515   3.072  0.1944 -0.0902 -0.1190
 9431W        W 9431   8.800   1.006   8.307 -0.1846 -0.1136  0.1378
 9432W        W 9432   9.710   4.165   1.370 -0.0139  0.2131 -0.1412
 9433W        W 9433   6.966   0.402   6.192  0.0244 -0.1472  0.1133
 9434W        W 9434   1.285   6.329   9.241 -0.0941  0.1412 -0.2547
 9435W        W 9435   4.519   6.398   8.466 -0.0595 -0.1448  0.0350
 9436W        W 9436   2.493   9.094   0.635 -0.3030  0.0534  0.1304
 9437W        W 9437   7.779   2.111   1.142  0.0308 -0.2216 -0.1441
 9438W        W 9438   8.999   3.283   0.225 -0.3340 -0.1382 -0.0175
 9439W        W 9439  10.128   9.337   0.249  0.0115  0.4298 -0.1656
 9440W        W 9440   8.621   7.973   9.630  0.0317  0.3594  0.1076
 9441W        W 9441   6.810   9.198   3.910  0.2396  0.0937 -0.0691
 9442W        W 9442  10.089   5.025   1.161  0.2060 -0.1053  0.0532
 9443W        W 9443   0.281   3.058   5.023 -0.0377  0.0082  0.3642
 9444W        W 9444   4.078  10.290  10.112  0.0257  0.2096 -0.0359
 9445W        W 9445   5.644   7.599  10.266  0.1256  0.1511  0.3642
 9446W        W 9446   6.735   2.723   9.084 -0.3768  0.1298  0.1411
 9447W        W 9447   6.232   9.933   7.287 -0.0097  0.0400 -0.1471
 9448W        W 9448   9.107   3.625   5.816 -0.1777 -0.0795  0.3122
 9449W        W 9449   4.903   4.824   9.201  0.0034  0.1098  0.1808
 9450W        W 9450   0.990   0.151   2.917 -0.2251 -0.1825 -0.0244
 9451W        W 9451   6.061   1.335   9.610  0.0032 -0.2919  0.1206
 9452W        W 9452   2.831   1.511   6.686 -0.1388  0.0376 -0.2814
 9453W        W 9453   7.962   0.458   7.064 -0.0644  0.1932  0.1068
 9454W        W 9454   7.196   7.497   0.995 -0.1507 -0.0148 -0.1916
 9455W        W 9455   5.626   7.664   7.029 -0.1220 -0.1674  0.1877
 9456W        W 9456   8.338   3.888   1.266  0.0172  0.0435 -0.1328
 9457W        W 9457   1.596   5.520   6.470 -0.0409  0.1545 -0.0615
 9458W        W 9458   4.452   0.284   9.965 -0.0471 -0.0266  0.2243
 9459W        W 9459   3.481   0.120   6.741 -0.1312  0.0971  0.1822
 9460W        W 9460   9.568   3.750  10.115  0.0991  0.0904  0.2523
 9461W        W 9461   4.450   1.397   0.984  0.1753 -0.2498  0.0085
 9462W        W 9462   0.353   7.722   7.245 -0.1515 -0.0554  0.2930
 9463W        W 9463   8.056   4.637   5.920  0.0163 -0.0334 -0.3229
 9464W        W 9464   8.313   0.701   4.407  0.0358  0.1515  0.1809
 9465W        W 9465   0.446   2.131   8.851  0.2941  0.1723 -0.1049
 9466W        W 9466   7.913  10.218   6.331  0.3515 -0.1050 -0.1816
 9467W        W 9467   3.740   7.209   7.327  0.2120  0.0414  0.2307
 9468W        W 9468   4.789   4.521   5.933  0.1255 -0.3992  0.0762
 9469W        W 9469   7.571   2.673   8.685  0.0253 -0.0828 -0.1390
 9470W        W 9470   0.721   7.993   2.522  0.1957  0.0412  0.1575
 9471W        W 9471   8.181   0.762   3.799 -0.0557  0.0213 -0.0944
 9472W        W 9472   6.344   1.324   6.851  0.0164 -0.0658 -0.0383
 9473W        W 9473   9.972   2.103   6.782  0.0959  0.1256 -0.1821
 9474W        W 9474   5.472   1.389   6.899 -0.0732  0.0626 -0.2536
 9475W        W 9475   5.461   8.240   2.363  0.0906 -0.1095  0.2580
 9476W        W 9476   5.528   6.756   3.105 -0.0707  0.2135  0.2077
 9477W        W 9477   2.611   2.403   0.596 -0.2822  0.2127 -0.3244
 9478W        W 9478   4.118   5.657   3.674  0.1524 -0.2047 -0.0149
 9479W        W 9479   2.894   0.444   0.071 -0.0407 -0.3820 -0.0383
 9480W        W 9480   1.789   0.771   8.581  0.1200 -0.3289  0.0869
 9481W        W 9481   6.559   5.888   2.294  0.0683  0.1609  0.2679
 9482W        W 9482   6.705   1.533   1.695  0.3678 -0.1699  0.1571
 9483W        W 9483   4.342  10.159   4.079  0.0898 -0.0349  0.1971
 9484W        W 9484   3.738   5.490   4.887 -0.0133 -0.0506  0.1956
 9485W        W 9485   1.578   9.372   1.892  0.0328  0.0212  0.1147
 9486W        W 9486   4.077   2.115   4.161 -0.1512  0.1443  0.2589
 9487W        W 9487   7.720   8.809   4.384  0.0307  0.0652 -0.1087
 9488W        W 9488   1.006   7.267   5.055 -0.2239  0.1221 -0.0399
 9489W        W 9489  10.257   4.071   9.306 -0.1850  0.0895  0.1165
 9490W        W 9490   7.997   3.121   1.787  0.1002  0.1060 -0.1015
 9491W        W 9491   2.305   3.187  10.046 -0.0900 -0.2805 -0.0961
 9492W        W 9492   5.400   2.255   0.875 -0.3925 -0.3746  0.3359
 9493W        W 9493   7.695   0.908   5.774  0.1238  0.0548 -0.0861
 9494W        W 9494   4.069   4.729   0.524 -0.0315  0.4577 -0.0856
 9495W        W 9495   1.076   7.099   1.352  0.0627 -0.2170  0.0345
 9496W        W 9496   4.144  10.243   5.088  0.0081  0.1348 -0.0574
 9497W        W 9497   7.276   4.677   7.892  0.2328  0.1212  0.0303
 9498W        W 9498   7.593   2.969   0.059  0.0055  0.2310  0.0469
 9499W        W 9499   2.321  10.320   4.230  0.3090 -0.2175  0.0253
 9500W        W 9500   3.054   6.710   1.821  0.0823  0.2503  0.3759
 9501W        W 9501   3.093   2.212   2.125  0.0070  0.0506  0.1762
 9502W        W 9502   9.404   0.812   2.264  0.1965  0.2438  0.2606
 9503W        W 9503   1.331   5.806   3.359 -0.2041 -0.1297 -0.1186
 9504W        W 9504   0.174   6.989   4.310 -0.1075 -0.0487 -0.1537
 9505W        W 9505   5.256   6.039   5.536 -0.1253 -0.1983  0.0589
 9506W        W 9506   4.683   7.445   1.613  0.1205  0.1288 -0.2061
 9507W        W 9507   2.864   9.146   1.890 -0.1298 -0.2494 -0.2461
 9508W        W 9508   2.420   1.288   4.454  0.2476 -0.0650  0.0018
 9509W        W 9509   6.477   1.081   9.590 -0.2217  0.0413  0.1709
 9510W        W 9510   7.503   1.426   8.143  0.0979 -0.1242 -0.1848
 9511W        W 9511   3.692   6.705  10.224 -0.0943  0.2109  0.0565
 9512W        W 9512   7.346   9.479   4.029  0.0797  0.1785  0.0551
 9513W        W 9513   7.804   1.957   5.496  0.2119 -0.0029  0.0306
 9514W        W 9514   2.909   2.720   3.950 -0.0920  0.1622  0.1264
 9515W        W 9515   6.908   9.225   5.617 -0.0726  0.1730  0.1605
 9516W        W 9516   3.093   9.657   3.165 -0.1086  0.1893 -0.0560
 9517W        W 9517   7.950   5.333   8.501  0.2104  0.4166 -0.0588
 9518W        W 9518   7.476   6.422   9.619 -0.0923 -0.0918  0.0033
 9519W        W 9519   9.281   4.045   0.536  0.0219 -0.2545 -0.2125
 9520W        W 9520   1.888   4.063   2.429 -0.2188  0.1475 -0.2384
 9521W        W 9521   2.517   5.630   1.445 -0.3478 -0.0876 -0.1030
 9522W        W 9522   1.724   5.789   8.263 -0.2945  0.1336  0.0638
 9523W        W 9523   2.353   4.158   0.893  0.1404  0.2908  0.1543
 9524W        W 9524   0.416   9.565   1.833 -0.0006 -0.0463 -0.2448
 9525W        W 9525   7.154   9.027   7.966  0.1392 -0.3146  0.0796
 9526W        W 9526   6.827   0.003   4.323 -0.1057  0.0842  0.0900
 9527W        W 9527   3.155   3.913   7.390  0.0068 -0.0757 -0.0449
 9528W        W 9528   1.230   6.780   6.110 -0.0576 -0.1645  0.2606
 9529W        W 9529   6.512   0.346   9.500  0.3648  0.0201  0.0496
 9530W        W 9530   8.622   8.373   5.907 -0.0598  0.0855  0.1401
 9531W        W 9531   1.768   5.232   4.536 -0.0210  0.3202 -0.1648
 9532W        W 9532   0.910   2.719   9.801  0.1032 -0.0540  0.0535
 9533W        W 9533   3.844   9.155   6.251 -0.0874 -0.0414  0.0029
 9534W        W 9534  10.182   2.016   0.867 -0.2640 -0.0707  0.2572
 9535W        W 9535   4.407   9.540   9.283 -0.0062 -0.1324 -0.0340
 9536W        W 9536   6.136   6.359   3.847  0.0129 -0.0226  0.3213
 9537W        W 9537   1.508  10.162   5.931 -0.1270  0.2139  0.0464
 9538W        W 9538   1.582   4.421   9.898  0.1226  0.0129 -0.0997
 9539W        W 9539   7.862   6.477  10.005  0.2503 -0.1484  0.0040
 9540W        W 9540  10.086   9.768   6.121  0.0717 -0.1198  0.0482
 9541W        W 9541   7.445   3.909   9.432  0.1851  0.1132 -0.4865
 9542W        W 9542   9.673   6.959   3.159 -0.1617  0.0124  0.0626
 9543W        W 9543   0.645   3.831   1.606 -0.1430  0.0030  0.0292
 9544W        W 9544   7.574   1.941   4.609 -0.0079 -0.0760  0.1217
 9545W        W 9545   7.557   8.157   8.226  0.2513  0.1201 -0.3209
 9546W        W 9546   9.847   3.718   6.660  0.1029 -0.1000  0.1361
 9547W        W 9547   1.185   9.656   7.877 -0.0143  0.1830  0.1180
 9548W        W 9548   1.531   3.931   7.356  0.0680 -0.3508  0.0050
 9549W        W 9549   7.534   1.197   1.072  0.0573 -0.1213  0.0563
 9550W        W 9550   7.926   9.821   6.058  0.0170  0.0156  0.1203
 9551W        W 9551   7.168   0.210   5.250  0.0295 -0.2584  0.0907
 9552W        W 9552   0.690   3.329   6.654  0.2076 -0.1641  0.1325
 9553W        W 9553   0.264   4.388   0.057  0.2308 -0.0558 -0.3962
 9554W        W 9554   8.206   7.435   8.450 -0.0577 -0.2480 -0.0447
 9555W        W 9555   5.719   7.315   4.794  0.0676 -0.0883 -0.2872
 9556W        W 9556   7.987   0.266   4.553 -0.2628  0.1093  0.1673
 9557W        W 9557   4.183   5.806  10.169  0.4910 -0.0731 -0.0448
 9558W        W 9558   3.196   7.437   9.337  0.1335 -0.1452  0.0082
 9559W        W 9559   8.332   6.664   6.670 -0.1205 -0.0915  0.2551
 9560W        W 9560  10.068   4.331   0.319  0.0800  0.4994 -0.1144
 9561W        W 9561   4.473   9.953   7.633 -0.0926 -0.1229  0.2203
 9562W        W 9562   1.064   2.041   1.183  0.0121  0.0244  0.0048
 9563W        W 9563   4.713   3.113   3.825 -0.3268 -0.1279 -0.0978
 9564W        W 9564   4.018   1.930   4.893 -0.2735  0.0864 -0.0913
 9565W        W 9565   0.286   4.595   0.516  0.0298  0.2588  0.0801
 9566W        W 9566   8.259  10.236   8.927 -0.0146  0.3807  0.2355
 9567W        W 9567   4.685   3.452   9.593 -0.0376  0.2548  0.2018
 9568W        W 9568   8.767   8.766   8.029 -0.0485  0.0552 -0.2024
 9569W        W 9569   7.799   1.846  10.145  0.0814 -0.2377 -0.5289
 9570W        W 9570   3.389   3.233   4.776  0.1610  0.0075 -0.1292
 9571W        W 9571   4.623   6.505   8.980  0.1493  0.1471 -0.1331
 9572W        W 9572   9.058   8.557  10.171 -0.1057 -0.2311  0.1514
 9573W        W 9573   1.965   7.022   1.075 -0.0483 -0.1407 -0.1490
 9574W        W 9574  10.326   8.005   3.396  0.1379  0.0725 -0.0397
 9575W        W 9575   9.998   7.600   8.893  0.1723 -0.1284 -0.0560
 9576W        W 9576   7.326   0.084  10.086 -0.0243  0.0813 -0.2167
 9577W        W 9577   7.384   7.370   0.555  0.0242 -0.2696  0.2959
 9578W        W 9578   9.567   1.510   5.474 -0.1523  0.5778  0.0899
 9579W        W 9579   7.855   5.260   9.428  0.0902  0.1732  0.0335
 9580W        W 9580   1.914   4.746   5.268 -0.1110  0.2303 -0.0992
 9581W        W 9581   5.963   7.954   7.419  0.3363 -0.0200 -0.1459
 9582W        W 9582   1.410   0.205   1.097 -0.3621  0.0071  0.1131
 9583W        W 9583   9.913   7.741   4.693  0.2046 -0.2486  0.0833
 9584W        W 9584   3.952   5.170   4.471  0.1841 -0.0555  0.0498
 9585W        W 9585   3.615   8.328   9.111  0.2583 -0.0825  0.1722
 9586W        W 9586   5.014   5.947   7.253  0.1543 -0.2482  0.1321
 9587W        W 9587   7.970   1.730   0.272  0.0111 -0.0517 -0.2470
 9588W        W 9588   5.249   6.636   4.030  0.1662 -0.0388 -0.2516
 9589W        W 9589   9.036   6.487   9.430  0.1536 -0.2377 -0.1125
 9590W        W 9590   0.135   7.195   0.982  0.0898  0.1879 -0.3107
 9591W        W 9591   8.671   7.012   4.357  0.3482 -0.1087 -0.2297
 9592W        W 9592   9.485   6.284   1.151 -0.0558  0.1802  0.2340
 9593W        W 9593   0.711   3.292   3.958  0.1547 -0.1353  0.4103
 9594W        W 9594   7.391   9.684   3.030  0.0061 -0.2086  0.1749
 9595W        W 9595   1.850   5.326   0.321  0.0907 -0.2168  0.0947
 9596W        W 9596   7.880   5.059   9.001 -0.0842  0.0281  0.0325
 9597W        W 9597   6.495   1.514   1.117  0.2355  0.1587 -0.1786
 9598W        W 9598   1.020   8.059   5.851  0.0931 -0.2727  0.2030
 9599W        W 9599   8.391   0.827   1.642  0.2070 -0.1321 -0.0433
 9600W        W 9600   9.724   2.619   1.612  0.2504 -0.1097 -0.2228
 9601W        W 9601   9.789   3.752   3.745  0.1873  0.1117  0.0796
 9602W        W 9602   8.674   6.995   8.131 -0.2788 -0.0065  0.0076
 9603W        W 9603   4.441   4.888   7.652 -0.3744  0.0538  0.2321
 9604W        W 9604   3.340   5.300   7.619  0.2651  0.0173 -0.2887
 9605W        W 9605   1.924   0.765   1.579  0.3741 -0.1374  0.0227
 9606W        W 9606   8.823   1.982   3.476 -0.0731 -0.1684  0.0849
 9607W        W 9607   8.671   7.767   1.513  0.1504  0.1671  0.6134
 9608W        W 9608   0.520   2.295   5.583 -0.0961  0.0196 -0.1356
 9609W        W 9609   2.446   5.040   3.607 -0.0488 -0.0285 -0.0362
 9610W        W 9610  10.167   0.581   9.856 -0.0989 -0.1355 -0.2488
 9611W        W 9611   8.968   7.367   6.010 -0.2381  0.0648 -0.0600
 9612W        W 9612   1.290   7.139   5.632  0.2067 -0.2008  0.0997
 9613W        W 9613   0.816  10.248   9.618  0.0571 -0.0078  0.0499
 9614W        W 9614   6.796   4.079   3.330  0.2308 -0.0473  0.1336
 9615W        W 9615   4.143   6.087   1.005  0.3064 -0.1131 -0.1699
 9616W        W 9616   9.538   4.344   6.482 -0.1945  0.2912  0.2127
 9617W        W 9617   2.854   3.017   9.734 -0.1013 -0.0457  0.0133
 9618W        W 9618   5.349   8.492   4.254 -0.2222 -0.4561 -0.0505
 9619W        W 9619   1.328   2.662   2.119 -0.0467 -0.1704 -0.2633
 9620W        W 9620   8.918   2.603   4.668  0.0332  0.0368 -0.0656
 9621W        W 9621   8.318   9.936   0.161  0.0078  0.1036  0.0184
 9622W        W 9622   6.068   7.817   6.897 -0.0184 -0.1013 -0.3794
 9623W        W 9623   3.747   0.609   6.599  0.1945  0.0381  0.1626
 9624W        W 9624   6.319   3.514   4.338 -0.0553 -0.1313 -0.0738
 9625W        W 9625   3.713   9.865   7.480  0.0720  0.1754  0.1377
 9626W        W 9626   2.264   7.605   9.677 -0.0449  0.2813  0.0271
 9627W        W 9627   2.635   6.669   0.644 -0.0526  0.2003 -0.0947
 9628W        W 9628   3.343   5.895   9.776 -0.1145  0.0482  0.1221
 9629W        W 9629   7.489   1.469   2.416  0.5101  0.0757  0.0534
 9630W        W 9630   9.834   6.351   4.323 -0.3124 -0.2344 -0.2569
 9631W        W 9631   4.215   8.928   1.506 -0.0107  0.3133 -0.1933
 9632W        W 9632   1.214   9.474   4.995  0.0171 -0.0432  0.0439
 9633W        W 9633   4.489   8.640   4.015  0.0892 -0.0053  0.3501
 9634W        W 9634   3.324   6.769   8.457  0.2127  0.1748  0.0335
 9635W        W 9635   1.387   0.685   6.967  0.1923 -0.3608  0.2262
 9636W        W 9636  10.193   8.684   2.921 -0.3324  0.2634  0.1016
 9637W        W 9637   6.794   0.678   8.230 -0.1489 -0.3485  0.0157
 9638W        W 9638   6.778   0.562   5.792  0.1651  0.3000 -0.1976
 9639W        W 9639   6.989   9.736   0.952 -0.0719  0.0499 -0.1373
 9640W        W 9640   7.273   9.464   5.320 -0.0985 -0.0638  0.1357
 9641W        W 9641  10.204   1.555   5.733  0.2256  0.0134  0.1292
 9642W        W 9642   6.681   2.394   6.040 -0.0490 -0.2813 -0.1256
 9643W        W 9643   6.107   2.967   7.217  0.0476 -0.1849 -0.1817
 9644W        W 9644   6.643   6.650   2.978  0.0807 -0.1092 -0.0458
 9645W        W 9645   5.092   8.825   5.394  0.0418  0.1744  0.1951
 9646W        W 9646   8.899   2.572   0.626  0.1390 -0.1803  0.1384
 9647W        W 9647   2.314   8.587   0.258  0.0003  0.0009 -0.1638
 9648W        W 9648   6.057   9.589   3.650 -0.2804  0.1342 -0.0266
 9649W        W 9649   2.702   9.622   2.782  0.0563 -0.1850 -0.1364
 9650W        W 9650   1.546   0.728   0.789 -0.3518 -0.2921 -0.0005
 9651W        W 9651   3.706   1.323   2.037 -0.0849  0.1638  0.0802
 9652W        W 9652   7.168   8.357   4.983  0.2532 -0.3864  0.2488
 9653W        W 9653   3.926   6.836   3.830 -0.0620  0.0808 -0.0750
 9654W        W 9654   2.561   0.330   5.241  0.5003 -0.0741 -0.0847
 9655W        W 9655   1.322   2.499   6.188  0.2471 -0.2472  0.0597
 9656W        W 9656   3.412   9.195   6.413 -0.0599 -0.0686 -0.0052
 9657W        W 9657   9.281  10.251   9.366  0.1788  0.0375  0.2912
 9658W        W 9658   6.365   8.478   4.497  0.0586 -0.1367 -0.0670
 9659W        W 9659   3.037   2.475   3.481 -0.1032 -0.0502  0.1648
 9660W        W 9660   6.832   0.530   3.723 -0.1096 -0.2055  0.2100
 9661W        W 9661   3.357   0.647   6.901  0.0815  0.1732  0.4222
 9662W        W 9662   5.111   6.330   0.427  0.0183  0.0267  0.2393
 9663W        W 9663   6.298   9.915   8.743  0.3068  0.1105  0.0932
 9664W        W 9664   4.328   3.659   5.027  0.0556 -0.1058  0.0490
 9665W        W 9665   3.089   8.792   9.410 -0.0949 -0.0140 -0.1210
 9666W        W 9666   6.092   8.420   0.458 -0.2149 -0.1896 -0.0136
 9667W        W 9667   0.395   8.619   0.451  0.3277 -0.0487  0.0079
 9668W        W 9668  10.116   8.303   4.853 -0.4092 -0.4781 -0.4494
 9669W        W 9669   4.048   8.128   6.589  0.1467  0.1634  0.3437
 9670W        W 9670   6.801   6.115   7.055 -0.1844 -0.1084 -0.2736
 9671W        W 9671   2.839   2.668   5.989  0.2684 -0.0571 -0.3251
 9672W        W 9672   3.278   4.728   3.184  0.1684 -0.0158 -0.0660
 9673W        W 9673   4.890   0.376   5.707 -0.2393 -0.2222  0.2175
 9674W        W 9674  10.185   1.133   9.704 -0.3011 -0.1260  0.2599
 9675W        W 9675   1.923   4.707   3.677  0.1712  0.0294 -0.1198
 9676W        W 9676   6.387   4.288   4.346  0.2392 -0.2393 -0.2326
 9677W        W 9677   1.888  10.241   3.827 -0.0601  0.0488  0.2115
 9678W        W 9678   8.451   7.809   3.530 -0.2727  0.2554  0.0202
 9679W        W 9679   6.570   8.768   5.684 -0.2741 -0.0493 -0.0151
 9680W        W 9680   6.180   2.013   3.874 -0.1151  0.1389  0.2206
 9681W        W 9681   6.278   4.545   2.403 -0.0727 -0.2172 -0.3481
 9682W        W 9682  10.251   0.983   8.230 -0.2078  0.3801  0.0377
 9683W        W 9683   0.457   6.628   4.518 -0.3707  0.1205 -0.0116
 9684W        W 9684   1.342   0.353   6.039 -0.3398 -0.0035 -0.0328
 9685W        W 9685   5.821   0.893   0.996  0.1172  0.0899  0.1400
 9686W        W 9686   3.380   9.515   7.084 -0.1676 -0.0651 -0.2002
 9687W        W 9687   1.463   1.040   5.608  0.0683 -0.2251 -0.1238
 9688W        W 9688   8.736   1.546   3.912 -0.4288  0.0864  0.2221
 9689W        W 9689   3.630   4.287   4.549  0.1178  0.0583  0.1727
 9690W        W 9690   5.761   1.247   3.774 -0.0942 -0.0894 -0.1452
 9691W        W 9691   3.660   4.049   0.898 -0.0796 -0.4462 -0.1060
 9692W        W 9692   3.185   2.424   7.858  0.0595  0.2316  0.1372
 9693W        W 9693   5.275   5.940   0.861  0.4256 -0.1886 -0.1526
 9694W        W 9694   4.703   5.438   0.569  0.0127 -0.1514  0.0566
 9695W        W 9695   2.434   4.880   5.079 -0.1502  0.1331 -0.1090
 9696W        W 9696  10.328   9.418   2.037 -0.0693  0.2878  0.0578
 9697W        W 9697   6.216   1.922   4.452 -0.2429 -0.1070 -0.0296
 9698W        W 9698   8.932   0.250   4.585 -0.0028 -0.2357  0.3820
 9699W        W 9699   1.143   8.565   3.331  0.2268 -0.1454 -0.2917
 9700W        W 9700   9.822   2.741   4.115  0.0463  0.1011 -0.0634
 9701W        W 9701  10.245   5.541   3.987 -0.3233  0.0049 -0.0500
 9702W        W 9702   9.467   3.326   5.541  0.1714  0.3358  0.0391
 9703W        W 9703   4.097   8.520   4.957  0.3809  0.1489 -0.2588
 9704W        W 9704   9.432   8.085   8.664  0.1385  0.0368 -0.1201
 9705W        W 9705   6.157   6.682   1.046  0.1525  0.2667  0.4201
 9706W        W 9706   9.754   9.999   7.847  0.0129 -0.1074  0.3597
 9707W        W 9707   8.555   0.692   7.027  0.2342 -0.0191  0.2489
 9708W        W 9708   4.933   0.739   1.481  0.1565 -0.1757  0.0252
 9709W        W 9709   7.017  10.315   0.562 -0.2936 -0.0105  0.0347
 9710W        W 9710   8.804   7.787   5.757  0.0082 -0.0892 -0.0442
 9711W        W 9711   9.278   1.873   5.248 -0.0103 -0.0949 -0.1141
 9712W        W 9712   7.579   1.055   4.723  0.1537 -0.3210  0.2650
 9713W        W 9713   6.813   3.061   0.673  0.0796  0.0385 -0.1869
 9714W        W 9714   2.860   2.485   9.920  0.2606 -0.0879  0.0374
 9715W        W 9715   0.480   2.480   8.453  0.1434  0.3661  0.0245
 9716W        W 9716   7.465   5.520   2.154 -0.0842 -0.1494 -0.1143
 9717W        W 9717   0.483   8.542   6.931  0.0895  0.3784 -0.0159
 9718W        W 9718   9.945   0.194   0.575 -0.1623  0.0749  0.0764
 9719W        W 9719   9.152   7.004   1.522  0.1948  0.0911 -0.0224
 9720W        W 9720   3.725   6.642   6.631  0.1638  0.0027 -0.2474
 9721W        W 9721   0.544   7.826   8.717 -0.0153 -0.2999  0.1471
 9722W        W 9722   5.944   4.272  10.188  0.1006 -0.1399 -0.0420
 9723W        W 9723   1.316   2.874   6.563  0.1112 -0.0518  0.3425
 9724W        W 9724   0.949  10.319   4.218  0.0643 -0.2619 -0.1549
 9725W        W 9725   6.081   8.981   9.954  0.0048  0.0941  0.0985
 9726W        W 9726   7.590   3.194   9.618 -0.2085 -0.0238  0.0581
 9727W        W 9727   1.728   1.660   8.476  0.0557 -0.1798 -0.1202
 9728W        W 9728   8.431   7.483   5.510 -0.2545 -0.0308 -0.2118
 9729W        W 9729   7.820   3.408   2.901  0.1124  0.1631  0.0048
 9730W        W 9730   3.965   9.745   0.182  0.0254  0.0859  0.0283
 9731W        W 9731   1.866  10.147   3.191 -0.2065 -0.2214  0.0050
 9732W        W 9732   1.158   3.696   4.099 -0.0240 -0.1081  0.0554
 9733W        W 9733   1.050   3.894   1.295  0.0051 -0.0699  0.0125
 9734W        W 9734   8.773   4.745   6.346 -0.0441 -0.0045 -0.3184
 9735W        W 9735   4.548   1.303   5.126 -0.5154  0.0738  0.0059
 9736W        W 9736   6.257   5.719   5.380 -0.0842  0.1312  0.0315
 9737W        W 9737   6.425   5.472   5.738  0.0265 -0.0143  0.2058
 9738W        W 9738   8.191   0.526   7.580  0.0247 -0.1346 -0.0424
 9739W        W 9739   6.047   0.869   6.009  0.2844 -0.1584 -0.5064
 9740W        W 9740   5.200   2.770   8.174  0.0252 -0.1825 -0.3179
 9741W        W 9741   8.500   9.244   3.609 -0.3699 -0.0100 -0.2591
 9742W        W 9742   1.785   2.645   3.624 -0.0240  0.1095 -0.1564
 9743W        W 9743   9.047  10.079   3.845  0.1152  0.0707 -0.3810
 9744W        W 9744   9.532   4.203   0.145  0.3082 -0.1174 -0.5575
 9745W        W 9745   4.734   9.374   5.409  0.1703  0.2191  0.2751
 9746W        W 9746   8.332   9.618   2.265 -0.4506 -0.2207 -0.0084
 9747W        W 9747   9.492   2.647   7.875  0.0641 -0.3902 -0.1096
 9748W        W 9748   2.165   8.563   3.319  0.0215  0.1748  0.0174
 9749W        W 9749   7.691  10.272   5.837 -0.2880  0.2361  0.1398
 9750W        W 9750   1.479   4.192   1.403  0.1789  0.1315  0.2527
 9751W        W 9751   5.857   7.663   4.484  0.1881 -0.1340  0.0820
 9752W        W 9752   1.514   1.559   5.599 -0.0575 -0.0097  0.0440
 9753W        W 9753   2.596   2.822   8.092 -0.1332 -0.1236  0.2295
 9754W        W 9754   0.213   9.405   8.381 -0.3898  0.0764 -0.4837
 9755W        W 9755   1.316   2.985   7.153 -0.3441  0.2630 -0.0146
 9756W        W 9756   2.064   0.064   6.700  0.0846  0.2871  0.0488
 9757W        W 9757   1.257   5.830   7.420  0.1873 -0.0817  0.2626
 9758W        W 9758   7.700   3.657   9.742  0.1267  0.0256 -0.0201
 9759W        W 9759   5.384   4.468   9.047 -0.3703 -0.0693  0.2276
 9760W        W 9760   4.710   9.013   4.555  0.0683  0.2076 -0.1332
 9761W        W 9761   4.593   7.174   5.849  0.2160 -0.0247 -0.2993
 9762W        W 9762   5.758   8.568   1.496  0.1903  0.2861 -0.2105
 9763W        W 9763   0.721   5.133   6.362  0.1045  0.0089  0.0419
 9764W        W 9764   4.729   8.478   4.972 -0.1533  0.3030 -0.1766
 9765W        W 9765   9.709   3.122   2.034 -0.1817 -0.1238 -0.2241
 9766W        W 9766   4.102   0.868   3.220 -0.1915 -0.1219  0.0276
 9767W        W 9767   0.090   5.086   0.676  0.1569  0.0750 -0.1563
 9768W        W 9768   2.219   8.018   1.934 -0.0217 -0.0491 -0.1165
 9769W        W 9769   5.356   3.966   3.072 -0.1141  0.0173 -0.1782
 9770W        W 9770   3.788   3.108   1.103 -0.1834 -0.1400  0.3868
 9771W        W 9771   0.838   5.353   4.623  0.4515  0.0099  0.1167
 9772W        W 9772   3.038   5.427   5.841 -0.1657 -0.2485  0.0906
 9773W        W 9773   3.826   9.076   4.978  0.2571  0.2418 -0.1602
 9774W        W 9774   2.901   1.681   2.064  0.1890  0.2448  0.0014
 9775W        W 9775   2.506   3.182   7.670 -0.1069  0.1275 -0.0127
 9776W        W 9776   3.528   7.487   1.940  0.0844  0.2584 -0.2532
 9777W        W 9777   9.529   2.375   6.256  0.0519  0.0001 -0.2621
 9778W        W 9778   7.639   7.084   5.308 -0.4089  0.2214 -0.2478
 9779W        W 9779   6.731  10.227   5.409 -0.0084  0.2770  0.0571
 9780W        W 9780   2.347   1.087   9.042  0.1016 -0.0049 -0.1454
 9781W        W 9781   2.654   5.908   4.139 -0.0041  0.2854  0.0136
 9782W        W 9782   8.500   0.505   9.362 -0.1100 -0.0186  0.0148
 9783W        W 9783   8.295   1.591   6.356 -0.0618 -0.1138  0.0556
 9784W        W 9784   5.551   9.385   6.783 -0.0169  0.0399 -0.5076
 9785W        W 9785   9.733   8.603   5.148 -0.1456  0.0200 -0.0557
 9786W        W 9786   0.659   2.780   2.820  0.1504 -0.2908 -0.0613
 9787W        W 9787   3.500   4.396   3.555 -0.0247  0.0336 -0.2758
 9788W        W 9788   2.071   7.369   6.000  0.0842  0.0832 -0.1211
 9789W        W 9789   8.169   8.435   8.781  0.0499 -0.0793  0.0603
 9790W        W 9790   1.742   9.274   8.631 -0.1795 -0.1404 -0.0758
 9791W        W 9791   9.537   8.244   9.837 -0.0456 -0.0545 -0.2395
 9792W        W 9792   8.802   0.019   7.441  0.0634  0.0058 -0.1324
 9793W        W 9793   8.028   1.546   9.239 -0.0019  0.0323 -0.0001
 9794W        W 9794   5.892   0.294   5.906  0.1141  0.5699 -0.1525
 9795W        W 9795   0.969   5.722  10.299 -0.1954 -0.2475  0.1614
 9796W        W 9796  10.300   6.559   4.412  0.2978 -0.1256 -0.2714
 9797W        W 9797   4.295   4.307   0.106 -0.2310  0.1201 -0.0643
 9798W        W 9798   1.686   5.088   8.847  0.0311 -0.0551  0.0041
 9799W        W 9799   5.837   5.133   4.588  0.0961  0.2041 -0.0930
 9800W        W 9800   6.188   4.805   9.233 -0.1110 -0.3745 -0.0423
 9801W        W 9801   1.275   8.557   8.535  0.1659 -0.3587  0.0943
 9802W        W 9802   3.388   6.137   9.251 -0.2817 -0.0551  0.0398
 9803W        W 9803   1.181   6.234   6.188  0.2377 -0.0876 -0.0212
 9804W        W 9804   8.871   5.641   4.407 -0.0344 -0.0608 -0.2102
 9805W        W 9805   7.708   6.070   6.507  0.0655  0.0149 -0.2051
 9806W        W 9806   3.692   5.416   3.974 -0.1255 -0.1959 -0.0845
 9807W        W 9807   7.716  10.094   2.934 -0.1377  0.0808  0.0423
 9808W        W 9808   1.245   5.276   9.002 -0.1633 -0.1444 -0.0357
 9809W        W 9809   1.529   3.203   9.608 -0.1404  0.3367  0.1088
 9810W        W 9810   7.339   8.087   0.161 -0.0930  0.1194  0.2190
 9811W        W 9811   4.639   0.302   6.176  0.0475  0.0085  0.1746
 9812W        W 9812  10.052   4.745   1.659  0.0209 -0.2247  0.2157
 9813W        W 9813   0.995   1.340   4.024  0.1507  0.0677  0.1830
 9814W        W 9814   0.586   5.401   2.524  0.1950  0.1804 -0.0211
 9815W        W 9815   9.896  10.230   5.969  0.0012 -0.2111 -0.1651
 9816W        W 9816   4.405   4.450   2.996 -0.0471 -0.1041  0.2926
 9817W        W 9817   8.093   3.536   2.070 -0.1798  0.5708  0.1325
 9818W        W 9818   4.366   3.990   8.783 -0.1513 -0.0459  0.0154
 9819W        W 9819   5.493   8.718   3.350  0.0485  0.1314  0.2058
 9820W        W 9820   2.931   8.142   7.512  0.0829  0.3009  0.1649
 9821W        W 9821   0.673   3.821   3.832  0.0145  0.1243  0.2309
 9822W        W 9822   9.571   0.391   8.584 -0.1684  0.2908 -0.2063
 9823W        W 9823   5.149   3.127   2.779  0.1156 -0.0514 -0.0240
 9824W        W 9824   4.373   0.367   8.111 -0.1345 -0.2259  0.1132
 9825W        W 9825   1.400   4.488   1.859 -0.2829  0.1190  0.1664
 9826W        W 9826   0.264   5.912   8.919  0.0308  0.1013  0.0442
 9827W        W 9827   2.864   6.247   6.457 -0.0801  0.0600 -0.1028
 9828W        W 9828   7.991   1.501   6.738 -0.2074 -0.2049 -0.1891
 9829W        W 9829   8.895   8.937   4.874  0.2051  0.1710  0.3047
 9830W        W 9830   0.855   8.919   3.175 -0.1114 -0.3091 -0.2727
 9831W        W 9831   5.236   4.379   6.658 -0.0608  0.3256 -0.0074
 9832W        W 9832   6.562   6.364   2.127  0.1277 -0.4082 -0.1875
 9833W        W 9833   0.163   3.867   4.665 -0.0787  0.3894 -0.1260
 9834W        W 9834   9.523   9.750   7.046  0.0044 -0.0414 -0.4475
 9835W        W 9835   0.384   6.027   0.863 -0.4157 -0.1055 -0.0890
 9836W        W 9836   9.792   7.772   5.593 -0.2451 -0.0821 -0.0060
 9837W        W 9837   5.597   5.851   6.274 -0.2821  0.0209 -0.1713
 9838W        W 9838   9.530   9.482   3.413  0.2178  0.1512 -0.1359
 9839W        W 9839   4.212   0.901   7.228 -0.3261 -0.1448  0.0071
 9840W        W 9840   9.728   2.465   5.798  0.0100  0.0228 -0.3125
 9841W        W 9841   0.441   9.285   8.812 -0.3312 -0.0355 -0.0439
 9842W        W 9842   8.329   8.917   9.871 -0.0032  0.1346  0.0727
 9843W        W 9843   9.859   1.557   8.953 -0.0276 -0.1110  0.1160
 9844W        W 9844   2.650  10.011   9.834 -0.3795 -0.0028  0.1638
 9845W        W 9845   8.619   9.552   7.185 -0.0876 -0.5581  0.2627
 9846W        W 9846   9.303   0.874   9.551 -0.0697 -0.2653  0.0919
 9847W        W 9847   3.788   0.682   7.101  0.1561  0.0567  0.1223
 9848W        W 9848   6.894   4.017   1.187  0.2304 -0.0417  0.0033
 9849W        W 9849   1.968  10.090   2.288  0.2148 -0.1126 -0.0322
 9850W        W 9850   4.710   1.241   5.794  0.1442 -0.4795  0.0510
 9851W        W 9851   1.173   5.299   6.004  0.0509 -0.0557 -0.2836
 9852W        W 9852   8.701   2.607   4.170  0.4253 -0.0094 -0.1894
 9853W        W 9853   6.693   7.397   1.064 -0.0103  0.0627  0.0987
 9854W        W 9854   1.921   3.483   8.201  0.0983  0.1215  0.2721
 9855W        W 9855   0.745   5.141   8.873 -0.0821  0.3858  0.4712
 9856W        W 9856   8.190   4.177   8.766 -0.3550  0.1760  0.2103
 9857W        W 9857   4.584   3.040   9.327 -0.0262 -0.0112 -0.0845
 9858W        W 9858   3.778   4.315  10.305  0.0546 -0.0889 -0.0016
 9859W        W 9859   6.156   1.137   1.229  0.0360  0.0394  0.0455
 9860W        W 9860   8.572   1.614   5.699 -0.2323  0.1232  0.4773
 9861W        W 9861   5.212   8.713   0.426  0.2032  0.2482  0.0309
 9862W        W 9862   1.301   1.975   3.226  0.2322  0.0844  0.0846
 9863W        W 9863   1.799   2.053   7.169  0.0349 -0.2445 -0.1727
 9864W        W 9864   4.695  10.298   7.896 -0.1090  0.0464 -0.1696
 9865W        W 9865   5.191   3.006   4.162  0.1064 -0.0985  0.0366
 9866W        W 9866   0.965   8.647  10.163  0.1547 -0.2332 -0.1216
 9867W        W 9867   1.431   1.586   6.456 -0.0243  0.0498  0.2874
 9868W        W 9868   3.611   4.581   1.843 -0.0328  0.1703 -0.3969
 9869W        W 9869   2.246   9.872   7.020  0.1863  0.1691 -0.4495
 9870W        W 9870   3.995   3.594   7.615 -0.1331 -0.1306  0.0174
 9871W        W 9871   0.583   7.989  10.099  0.1920 -0.0458  0.0413
 9872W        W 9872   8.866   1.692   9.708 -0.2420  0.0149  0.1147
 9873W        W 9873   1.951   4.823   9.849 -0.0532  0.1221  0.1586
 9874W        W 9874   3.031   9.426   1.483  0.2988  0.0545 -0.2212
 9875W        W 9875  10.178   4.100   0.809 -0.3702 -0.0953 -0.0287
 9876W        W 9876   5.107   9.125   4.895 -0.2985 -0.0659  0.2708
 9877W        W 9877   0.989   1.212   3.431 -0.1050  0.0556  0.1985
 9878W        W 9878   1.563   8.104   6.243 -0.1066  0.0199  0.0992
 9879W        W 9879   8.638   8.434   1.877  0.1228 -0.3478  0.2354
 9880W        W 9880   2.933   5.925   5.639 -0.2423  0.1063  0.0232
 9881W        W 9881   3.609   9.559   6.587  0.0267  0.0213 -0.1886
 9882W        W 9882   4.028   8.045   6.102  0.1191  0.1867 -0.1293
 9883W        W 9883   9.634   1.938   4.943  0.3183 -0.2572  0.0734
 9884W        W 9884   8.068   7.844   8.092  0.0658  0.0338 -0.0751
 9885W        W 9885   2.513   9.885   4.482  0.1673 -0.2252  0.1655
 9886W        W 9886   1.546   1.049   9.054  0.1094  0.2851 -0.1501
 9887W        W 9887   3.004   3.515   0.509 -0.3103 -0.0270 -0.2993
 9888W        W 9888   8.658   4.812   2.596  0.0399 -0.0011  0.3509
 9889W        W 9889   3.552   5.593   0.749  0.2529  0.2307  0.3982
 9890W        W 9890   5.242   7.540   6.683 -0.1899 -0.3609  0.7676
 9891W        W 9891   8.014   1.954   2.506 -0.0810  0.1025 -0.0889
 9892W        W 9892   6.114   7.040   3.283  0.2972 -0.1301  0.1525
 9893W        W 9893   4.463   8.615   9.467  0.0138  0.0457 -0.0105
 9894W        W 9894   7.404   9.985   1.108 -0.0788 -0.1173  0.2594
 9895W        W 9895   5.836   7.856   5.926 -0.1456  0.0869  0.1992
 9896W        W 9896   6.761   7.606   3.920 -0.2087 -0.1750 -0.5158
 9897W        W 9897   2.564   0.898   7.008 -0.1369  0.2626 -0.2291
 9898W        W 9898   0.848   1.140   8.641 -0.1078 -0.0347  0.0907
 9899W        W 9899   1.436   5.968   8.887  0.0987  0.3108  0.1223
 9900W        W 9900   2.301   0.739   2.377  0.2719 -0.1211  0.0513
 9901W        W 9901   9.623   6.979   6.907  0.1306  0.0632 -0.0542
 9902W        W 9902   0.050   0.518   0.834 -0.1430 -0.0245 -0.2831
 9903W        W 9903  10.284   1.638   7.562  0.0963  0.2329 -0.0162
 9904W        W 9904   9.199   5.339   9.493  0.3691  0.3867  0.0219
 9905W        W 9905   1.507   9.446   3.421 -0.3921 -0.0805 -0.4124
 9906W        W 9906   0.268   8.790   2.020  0.0777 -0.0756 -0.1009
 9907W        W 9907   1.208   4.104   6.980 -0.2258  0.2204  0.1917
 9908W        W 9908   8.789   1.244   7.276 -0.0034  0.1928 -0.0428
 9909W        W 9909   2.281   9.885   0.531  0.2443  0.0238 -0.0813
 9910W        W 9910   5.461   3.947   8.274 -0.4076 -0.4822 -0.0830
 9911W        W 9911   0.948   0.036   1.958 -0.0830 -0.3224  0.0028
 9912W        W 9912   7.267   7.649   7.410  0.1916  0.0561  0.0292
 9913W        W 9913   4.688   5.350   5.872  0.2035  0.1455 -0.2003
 9914W        W 9914   5.568   6.773   4.502  0.2423 -0.2098  0.2278
 9915W        W 9915   4.715   6.566   2.476 -0.0351  0.2304 -0.2203
 9916W        W 9916   3.360   7.180   8.758 -0.0835 -0.4447 -0.0543
 9917W        W 9917   2.622   9.669   7.344  0.0442 -0.0882 -0.0022
 9918W        W 9918   6.513   8.623   3.222  0.0692 -0.4617 -0.0702
 9919W        W 9919   4.203   0.079   7.757  0.4201 -0.1674 -0.1991
 9920W        W 9920   2.258   2.085   8.378 -0.0718  0.4644 -0.0579
 9921W        W 9921   3.164   4.678   2.702  0.2472  0.0925  0.0379
 9922W        W 9922   1.866   8.967   9.976 -0.0077 -0.0341 -0.0265
 9923W        W 9923   9.215   7.491   9.408 -0.1355 -0.0927 -0.1280
 9924W        W 9924   1.953   9.027   1.089  0.5267 -0.0824  0.1574
 9925W        W 9925   6.024   7.883   0.396 -0.2344  0.0872  0.1306
 9926W        W 9926   3.947   8.148   4.636  0.0424  0.2458 -0.1523
 9927W        W 9927   3.830   4.254   0.477 -0.1863 -0.1938  0.0721
 9928W        W 9928   3.616   0.117   3.635  0.1710  0.2459  0.0961
 9929W        W 9929   9.702   4.116   0.852  0.1099  0.2068 -0.0370
 9930W        W 9930   2.005   5.702  10.225  0.1582 -0.1923 -0.1123
 9931W        W 9931   1.233   7.648   9.127 -0.0360  0.0034 -0.0520
 9932W        W 9932   6.198   6.277   7.821 -0.1981 -0.3333  0.1317
 9933W        W 9933   4.940   0.088   4.698  0.0595  0.1111  0.0811
 9934W        W 9934   5.359   2.073   9.031  0.1050 -0.2282  0.1932
 9935W        W 9935   7.451   1.882   5.115 -0.0724  0.0163  0.0598
 9936W        W 9936   0.390   4.222   1.423 -0.0266  0.0986  0.0447
 9937W        W 9937  10.265   3.700   8.970  0.2039  0.2367  0.3394
 9938W        W 9938   8.706   4.899   1.534 -0.0761 -0.1352 -0.3323
 9939W        W 9939   8.403   7.419   6.925 -0.2362  0.5470 -0.1687
 9940W        W 9940   8.168   9.498   5.176 -0.1395  0.0520  0.2152
 9941W        W 9941   8.933   4.334   2.815 -0.0683 -0.0667  0.0487
 9942W        W 9942   8.843   1.955  10.148 -0.0579 -0.3786  0.0524
 9943W        W 9943   8.290   2.272   4.174  0.2592 -0.2148 -0.1801
 9944W        W 9944   5.733   5.223   3.297  0.4227  0.0826 -0.0005
 9945W        W 9945   4.214   2.477   3.877 -0.1854 -0.0449 -0.2623
 9946W        W 9946   7.874   7.927   8.573 -0.2176  0.3141  0.0303
 9947W        W 9947   9.742   5.889   8.520 -0.2256 -0.0008 -0.0707
 9948W        W 9948   6.990   9.396   0.551  0.0178  0.2005  0.2830
 9949W        W 9949   8.521   1.184   0.673  0.1504  0.1054  0.2998
 9950W        W 9950   6.917   7.023   8.920  0.0483  0.1434 -0.1077
 9951W        W 9951   6.683   8.684   4.934  0.1653  0.1224 -0.4816
 9952W        W 9952   5.475   5.580   5.294  0.0640  0.0558  0.0677
 9953W        W 9953   8.268   2.395   1.206 -0.1186 -0.1843  0.2638
 9954W        W 9954   8.361   5.274   5.020 -0.1639 -0.3033 -0.3214
 9955W        W 9955   6.176  10.262   9.505 -0.1641 -0.0870  0.0831
 9956W        W 9956   8.816   5.622   5.144  0.3960 -0.1642  0.0020
 9957W        W 9957   7.754   1.781   1.710 -0.2358  0.0131  0.0842
 9958W        W 9958   1.449   0.371   8.390 -0.1096 -0.1908 -0.1376
 9959W        W 9959   1.485   7.137   8.314  0.0014 -0.3031  0.3034
 9960W        W 9960   5.751   4.714  10.283 -0.0477  0.0313  0.1234
 9961W        W 9961   5.636  10.215   1.283 -0.1510  0.0016  0.1819
 9962W        W 9962   7.163   8.257   9.929 -0.1206 -0.3418 -0.0160
 9963W        W 9963   0.518   7.399   4.277  0.1102  0.1485  0.0879
 9964W        W 9964   0.853   2.980   3.538  0.1045  0.2151 -0.1926
 9965W        W 9965   6.454   7.921   4.700  0.4528  0.2003  0.3528
 9966W        W 9966   7.719   0.809   6.684 -0.3096  0.1685 -0.1100
 9967W        W 9967   9.096   1.070   4.764  0.1071  0.1773  0.2829
 9968W        W 9968   8.323   7.848   2.725  0.2607 -0.2337 -0.0058
 9969W        W 9969   3.063   4.257   1.549  0.1373 -0.2589 -0.0297
 9970W        W 9970   7.072   9.248   1.652  0.2155  0.0931 -0.1693
 9971W        W 9971   7.759   6.821   7.251  0.2140 -0.1270 -0.0215
 9972W        W 9972   2.145   1.693   7.194 -0.2415 -0.2733 -0.1861
 9973W        W 9973   2.223   9.332   4.963 -0.2317 -0.2729 -0.0338
 9974W        W 9974   3.555   2.096   5.525 -0.0949 -0.1521 -0.0385
 9975W        W 9975   0.723  10.267   8.618  0.2722 -0.1552 -0.3706
 9976W        W 9976   9.094   7.418   5.038 -0.3723  0.0704 -0.2153
 9977W        W 9977   1.604   3.189   1.394 -0.3603 -0.1309 -0.1278
 9978W        W 9978   5.604   4.559   1.006 -0.1020  0.3072  0.2924
 9979W        W 9979   1.959   3.360   1.090 -0.1592  0.4343  0.0838
 9980W        W 9980   4.155   9.294   0.043  0.3004  0.1736 -0.2839
 9981W        W 9981   4.079   3.369   8.741 -0.1225  0.2598  0.1631
 9982W        W 9982   1.482   2.392   9.656  0.0207 -0.0722  0.0177
 9983W        W 9983   0.519   2.453   0.234 -0.2807  0.3552  0.1380
 9984W        W 9984   4.052   3.618   3.967 -0.1591  0.0050  0.0641
 9985W        W 9985   8.363   4.370   9.534 -0.1322 -0.2016 -0.0839
 9986W        W 9986   0.175   7.050   2.165  0.2199  0.2739  0.0614
 9987W        W 9987   6.416   9.999   0.600  0.1836  0.1165  0.1290
 9988W        W 9988   8.483   8.673   2.244 -0.0833  0.0906  0.0629
 9989W        W 9989   7.068   7.430   5.951 -0.0077  0.0834 -0.1195
 9990W        W 9990   4.124   5.691   8.175  0.2489 -0.1012 -0.2959
 9991W        W 9991   0.193   6.135   9.982 -0.0521  0.1278 -0.2359
 9992W        W 9992   3.796   6.820   9.620 -0.1101  0.0493  0.1192
 9993W        W 9993   6.362   0.921   4.636 -0.0576  0.1088  0.1094
 9994W        W 9994   5.883   1.155   4.610 -0.0876 -0.0627 -0.1211
 9995W        W 9995   2.930   8.768   1.038 -0.0168  0.0176 -0.0884
 9996W        W 9996   9.944   9.413   9.510 -0.3931  0.1854 -0.0749
 9997W        W 9997   0.581   7.498   6.249  0.1688  0.1925 -0.0085
 9998W        W 9998   1.930   8.402   2.868  0.0724  0.0944  0.0505
 9999W        W 9999   0.468   8.846   2.733 -0.3834 -0.0813 -0.3307
10000W        W10000   9.060   9.187   7.900 -0.1975  0.2684  0.0678
10001W        W10001   3.412   7.097   9.694  0.0714 -0.5383 -0.0380
10002W        W10002   3.176   2.473   5.626 -0.1569 -0.2968  0.4039
10003W        W10003   0.297   7.646   3.858  0.0279 -0.2174  0.1631
10004W        W10004   0.813   3.152   0.852  0.0588 -0.0937 -0.0527
10005W        W10005   0.320   3.214   0.995 -0.2252 -0.1462 -0.1516
10006W        W10006   3.723   7.802   3.698 -0.1248 -0.0804 -0.1537
10007W        W10007   0.416   5.063   1.026 -0.0023  0.0536  0.0446
10008W        W10008   8.242   3.673  10.202  0.0162  0.0250 -0.3044
10009W        W10009   5.231   3.655   7.397  0.5804  0.2318 -0.0907
10010W        W10010   0.502   8.327   7.736  0.1121  0.2559  0.5225
10011W        W10011   8.241   4.570   9.017 -0.0925 -0.1244 -0.0192
10012W        W10012   4.347   5.074   9.857 -0.2793  0.2468 -0.0324
10013W        W10013   4.881   6.812   5.908  0.3503 -0.2329  0.0248
10014W        W10014   3.783   2.688   2.473  0.2273 -0.2175  0.1012
10015W        W10015   7.581   7.283   7.478 -0.1624  0.0524  0.1668
10016W        W10016   3.333   8.751   6.200 -0.1966  0.2910  0.0906
10017W        W10017   6.802   1.819   2.141  0.2615 -0.1808 -0.0896
10018W        W10018   3.508   4.980   9.572 -0.5042 -0.1465 -0.0479
10019W        W10019  10.130   9.982   4.586  0.0069  0.1644  0.0468
10020W        W10020   9.535   1.044   7.208 -0.0303 -0.2492 -0.2577
10021W        W10021   2.495   2.766   4.867 -0.0434  0.5502 -0.2364
10022W        W10022   8.689   4.389   8.796  0.4799 -0.0181  0.1182
10023W        W10023   4.252   3.451   5.519  0.0193  0.1402  0.2322
10024W        W10024   9.818   9.086   9.924 -0.2918  0.1780 -0.2804
10025W        W10025   2.674   5.680   6.417  0.2638  0.2550 -0.2323
10026W        W10026   6.430   9.796   1.151 -0.2855  0.0055 -0.2623
10027W        W10027   6.662   9.804   7.100 -0.3936  0.4193  0.0185
10028W        W10028   1.810   7.667   6.276 -0.1398  0.1059  0.2607
10029W        W10029   0.422   3.740   9.136  0.0377  0.1282  0.1657
10030W        W10030   9.406   2.498   1.074  0.0767 -0.4713  0.1038
10031W        W10031   4.200  10.293   9.570 -0.1238 -0.0796 -0.0941
10032W        W10032   0.770   6.485   8.476  0.2319  0.0801  0.0059
10033W        W10033   9.401   0.193   9.005 -0.2959  0.0143 -0.0548
10034W        W10034   2.404  10.323   4.794 -0.3597  0.1631 -0.0739
10035W        W10035   2.268   4.104   7.809 -0.0064  0.1967 -0.2139
10036W        W10036   9.831   9.489   7.913  0.1761 -0.1740  0.1230
10037W        W10037   6.009   5.001   3.625  0.1524 -0.1741  0.2636
10038W        W10038   9.862   0.242   4.639 -0.1703 -0.2623 -0.0655
10039W        W10039   0.980   4.115  10.308 -0.0709  0.1139 -0.3139
10040W        W10040   3.699   5.997   4.776 -0.2037 -0.1317 -0.1913
10041W        W10041  10.223   4.958   9.710 -0.0890 -0.2199  0.0523
10042W        W10042   7.460   5.690   6.762 -0.1596  0.1525 -0.3648
10043W        W10043   5.796   4.869   9.618  0.2108 -0.0171  0.0401
10044W        W10044   8.367   8.907   8.958  0.2494 -0.3599  0.3461
10045W        W10045   8.168   3.366   9.855 -0.1579  0.0062  0.0054
10046W        W10046   9.900   8.362  10.290  0.2601 -0.2987 -0.3186
10047W        W10047   0.612   1.172   7.011  0.1586 -0.0580  0.1048
10048W        W10048   6.236   4.629   5.946  0.1854 -0.1084  0.1512
10049W        W10049   8.445   9.039   5.122 -0.2971 -0.2018  0.3154
10050W        W10050   1.394   1.660   4.260 -0.0449 -0.0841  0.0579
10051W        W10051   6.097   7.028   2.379 -0.3280 -0.1893 -0.0710
10052W        W10052   9.426   4.954   4.086 -0.0129  0.0633 -0.2498
10053W        W10053   3.248   9.795   6.289 -0.0999  0.2152 -0.0330
10054W        W10054   1.825   5.661   4.183 -0.2859  0.1416 -0.1515
10055W        W10055   4.180   3.044   6.951 -0.4109  0.2291  0.1806
10056W        W10056   9.992   2.576   9.601 -0.1605 -0.2462  0.1082
10057W        W10057   0.679   5.792   5.359  0.2359 -0.2370 -0.1149
10058W        W10058   5.858   0.169   6.718 -0.0705 -0.0638 -0.2363
10059W        W10059   5.950   4.428   5.210 -0.1140 -0.0444 -0.2853
10060W        W10060   5.637  10.206   7.972 -0.0030  0.0085  0.0258
10061W        W10061   5.925   1.595   4.187 -0.0958  0.1098 -0.0403
10062W        W10062   5.946   5.737   0.956  0.1020 -0.1700 -0.1047
10063W        W10063   5.949  10.016   3.357 -0.1286  0.4443 -0.3471
10064W        W10064   8.512   7.968   2.286 -0.0772  0.4560 -0.0784
10065W        W10065   8.556   4.365   3.180  0.3237 -0.1521  0.1734
10066W        W10066   0.631   0.995   0.076  0.0273  0.3267  0.0828
10067W        W10067   6.108   1.633   2.879 -0.0330 -0.1719  0.0946
10068W        W10068   1.647   9.373   2.869 -0.1383  0.3442 -0.1607
10069W        W10069   0.292   4.089   0.502  0.1931  0.0487  0.2378
10070W        W10070   5.828   5.593  10.186  0.1932 -0.1459 -0.0552
10071W        W10071   6.584   2.873   7.423  0.0512  0.0130  0.2891
10072W        W10072   6.420   9.259  10.152 -0.1172  0.0631 -0.0062
10073W        W10073   7.509   4.029   0.457 -0.0216 -0.2824  0.0297
10074W        W10074   9.438   7.955   0.794  0.1136  0.0089 -0.2279
10075W        W10075   3.186   4.186   5.760  0.0866 -0.0243  0.1539
10076W        W10076   1.268  10.149   7.783 -0.0205  0.0042  0.1831
10077W        W10077   0.648   0.271   6.565 -0.0489 -0.2194 -0.0973
10078W        W10078   1.390   1.490   5.112  0.2450 -0.0293 -0.3014
10079W        W10079   5.415   9.863   6.744 -0.0530  0.2579 -0.0259
10080W        W10080   3.509   1.935   6.002 -0.1372 -0.2122 -0.2223
10081W        W10081   6.023   5.604   3.377  0.1220 -0.0443 -0.0432
10082W        W10082   8.144   2.752   4.222  0.0841 -0.0077  0.0864
10083W        W10083   0.426   0.138   4.047  0.1382  0.0948 -0.0517
10084W        W10084   0.496   8.053   3.020 -0.0646  0.0274  0.2405
10085W        W10085   0.173   0.869   5.350 -0.2839 -0.1825  0.0356
10086W        W10086   3.977   4.127   2.916  0.0807  0.0853 -0.0599
10087W        W10087   4.294   5.390   4.893 -0.2074 -0.1617  0.4053
10088W        W10088   1.680   1.593   0.375 -0.3285 -0.0284  0.1735
10089W        W10089   8.346   7.083   9.114 -0.2620  0.2491 -0.1433
10090W        W10090   9.948   0.017   2.414  0.1833 -0.0831 -0.3608
10091W        W10091   3.338   2.681   2.209  0.1505  0.2701 -0.1008
10092W        W10092   4.754   3.131   0.328  0.1166 -0.0136 -0.2660
10093W        W10093   5.044   1.814   9.570 -0.1592 -0.0337 -0.0745
10094W        W10094   6.198   9.090   5.712  0.0229  0.0183  0.4526
10095W        W10095   9.644   5.613   8.109  0.1550 -0.4604  0.0214
10096W        W10096   0.348   1.965   3.870 -0.1041  0.1568  0.0273
10097W        W10097  10.036   0.798   1.033  0.3623 -0.2991  0.0574
10098W        W10098   5.537   5.305   7.041 -0.1733 -0.0073  0.2571
10099W        W10099   7.353   9.988   8.910 -0.3568 -0.2406 -0.2154
10100W        W10100   0.367   8.136   2.196 -0.1136 -0.2032  0.0295
10101W        W10101   4.441   1.602   4.146 -0.1661 -0.0738 -0.1598
10102W        W10102   8.891   3.266   8.269 -0.0813 -0.1166  0.0774
10103W        W10103   7.428   9.461   8.105  0.0570 -0.0780 -0.0564
10104W        W10104   3.387   0.805   7.653  0.0596 -0.0240 -0.3007
10105W        W10105   6.889   2.401   1.305 -0.0763  0.1177  0.1395
10106W        W10106   7.301   2.186   5.944  0.1045 -0.0366  0.0009
10107W        W10107   1.282   9.866   6.494  0.2478 -0.0960  0.0629
10108W        W10108   5.150   7.340   1.331  0.1094 -0.4029 -0.1868
10109W        W10109   0.942   9.903   4.772  0.3126  0.2375  0.0572
10110W        W10110   1.951   3.697   0.099  0.1451 -0.1137  0.1465
10111W        W10111   9.657   0.982   0.715  0.4023  0.1286 -0.2468
10112W        W10112   7.159   2.518   1.768  0.0006  0.1443 -0.0135
10113W        W10113   6.675   7.824   9.489 -0.2692  0.3970 -0.0421
10114W        W10114   2.016   2.588   7.539  0.2631 -0.3269  0.0842
10115W        W10115   0.478   2.966   6.350  0.3043 -0.1391  0.2341
10116W        W10116   6.588   0.508   4.526  0.0101 -0.2808  0.0525
10117W        W10117   1.554   6.449   3.429  0.4236  0.0147 -0.1372
10118W        W10118   4.891   0.596   7.946 -0.1279 -0.0708 -0.0406
10119W        W10119   0.761   4.805   8.456  0.0881 -0.1559 -0.1774
10120W        W10120   4.508   9.841   6.569 -0.0992  0.2871 -0.0002
10121W        W10121  10.104  10.158   0.868 -0.0952  0.2568 -0.5364
10122W        W10122   2.586   5.129   8.112  0.0471 -0.1890 -0.0166
10123W        W10123   5.500   2.760   1.735  0.1984  0.1264 -0.1603
10124W        W10124   1.916   1.460   6.385  0.0207  0.0055  0.0732
10125W        W10125   6.315   3.860   9.279 -0.1866 -0.0646 -0.2654
10126W        W10126   7.021   3.193   5.594 -0.1927 -0.0313 -0.2431
10127W        W10127   7.217   7.937   0.661 -0.3595  0.0168 -0.0408
10128W        W10128   5.765   8.321   3.250  0.0543 -0.1182  0.0675
10129W        W10129   6.757   5.377   8.600  0.0138 -0.1352  0.0995
10130W        W10130   0.294   9.138   4.307 -0.1245 -0.1051 -0.0073
10131W        W10131   4.823   2.217   8.374 -0.0193 -0.1304 -0.1324
10132W        W10132   0.455   2.811   4.632 -0.0996 -0.0632  0.0470
10133W        W10133   7.399   6.085   4.417 -0.2333  0.0258 -0.0116
10134W        W10134   7.477   3.423   6.940 -0.1003  0.1147  0.1738
10135W        W10135   4.303   8.550   6.338 -0.0012 -0.2194  0.1113
10136W        W10136   1.745   7.731   9.624 -0.1602  0.0296 -0.1069
10137W        W10137   4.662   1.518   2.938 -0.0687 -0.2463  0.3336
10138W        W10138   9.305   2.119   2.896  0.0297  0.0478 -0.3197
10139W        W10139   0.653  10.247   6.187 -0.0734 -0.0891  0.0027
10140W        W10140   8.532   1.306   9.633  0.0503 -0.3068 -0.0275
10141W        W10141   9.522   8.247   4.771  0.1934 -0.2091 -0.4894
10142W        W10142   1.848   3.017   3.959 -0.4306 -0.1570 -0.0689
10143W        W10143   6.160   6.996   4.862  0.0878  0.0727 -0.2729
10144W        W10144   3.868   3.128   7.328 -0.0892 -0.1220  0.1523
10145W        W10145   7.741   3.386  10.138  0.3824  0.1455 -0.3020
10146W        W10146   6.689   6.071   5.148  0.1405  0.1258 -0.2247
10147W        W10147   1.915   1.709   1.306  0.0834  0.0408 -0.0587
10148W        W10148   8.429   2.649   9.206 -0.1316 -0.1747  0.0724
10149W        W10149   3.447   4.378   5.048  0.2300  0.1260  0.0375
10150W        W10150   5.417   8.742   5.002  0.0165 -0.1212  0.0279
10151W        W10151   8.027   2.760   0.379 -0.1952  0.2332  0.0466
10152W        W10152   6.304   3.139   1.182 -0.0886 -0.0870 -0.0079
10153W        W10153   4.697   3.054   4.313  0.1056  0.0564 -0.2781
10154W        W10154   0.029   3.028   6.079 -0.0745 -0.1295 -0.1721
10155W        W10155   3.413  10.228   1.991 -0.2446 -0.0931 -0.1084
10156W        W10156   8.129   1.999   4.605  0.1229 -0.0497 -0.2345
10157W        W10157   4.595   2.502   8.721  0.1708 -0.1938  0.0102
10158W        W10158  10.221   4.293   5.261 -0.0489 -0.2255  0.2715
10159W        W10159  10.036   4.015   1.801 -0.2659  0.5721  0.0257
10160W        W10160   3.137   6.468   6.094  0.1662  0.1597 -0.2071
10161W        W10161   4.332   6.112   2.826 -0.1773  0.0975 -0.0836
10162W        W10162   0.601   3.730   5.759  0.0587  0.0633 -0.0921
10163W        W10163   3.912   6.504   0.859  0.0212 -0.3169  0.3047
10164W        W10164   6.072   6.589   5.308 -0.2958 -0.3219  0.1478
10165W        W10165   0.793   6.795   5.597  0.4010 -0.1716 -0.2498
10166W        W10166   7.856   8.331   4.446  0.0865  0.2743  0.1114
10167W        W10167   8.806   4.673   4.925 -0.2251 -0.4401  0.1302
10168W        W10168   5.139   8.038   4.163 -0.1963 -0.1189 -0.1609
10169W        W10169   0.074   6.610   3.916 -0.2154 -0.1310  0.1453
10170W        W10170   1.092   4.829   0.389  0.3451 -0.1262 -0.0736
10171W        W10171   8.840   5.230   4.885 -0.1968  0.0302  0.1736
10172W        W10172   1.170   8.565   4.656 -0.0548  0.0328  0.1458
10173W        W10173  10.058   4.260   5.748 -0.0513 -0.1139  0.3638
10174W        W10174  10.079   0.172   5.619 -0.2221  0.1226 -0.0195
10175W        W10175   9.014   0.752   3.502 -0.0399 -0.1787  0.2274
10176W        W10176   5.142   0.553   6.078  0.3047 -0.1744  0.1531
10177W        W10177   7.569   9.031   5.940 -0.0646  0.2752 -0.0375
10178W        W10178   5.151   2.229   3.148  0.0419  0.1134 -0.4206
10179W        W10179   7.289   9.960   4.370  0.3309 -0.0595  0.0762
10180W        W10180   1.520   4.851   5.828  0.1961  0.3595 -0.2175
10181W        W10181   4.781   6.418   6.793  0.0710 -0.0601 -0.2013
10182W        W10182   0.251   9.454   3.897 -0.3219  0.1353 -0.2868
10183W        W10183   5.865   5.693   8.862  0.3084 -0.1428  0.1141
10184W        W10184   4.154   8.086   3.638 -0.0435  0.0337  0.1423
10185W        W10185   5.321   3.755   0.700 -0.0956 -0.2927  0.1445
10186W        W10186   6.512   0.773   4.129 -0.1316 -0.1572 -0.1028
10187W        W10187   4.415   7.556   6.404 -0.2362  0.0973  0.2670
10188W        W10188   4.544   5.987   7.094 -0.0685  0.0219  0.3509
10189W        W10189   8.930   1.261   2.375  0.2592 -0.0114 -0.1657
10190W        W10190  10.041   8.080   6.374 -0.3501 -0.0876 -0.0021
10191W        W10191   7.042   3.482   1.982 -0.0816 -0.2598  0.0440
10192W        W10192   2.659   0.522   9.694 -0.2014  0.0898 -0.1011
10193W        W10193   6.705   8.753   8.179 -0.0471 -0.0771  0.1622
10194W        W10194   1.293   2.038   5.746  0.2140  0.1274  0.1156
10195W        W10195   5.066  10.229   7.058 -0.0814  0.0207 -0.1787
10196W        W10196   4.114  10.199   7.251 -0.1126 -0.0081 -0.0896
10197W        W10197   5.920   1.068   2.601 -0.0702 -0.0777  0.1186
10198W        W10198   2.226   3.883   0.525  0.0447 -0.0375 -0.0389
10199W        W10199   2.682   1.494   9.102  0.0464 -0.0085 -0.1145
10200W        W10200   6.888   9.369   7.356 -0.3194  0.0790 -0.0397
10201W        W10201   7.550  10.131   3.757  0.0530  0.2209  0.0421
10202W        W10202   4.622   8.950   5.157 -0.3080  0.0124 -0.1936
10203W        W10203   8.410   7.425   4.536 -0.2425  0.2516  0.2361
10204W        W10204   7.044   0.914   4.576  0.2387 -0.3254 -0.2048
10205W        W10205   9.188   0.356   2.199 -0.3334  0.2113 -0.1235
10206W        W10206   0.166   4.238   3.939  0.1836 -0.0773  0.0918
10207W        W10207   9.057   0.974   5.408 -0.4728 -0.2575 -0.2097
10208W        W10208  10.047   9.829   2.180 -0.0889 -0.4854  0.0981
10209W        W10209   2.117   8.723   2.432 -0.1391 -0.0025  0.0254
10210W        W10210   5.177   4.456   3.890  0.4661 -0.0696 -0.0416
10211W        W10211   5.325   9.768   7.213  0.1076  0.3030 -0.1752
10212W        W10212   7.085   7.570   2.449  0.2079  0.0210 -0.0613
10213W        W10213   7.028   1.949   4.781  0.0723  0.1373  0.1554
10214W        W10214   6.382   1.723   8.174 -0.0490  0.2734  0.1954
10215W        W10215  10.022   0.293   5.129  0.2832 -0.1416 -0.1457
10216W        W10216   1.420   6.405   9.750 -0.3618 -0.0407 -0.0823
10217W        W10217   5.817   4.643   2.235 -0.0122 -0.3324 -0.0651
10218W        W10218   2.630   1.562   3.251 -0.2040 -0.0513 -0.1015
10219W        W10219   0.025   3.639   5.108  0.0119  0.0078 -0.2464
10220W        W10220   1.943   2.801   9.049  0.3823 -0.0847 -0.0221
10221W        W10221   3.247   4.762   8.508 -0.1366 -0.0152 -0.1993
10222W        W10222   0.141  10.295   6.413 -0.1263 -0.1973 -0.0513
10223W        W10223   0.080   1.625   4.862 -0.0214  0.0748 -0.1837
10224W        W10224   5.390   3.300   5.922 -0.0937 -0.2107 -0.2608
10225W        W10225   2.466   3.135   0.925 -0.0140 -0.2692 -0.2318
10226W        W10226   2.412   4.605   4.207 -0.1041 -0.1007 -0.0761
10227W        W10227   7.560   8.385   9.594  0.0835 -0.0984  0.2178
10228W        W10228   1.613   5.213   4.006  0.0581  0.1268 -0.1063
10229W        W10229   6.195   7.513   7.318  0.1090  0.2844  0.1886
10230W        W10230   7.563   2.483   2.550  0.3520  0.1452  0.3603
10231W        W10231   3.718   3.446   5.354 -0.1162  0.1496 -0.1757
10232W        W10232   7.017   4.505   1.059  0.0763 -0.0246  0.1989
10233W        W10233   2.101   1.657   5.750 -0.0073  0.1455  0.4797
10234W        W10234   8.440   8.356   9.880 -0.0849 -0.0294  0.0175
10235W        W10235   5.418   1.249   2.282 -0.1387  0.1694  0.0313
10236W        W10236   5.448   1.813   4.510  0.2130 -0.0424 -0.0554
10237W        W10237   1.555   0.358   9.600  0.0877 -0.1805  0.0413
10238W        W10238   1.970   1.933   9.888 -0.3334  0.1057  0.4296
10239W        W10239   2.624   5.760   1.973 -0.3739  0.2917 -0.3278
10240W        W10240   4.034   9.717   6.395 -0.0244 -0.0684  0.1495
10241W        W10241   2.681   4.532   9.656 -0.0043 -0.0476 -0.2608
10242W        W10242   7.504   5.654   5.911 -0.1956 -0.1272  0.0475
10243W        W10243   4.727   5.188   8.035  0.2702 -0.1478  0.2261
10244W        W10244   3.318   1.663   4.219  0.3179 -0.3925  0.2796
10245W        W10245   9.097   8.791   7.505  0.0525 -0.2728 -0.1277
10246W        W10246   3.995   6.184   2.069  0.0315 -0.1835  0.2593
10247W        W10247   0.539  10.309   4.482 -0.0212  0.1157 -0.2729
10248W        W10248  10.057   1.177   5.447 -0.3126 -0.0392  0.0574
10249W        W10249   0.977   5.059   1.605  0.0222  0.1029  0.2861
10250W        W10250   1.651   7.162   9.395 -0.0726  0.1671  0.3709
10251W        W10251   0.588   2.953   7.316 -0.2828 -0.0134  0.2115
10252W        W10252   5.173   1.633   1.396 -0.0879 -0.1672 -0.2564
10253W        W10253   9.008   9.889   2.859 -0.3391 -0.1351 -0.1878
10254W        W10254   0.106   3.801   3.673  0.2015 -0.2362  0.1804
10255W        W10255   1.743   0.209   1.508 -0.1295 -0.0256 -0.2409
10256W        W10256   8.328   4.915   6.276 -0.1492  0.1876  0.2800
10257W        W10257   1.757   7.019   2.657  0.0112  0.2382 -0.0266
10258W        W10258   3.652   5.935   3.754  0.1273  0.1040 -0.1474
10259W        W10259   8.961   3.090   4.254 -0.1176 -0.0691  0.1114
10260W        W10260   1.992   0.664   0.563  0.3670  0.1267  0.1296
10261W        W10261   6.329   7.303   9.521  0.1224 -0.2442  0.2077
10262W        W10262   4.864   7.444   5.478 -0.1519 -0.0612  0.3102
10263W        W10263   9.409   6.903   9.463  0.0956 -0.2188  0.1383
10264W        W10264   7.854   4.017   2.151  0.0324  0.0945 -0.1207
10265W        W10265   7.642   7.293   9.304 -0.1868 -0.1337  0.4435
10266W        W10266   7.120  10.167   4.840 -0.3251 -0.3595 -0.1469
10267W        W10267   7.400   8.431   2.217 -0.1746  0.0104 -0.0924
10268W        W10268   3.007   0.944   4.769  0.1312  0.0261 -0.0535
10269W        W10269   1.250   2.324   4.914  0.1141  0.2880  0.0250
10270W        W10270   5.784   2.349   1.847  0.0430 -0.0429 -0.0522
10271W        W10271   1.078   4.486   5.692  0.0778 -0.1845  0.0944
10272W        W10272   1.845   1.450   9.735 -0.0239 -0.0384 -0.1367
10273W        W10273   3.852   4.051   8.668  0.1529  0.0402  0.1080
10274W        W10274   6.687   6.009   8.695  0.0941  0.0584  0.0571
10275W        W10275   5.772   1.981  10.014  0.3256 -0.0040 -0.4307
10276W        W10276   2.440   0.213   7.058  0.3693  0.1796 -0.1341
10277W        W10277   3.067   8.276   6.441  0.1292  0.0456  0.0368
10278W        W10278  10.206   5.648   8.495 -0.2001  0.2586 -0.0560
10279W        W10279   7.094   0.334   4.669  0.0995 -0.1082  0.1539
10280W        W10280   2.786   2.025   2.983  0.2952  0.0618  0.2010
10281W        W10281   5.752   6.119   0.668  0.1121  0.1412  0.0168
10282W        W10282   7.280   6.619   7.066  0.1700  0.4200  0.0788
10283W        W10283   2.044   5.294   9.223  0.0076 -0.0659 -0.0151
10284W        W10284   4.803   4.587   6.926 -0.0419  0.0731  0.1358
10285W        W10285   6.997   5.749   9.812  0.3901  0.0787  0.1432
10286W        W10286   3.214   1.093   9.174  0.0863  0.1176  0.2341
10287W        W10287   6.846   9.689   3.197  0.0859  0.0187 -0.1267
10288W        W10288   1.763   1.185   1.971  0.4955 -0.2712 -0.1668
10289W        W10289   9.086   4.684   8.400  0.2195 -0.0358 -0.5044
10290W        W10290   8.375   2.875   9.839  0.0249  0.0686 -0.1921
10291W        W10291   0.508   4.720   1.728 -0.1730 -0.1969  0.2500
10292W        W10292   6.598   6.536   4.439 -0.2067 -0.1924  0.0598
10293W        W10293   5.751   1.831   7.113  0.1273  0.1632 -0.1474
10294W        W10294   2.337   8.327   5.337  0.0095 -0.2368  0.0606
10295W        W10295   3.361   3.972   9.534  0.0145 -0.3057  0.0238
10296W        W10296   2.927   4.016   2.512 -0.0270 -0.0544  0.1621
10297W        W10297   3.402   8.980   0.210  0.2622  0.0728  0.0875
10298W        W10298   5.318   0.737   3.816 -0.0778  0.0171 -0.0165
10299W        W10299   2.506   2.636   7.047 -0.0612  0.2184 -0.0960
10300W        W10300   4.001   7.313   8.185 -0.2166  0.1176 -0.0365
10301W        W10301   9.353   1.739   1.846 -0.0031 -0.3664 -0.0228
10302W        W10302   0.542  10.298   0.296 -0.1613 -0.0072 -0.1290
10303W        W10303   2.369   8.059   7.619 -0.0956 -0.1810  0.1235
10304W        W10304   0.336   1.960   7.421  0.0711  0.0401 -0.1681
10305W        W10305   5.645   1.251   8.085 -0.0285 -0.1801 -0.2242
10306W        W10306   3.861   2.443   7.462  0.1746 -0.2302  0.3247
10307W        W10307   7.096   3.606   6.170 -0.3135  0.0410  0.3167
10308W        W10308   6.600   3.237   1.979 -0.0513  0.0457 -0.4092
10309W        W10309   9.477   2.013   5.899  0.3381  0.5044  0.1517
10310W        W10310   8.279   8.308   3.643 -0.1162  0.0071  0.2430
10311W        W10311   3.688   6.046   8.008 -0.0029  0.0357 -0.0323
10312W        W10312   3.801   2.822   3.592 -0.1554  0.2489  0.4213
10313W        W10313   0.776   1.708   0.759  0.2865  0.2821 -0.1732
10314W        W10314   2.499   8.171   4.199  0.1097  0.0672 -0.2165
10315W        W10315   6.772   5.458   8.078  0.1788  0.1541 -0.0472
10316W        W10316   6.487   5.250   9.170  0.1295  0.4195  0.0325
10317W        W10317   0.327   6.154   6.069 -0.0359 -0.0327 -0.0898
10318W        W10318   0.330   6.301   3.564 -0.0692  0.1910 -0.1480
10319W        W10319   6.557   9.331   0.935 -0.5487  0.0920  0.3148
10320W        W10320   5.381   0.003   6.754  0.0131 -0.0850 -0.1805
10321W        W10321   8.053   0.054   7.463 -0.0821  0.0256 -0.4924
10322W        W10322   9.530   4.685   4.645  0.0813 -0.2963 -0.2590
10323W        W10323   4.608   1.322   4.554  0.0500 -0.1268 -0.3384
10324W        W10324   6.126   4.554   2.921 -0.2327 -0.0971  0.1120
10325W        W10325   5.873   7.172   1.461 -0.2519 -0.1627  0.1563
10326W        W10326   5.650   1.678   6.228  0.1948  0.2183  0.2098
10327W        W10327   6.491   1.023   5.872 -0.0696  0.2227  0.3127
10328W        W10328   7.457   5.231   8.679 -0.0916  0.0770 -0.2207
10329W        W10329  10.266   6.351   6.523 -0.0498 -0.2735 -0.0411
10330W        W10330   9.574   2.983   7.233  0.3234  0.1751 -0.0577
10331W        W10331   7.729   9.631   2.631 -0.0628 -0.1290  0.1115
10332W        W10332   5.440   0.783   6.433  0.3454  0.0852  0.0233
10333W        W10333   9.814   4.997   8.417  0.0818 -0.1613 -0.1618
10334W        W10334   9.085   9.949   8.396  0.0651 -0.1842  0.0293
10335W        W10335   3.557   0.634   5.959 -0.1045  0.3444  0.0792
10336W        W10336   0.781   5.063   3.044  0.0901  0.0278 -0.1430
10337W        W10337   2.148   7.337   4.320 -0.0699  0.2084  0.2385
10338W        W10338   9.430   2.617   8.679 -0.1059  0.1082 -0.2104
10339W        W10339   9.485   9.383   9.684  0.1577  0.2176  0.0871
10340W        W10340   9.214   7.528   6.449 -0.0906  0.0442 -0.0958
10341W        W10341   8.211   4.794   8.577 -0.2555  0.1199  0.0139
10342W        W10342   5.634   4.404   3.116 -0.1157  0.1301 -0.0886
10343W        W10343   7.137   9.745   6.564  0.2982  0.3741  0.1409
10344W        W10344   2.224   6.596   0.985  0.0699  0.1914  0.0514
10345W        W10345   9.476   7.421   4.686  0.0137  0.3679 -0.2980
10346W        W10346   3.340   3.031   0.754  0.1752 -0.0100 -0.2878
10347W        W10347   6.189   1.921   7.672 -0.0362 -0.0473 -0.3805
10348W        W10348   8.361  10.325   3.314 -0.1521  0.3253 -0.4015
10349W        W10349   0.022   1.195   0.154  0.0220  0.2818 -0.1522
10350W        W10350   4.048   3.855   0.223  0.0530 -0.0199  0.0197
10351W        W10351   8.728   3.459   4.759 -0.2027  0.0570  0.3093
10352W        W10352   4.696   3.895   6.358 -0.1051  0.1706 -0.1909
10353W        W10353   2.728   7.227   5.131 -0.2948 -0.0895  0.2990
10354W        W10354   4.914   1.710   3.991 -0.1202 -0.0164 -0.2197
10355W        W10355   6.767   5.704   6.078  0.2855 -0.0303 -0.2874
10356W        W10356   0.622   5.749   0.365 -0.0442  0.2283  0.2515
10357W        W10357   2.075   2.502   6.203 -0.2222  0.1726  0.0262
10358W        W10358   1.237   1.065   2.205  0.0636 -0.1098  0.1271
10359W        W10359   4.933   0.940   9.507 -0.4588  0.1833  0.0745
10360W        W10360   8.092   3.198   3.722  0.1316 -0.0249 -0.1258
10361W        W10361   0.757   4.466   8.846  0.1919 -0.0455  0.2067
10362W        W10362   2.735   3.878   6.584  0.1749 -0.2525  0.1763
10363W        W10363   1.705   8.034   2.257  0.0072 -0.1597  0.2628
10364W        W10364   8.446   6.489   4.238  0.0395  0.0752  0.1234
10365W        W10365   7.164   9.230   3.041 -0.2011 -0.0083  0.1552
10366W        W10366   6.819   8.712   6.144 -0.0424 -0.4742 -0.2930
10367W        W10367   8.069   2.034   8.341 -0.0138  0.1595  0.0443
10368W        W10368  10.222   2.924   6.548  0.1052  0.2769 -0.0138
10369W        W10369   0.579   9.330   3.546  0.2906 -0.1725  0.0874
10370W        W10370   3.985   4.337   5.466 -0.2189 -0.3266  0.1314
10371W        W10371  10.322   8.950   0.740 -0.0825  0.0884 -0.0878
10372W        W10372  10.197   0.748   7.437  0.1068 -0.1440 -0.2266
10373W        W10373   9.320   3.630   3.797 -0.2108  0.0476  0.0520
10374W        W10374   6.121   8.963   1.199  0.3925  0.2651 -0.0762
10375W        W10375   5.494   4.449   9.802 -0.1391  0.2018  0.3918
10376W        W10376   9.919   5.445   7.297  0.3400  0.1741  0.3910
10377W        W10377   9.357  10.207   7.516 -0.0531 -0.1391 -0.5137
10378W        W10378   1.935   5.819   7.792  0.0604  0.0894  0.0655
10379W        W10379   6.079   1.529   3.459  0.0472 -0.1223  0.1716
10380W        W10380   7.684   6.590   6.729 -0.0420 -0.0837 -0.1274
10381W        W10381   3.426   5.301   4.414  0.1498  0.2251 -0.0110
10382W        W10382   8.682   0.679   6.318 -0.1072 -0.0913  0.0984
10383W        W10383   3.686   7.753   7.355 -0.1127 -0.2530 -0.0338
10384W        W10384   4.819   3.933   5.817  0.2593  0.2206  0.1098
10385W        W10385   8.745   9.386   9.207 -0.0507  0.0349 -0.1915
10386W        W10386   4.627   0.729   7.491  0.2552  0.0241 -0.0615
10387W        W10387   4.111   2.924   6.472  0.3440 -0.0195  0.0401
10388W        W10388   8.847   4.245   8.359  0.3314  0.0420 -0.0354
10389W        W10389   7.373   2.537   4.434  0.1656 -0.1184  0.0043
10390W        W10390   2.368   5.630   9.017  0.1040  0.0712 -0.2547
10391W        W10391   0.662   4.219   5.475  0.1348  0.2422  0.0742
10392W        W10392   8.923   6.672   0.395  0.3730 -0.0344 -0.1887
10393W        W10393   9.009   4.755   7.838  0.0617 -0.0458 -0.1097
10394W        W10394   7.912   5.577   9.022 -0.0100  0.0947  0.0096
10395W        W10395   0.568  10.183   4.986 -0.1359 -0.0362  0.2045
10396W        W10396   7.840   9.935   0.402 -0.3439 -0.1143  0.2729
10397W        W10397   2.883   0.912   7.868  0.0051 -0.0057 -0.0431
10398W        W10398   3.126   0.593   4.357  0.0427 -0.0660  0.0080
10399W        W10399   4.926   4.237   0.488 -0.0973 -0.1233 -0.1559
10400W        W10400   5.246   8.906   9.829 -0.0940  0.0174  0.3297
10401W        W10401   6.963   0.649   2.167 -0.1825  0.1038  0.0433
10402W        W10402   6.210   4.333   8.059 -0.0128  0.3579 -0.0176
10403W        W10403   9.288   1.275   0.002  0.1962 -0.1926  0.1928
10404W        W10404  10.198   4.715   8.136 -0.2489  0.2317 -0.3965
10405W        W10405   3.913   7.675   6.452 -0.1608  0.1719  0.0061
10406W        W10406   1.084   5.615   2.689  0.0744 -0.0028  0.0965
10407W        W10407   6.954   6.264   1.796  0.3744 -0.0676 -0.0706
10408W        W10408   0.458   1.384   7.865 -0.0043  0.3141 -0.0010
10409W        W10409   1.009   1.421   0.353 -0.0584  0.2005 -0.0116
10410W        W10410   5.396   8.571   7.247 -0.3155  0.2719  0.4165
10411W        W10411   4.183   2.135  10.106  0.0803 -0.0726 -0.0509
10412W        W10412   4.238   6.860   6.619 -0.1143 -0.1008  0.2127
10413W        W10413   3.897   1.539   6.256 -0.4350  0.0015  0.0763
10414W        W10414   6.543   6.470   9.343 -0.0473 -0.0206  0.0460
10415W        W10415   6.934   4.000   3.785 -0.1703  0.0900  0.0654
10416W        W10416   4.448   1.831   6.449  0.1810 -0.1013  0.1968
10417W        W10417   8.085   9.073   1.561  0.1594 -0.0439  0.0107
10418W        W10418   8.140   4.890   7.577 -0.1628  0.2272  0.1674
10419W        W10419   1.101   3.114   5.454  0.2633  0.2048  0.1210
10420W        W10420   1.723   6.780   8.065 -0.2313  0.0309 -0.0437
10421W        W10421   2.520   6.127   0.691  0.0287  0.1140 -0.0438
10422W        W10422   8.658   5.053   5.405 -0.0086  0.3282 -0.0419
10423W        W10423   1.733   9.336   9.641  0.1908 -0.0381  0.2712
10424W        W10424   2.929   1.614   4.573  0.2149 -0.0458  0.1296
10425W        W10425   7.467   1.035   8.843 -0.3337 -0.1224 -0.2574
10426W        W10426   4.575   6.586   2.986  0.0465  0.1397 -0.1653
10427W        W10427   7.250   9.294   3.517 -0.2923  0.0736  0.1487
10428W        W10428   3.614   0.294   2.471  0.2011  0.0268  0.0280
10429W        W10429   7.142   2.642   6.226 -0.0891  0.0884 -0.3003
10430W        W10430   9.312   8.330   2.839 -0.1723 -0.0604  0.2775
10431W        W10431   8.014   4.050   9.936  0.3681 -0.3701  0.3011
10432W        W10432   9.709   5.337   7.713 -0.2101  0.0675  0.1636
10433W        W10433   1.061   6.473   4.234 -0.0780  0.0774 -0.3488
10434W        W10434  10.242   8.554   8.772 -0.4626 -0.3766 -0.1678
10435W        W10435   5.949   1.620   6.712  0.0512 -0.1120  0.0658
10436W        W10436   0.747   4.234   8.420  0.0401 -0.1386 -0.1622
10437W        W10437   0.649   3.942   7.986 -0.1238 -0.3366 -0.2990
10438W        W10438   6.610   2.579   8.243  0.0744  0.0393 -0.0809
10439W        W10439   8.647   4.481   0.224  0.0891 -0.3907 -0.1080
10440W        W10440  10.056   3.456   6.286  0.0564 -0.0424  0.1924
10441W        W10441   9.343   9.096   2.402 -0.0933  0.2562 -0.0964
10442W        W10442   2.998   5.721   1.436  0.2630  0.1484 -0.0324
10443W        W10443   4.032   4.811   7.364  0.3174 -0.0984  0.3730
10444W        W10444   0.295   9.328   0.955  0.2721 -0.1408 -0.1592
10445W        W10445   6.361   7.363   6.481 -0.2002 -0.1219  0.0609
10446W        W10446   2.646   4.042   4.389  0.0476  0.2560 -0.0548
10447W        W10447   9.360   5.131   4.889  0.4646  0.2113 -0.3486
10448W        W10448   8.050   1.316   0.575 -0.0296 -0.2902  0.3615
10449W        W10449   3.364   7.357   6.119 -0.0590 -0.0291  0.0934
10450W        W10450   6.913   3.661   9.625 -0.2664  0.0128  0.1856
10451W        W10451   2.300   4.207   9.730  0.2182 -0.0021 -0.3447
10452W        W10452   8.414   9.985   7.556  0.0362  0.1553 -0.0477
10453W        W10453   7.231   0.886   6.510 -0.0319  0.1666 -0.0215
10454W        W10454   4.755   4.072   0.012 -0.3217  0.2180 -0.0838
10455W        W10455   3.096   8.747   4.762 -0.0794 -0.0382  0.0035
10456W        W10456   8.253   4.377   1.559  0.1469  0.0917 -0.3134
10457W        W10457   5.379   4.244   4.873  0.2013 -0.1157 -0.1891
10458W        W10458   4.083   6.138   3.809 -0.6797 -0.0892 -0.0191
10459W        W10459   7.483   8.216   6.239  0.4180 -0.0599  0.1756
10460W        W10460   1.419   9.865   2.917 -0.2324 -0.2587  0.1232
10461W        W10461   8.784   0.462   1.752 -0.0740  0.1757 -0.2555
10462W        W10462   1.170   3.451   3.645  0.2962 -0.1184 -0.0697
10463W        W10463   3.990   1.569   0.078  0.1946  0.2768 -0.0206
10464W        W10464   0.007   0.735   3.343 -0.0450 -0.2555  0.1176
10465W        W10465   8.166   5.029   5.603  0.3898 -0.3743 -0.0735
10466W        W10466   5.435   3.828   1.236  0.0170  0.0103 -0.0241
10467W        W10467   8.481   2.022   0.157 -0.3743 -0.2665  0.0037
10468W        W10468  10.046   6.878   3.467 -0.1691 -0.1116 -0.2666
10469W        W10469   0.924   2.549   1.156  0.1775  0.2830 -0.0860
10470W        W10470   8.027   8.280   5.827  0.0243 -0.2949  0.0744
10471W        W10471   4.102   2.115   2.470  0.0329 -0.0872 -0.2774
10472W        W10472   9.352  10.280   4.812 -0.0684  0.0217 -0.1446
10473W        W10473   3.627   8.636   4.697  0.3276 -0.1386  0.2028
10474W        W10474   5.655   9.422   3.900  0.1076  0.0343  0.2039
10475W        W10475   8.145   8.280   6.713  0.1460 -0.1450 -0.4134
10476W        W10476  10.212   1.707   2.696  0.2369  0.2187  0.1555
10477W        W10477   3.796   6.662   8.397  0.1116 -0.1599 -0.1442
10478W        W10478   7.169   2.695   0.876 -0.2756 -0.0305  0.3577
10479W        W10479   8.555   6.421   9.617 -0.0530  0.3960 -0.1859
10480W        W10480   6.588   5.879   1.620  0.2164 -0.1746 -0.1323
10481W        W10481   1.927   0.104   1.959  0.0939  0.1998  0.1167
10482W        W10482   1.382   9.079   0.992  0.0018  0.0314  0.3027
10483W        W10483   6.223   3.395   1.620 -0.2185 -0.3747  0.2103
10484W        W10484   2.953   3.514   1.009  0.2268  0.0499 -0.1141
10485W        W10485   4.352   5.293   8.399 -0.0862 -0.2552 -0.0970
10486W        W10486   5.270   1.269   6.424  0.1941 -0.0698 -0.2810
10487W        W10487   3.156   5.688   6.608  0.3351 -0.1965 -0.0650
10488W        W10488   1.458   1.054   3.187 -0.2698  0.2741 -0.2025
10489W        W10489   8.586   3.342   6.726 -0.4443  0.0357  0.0375
10490W        W10490   2.457   5.060   4.628 -0.1329  0.1420  0.0434
10491W        W10491   4.549   0.702   5.910  0.1357  0.0787  0.0383
10492W        W10492   8.767   9.854   5.922  0.0516 -0.1020 -0.1309
10493W        W10493   1.472  10.263   0.694  0.4132  0.1761  0.1738
10494W        W10494   6.839   6.846   7.518 -0.0801  0.3275  0.0207
10495W        W10495   4.878   4.052   1.391  0.1818 -0.1790  0.4037
10496W        W10496   9.419  10.255   8.078 -0.0384  0.0600  0.0762
10497W        W10497   6.501   5.878  10.318  0.0900 -0.0531 -0.2181
10498W        W10498   6.346   7.487   1.370 -0.1064 -0.1077  0.0074
10499W        W10499   7.112   3.876   1.594  0.1100  0.1030 -0.2293
10500W        W10500   3.174  10.076   5.885  0.0011 -0.1554  0.2965
10501W        W10501   6.429   3.857   7.932  0.1170  0.0089  0.2243
10502W        W10502   4.402   8.106   8.155 -0.1925 -0.2876 -0.1781
10503W        W10503   7.905   4.898   3.728  0.0394 -0.1609  0.1887
10504W        W10504   6.341   2.872   2.897 -0.3588  0.0019  0.3569
10505W        W10505   1.113   0.706   2.487  0.0273  0.3576 -0.2053
10506W        W10506   2.537   1.009   7.544  0.4524 -0.0104 -0.0850
10507W        W10507   4.034   6.924   2.902 -0.2244  0.2238  0.0762
10508W        W10508   2.557   8.575   2.241  0.1471  0.2369 -0.2709
10509W        W10509   5.924   3.045   8.979  0.3953 -0.1117  0.3787
10510W        W10510   4.976   6.322   2.186 -0.0062 -0.0796 -0.0145
10511W        W10511   8.581   9.293   8.692  0.1048  0.0115 -0.0954
10512W        W10512   5.226   2.418   0.101 -0.3043 -0.2055  0.0455
10513W        W10513  10.112   3.026   7.018  0.1646  0.2070 -0.0114
10514W        W10514   6.057   0.662   2.895  0.2940  0.3829  0.0152
10515W        W10515   5.557   5.037   9.068 -0.2263 -0.2915 -0.0473
10516W        W10516   6.572   2.106   8.497  0.1333 -0.2019  0.0133
10517W        W10517   1.377   0.284   6.513  0.5447 -0.1709  0.0600
10518W        W10518   3.318   9.124   9.712  0.0625 -0.1545  0.2129
10519W        W10519   6.762   6.646   6.202 -0.0198  0.1787  0.3468
10520W        W10520   9.175   2.011   9.286 -0.0697  0.2690 -0.4446
10521W        W10521   6.280   5.339   0.082 -0.1040 -0.0593 -0.1267
10522W        W10522   1.280   7.959   7.309 -0.1045  0.1287  0.2045
10523W        W10523   5.824   0.710   8.969 -0.0603 -0.0055 -0.0348
10524W        W10524   6.269   9.720   6.227  0.0428 -0.3111 -0.1351
10525W        W10525   6.221  10.290   5.310  0.1809 -0.0508  0.1212
10526W        W10526   0.897   1.913  10.204 -0.1082  0.2220 -0.2876
10527W        W10527   9.951   1.066   3.974  0.3077 -0.0104  0.0941
10528W        W10528   9.369   8.667   8.428 -0.0992 -0.0166  0.0888
10529W        W10529   7.941   7.525   6.197 -0.2275  0.0752 -0.2157
10530W        W10530   7.068   2.262   2.225 -0.0485 -0.5484  0.3015
10531W        W10531   0.106   1.838   9.210 -0.0170 -0.1249  0.1225
10532W        W10532   8.932   4.266   7.845 -0.1218  0.2325 -0.1474
10533W        W10533  10.193   1.162   9.148  0.0064 -0.0562  0.1368
10534W        W10534   5.216   9.432   3.607 -0.1300  0.0436  0.0560
10535W        W10535   0.215   4.809   4.480 -0.0766 -0.1040  0.3314
10536W        W10536   0.614   2.115   3.447 -0.2183  0.0536  0.1025
10537W        W10537   4.570   4.961   5.583  0.1058  0.2940 -0.2418
10538W        W10538   3.257   4.757   8.004  0.2839  0.0598 -0.1378
10539W        W10539   4.158   7.886   2.553  0.1404 -0.1555  0.0142
10540W        W10540   9.696   4.340   3.166  0.0007  0.0680 -0.1138
10541W        W10541   0.970   9.147   8.021  0.0935  0.0241 -0.0187
10542W        W10542   8.944   9.567   9.663 -0.2390 -0.2758 -0.1994
10543W        W10543   8.050   1.360  10.220 -0.1203  0.2444  0.2350
10544W        W10544   1.303   1.916   0.188 -0.0734 -0.0001 -0.2160
10545W        W10545   7.297   2.742   2.179 -0.1478  0.0079  0.0827
10546W        W10546   8.233   8.587   0.420 -0.0002  0.1157 -0.1650
10547W        W10547   3.871   7.560   0.137 -0.0153 -0.0935  0.0512
10548W        W10548   4.717   2.574   2.019 -0.0758 -0.2369  0.1389
10549W        W10549   6.944   6.597   3.443 -0.2775  0.3782  0.1651
10550W        W10550  10.240   8.796   4.181 -0.2321  0.0562 -0.0884
10551W        W10551   3.548   6.379   1.632  0.1055  0.2990  0.2047
10552W        W10552   8.450   3.779   8.518  0.2177  0.0006 -0.0735
10553W        W10553   9.471   1.841   4.462  0.0248 -0.0326 -0.2895
10554W        W10554   4.888   2.282   3.545 -0.3815  0.1199 -0.0327
10555W        W10555   8.079   9.406   0.267 -0.1800 -0.0711 -0.1600
10556W        W10556   9.148   1.286   5.831  0.2578 -0.0886 -0.1555
10557W        W10557   6.427   2.972   0.330 -0.0169  0.4026 -0.1313
10558W        W10558   8.910   2.215   9.681 -0.0636  0.2147 -0.0607
10559W        W10559   5.247   7.022   0.969  0.3362  0.0021 -0.3064
10560W        W10560   0.419   2.795   5.888 -0.0692  0.0287 -0.1312
10561W        W10561   1.787   1.349   3.503  0.1039 -0.0724  0.4260
10562W        W10562   9.290   3.925   2.994  0.1883 -0.0306  0.0060
10563W        W10563   2.427   9.002   3.259  0.2659 -0.1336 -0.0527
10564W        W10564   3.290   1.720   1.186  0.1169  0.1213  0.0210
10565W        W10565   2.324   6.993   5.850  0.0122  0.2280  0.1401
10566W        W10566   7.060   5.863   7.863  0.1679 -0.2031  0.1417
10567W        W10567   6.378   9.147   8.265 -0.3046  0.3001  0.0278
10568W        W10568  10.199   9.872   9.849 -0.1778 -0.1629  0.1416
10569W        W10569   8.250   1.667   4.914  0.1203  0.2675 -0.1771
10570W        W10570   8.613   9.263   8.132 -0.0218  0.2679 -0.0221
10571W        W10571   9.070  10.191   6.275 -0.3613  0.6010  0.3203
10572W        W10572   7.825   3.637   3.820  0.1300 -0.3351 -0.0360
10573W        W10573   4.397  10.164   3.177 -0.0134 -0.0713 -0.1928
10574W        W10574   4.345   7.508   0.916  0.2002  0.2559 -0.0912
10575W        W10575   3.868   4.321   4.150 -0.0043  0.1470  0.0910
10576W        W10576   8.508   2.845   2.668 -0.0027 -0.3650  0.0219
10577W        W10577   5.884   9.235   7.540  0.2336 -0.0469  0.0532
10578W        W10578   1.458   9.103   6.023  0.0322  0.2151  0.2625
10579W        W10579   1.005  10.193   2.473  0.0655  0.0328 -0.0812
10580W        W10580   2.654   7.735   9.177 -0.2103  0.1769  0.5449
10581W        W10581   8.129   6.821   5.989 -0.1760 -0.0274  0.0194
10582W        W10582   0.984   4.010   5.837 -0.4537 -0.1511  0.0338
10583W        W10583   2.302   5.510   4.008 -0.0627  0.0648 -0.1658
10584W        W10584   4.990   1.826   7.025 -0.1016 -0.0003  0.2359
10585W        W10585   0.028   9.402   5.983 -0.0980  0.1796 -0.0361
10586W        W10586   4.808   0.646   6.529 -0.0971  0.2508 -0.2488
10587W        W10587   0.352   4.286   9.149 -0.1605  0.3103  0.0901
10588W        W10588   8.870   8.258   1.485 -0.1244 -0.1928  0.2403
10589W        W10589  10.179   3.438   2.712 -0.3733  0.1409  0.2007
10590W        W10590   9.212   1.494   3.496  0.0768  0.2347 -0.4475
10591W        W10591   0.459   3.294   8.887  0.0917 -0.1007 -0.0268
10592W        W10592   5.939   6.656   2.012  0.0823 -0.0101 -0.0866
10593W        W10593   0.927   8.139   7.709  0.1377 -0.0427  0.0617
10594W        W10594   3.042   3.379   7.542  0.1700  0.0093  0.0976
10595W        W10595   7.651   9.611   8.540  0.0884 -0.0162 -0.0164
10596W        W10596   0.349   8.324   9.729 -0.2840 -0.0385  0.3545
10597W        W10597   9.645   2.421   7.087  0.0407 -0.0297  0.2632
10598W        W10598   3.558   8.871   9.205 -0.4121 -0.2550  0.1136
10599W        W10599   7.644   8.619   0.006 -0.0164 -0.0091 -0.1231
10600W        W10600   6.625   3.567   0.785 -0.0081  0.0630 -0.0642
10601W        W10601   2.815   7.548   6.158 -0.1589  0.2396 -0.2164
10602W        W10602   3.609   9.945   2.385 -0.2527  0.2347  0.3541
10603W        W10603   0.558   7.608   2.847  0.0544 -0.2605  0.1916
10604W        W10604   6.889   1.956   5.822 -0.0228 -0.0578 -0.2016
10605W        W10605   9.504   9.260   8.543 -0.4258  0.1001 -0.3068
10606W        W10606   6.617   3.000   9.502  0.3074  0.0336 -0.0241
10607W        W10607   3.832   4.379   5.941 -0.3109 -0.3640  0.0440
10608W        W10608   9.094   8.085   3.455 -0.2451  0.0554  0.0227
10609W        W10609   9.867   7.632   1.860  0.0704  0.1796 -0.0126
10610W        W10610   9.157   9.334   4.915  0.0914  0.1449  0.2192
10611W        W10611   2.792   0.917   9.357  0.2704  0.0690 -0.0323
10612W        W10612   2.668   8.556   3.237  0.1369  0.0709  0.4213
10613W        W10613   8.894   8.031   1.948 -0.0773 -0.0850 -0.1135
10614W        W10614   0.964   1.377   4.883 -0.1173  0.2120  0.0032
10615W        W10615   3.309   4.272   0.234 -0.1784  0.0758 -0.2131
10616W        W10616   7.407   7.332   9.860 -0.2253  0.0889 -0.2205
10617W        W10617   5.386   0.874   9.823 -0.0521  0.1078 -0.0609
10618W        W10618   6.264   0.545   5.710 -0.1541 -0.0427 -0.1830
10619W        W10619   9.184   3.365  10.105  0.2724  0.0814  0.1719
10620W        W10620   1.625   2.714   1.743 -0.1685 -0.0770  0.0740
10621W        W10621   1.818   8.224   1.694  0.0548  0.1083  0.0639
10622W        W10622   3.372   2.229   1.193  0.2958 -0.1118 -0.1184
10623W        W10623   4.401   3.558   3.142 -0.1648 -0.2407  0.2567
10624W        W10624   3.768   6.504   9.247 -0.0506 -0.0788 -0.0459
10625W        W10625   6.555   6.721   8.104  0.0289 -0.2305 -0.0882
10626W        W10626   5.399   5.225   2.785 -0.0057 -0.0950 -0.1123
10627W        W10627   1.271   6.449   2.952  0.0428 -0.1432 -0.1347
10628W        W10628   7.451   6.491   4.658 -0.1414 -0.2038  0.0305
10629W        W10629   7.194   2.034   4.299  0.0578  0.0002  0.0443
10630W        W10630  10.089   6.236   2.765 -0.1516 -0.2249  0.1307
10631W        W10631   3.171   3.697   7.944 -0.0053 -0.1053  0.2036
10632W        W10632   7.459   4.587   7.394  0.0965  0.1520  0.1490
10633W        W10633   2.308   9.862   1.023 -0.0755  0.0485  0.1290
10634W        W10634   3.775   8.726   6.411 -0.1476  0.1466 -0.4460
10635W        W10635   8.809   7.120   3.367 -0.1273 -0.0295 -0.1043
10636W        W10636   5.026   2.710   5.508 -0.1387 -0.1832 -0.2313
10637W        W10637   7.668   3.532   9.173 -0.1763  0.1553  0.2421
10638W        W10638   3.314   7.701   1.500 -0.0376  0.0722 -0.0780
10639W        W10639   8.162   0.421   8.904  0.0156  0.0583  0.0195
10640W        W10640   8.936   8.344   2.366  0.1425  0.3164  0.0412
10641W        W10641   0.863   6.741   1.040  0.2898 -0.3811 -0.0699
10642W        W10642   6.248   2.893   6.699 -0.1546 -0.0331 -0.3678
10643W        W10643   6.297   2.186   8.088  0.1352  0.1197 -0.1337
10644W        W10644   4.359   3.419   0.456 -0.0834  0.0536  0.0131
10645W        W10645   2.730   6.349   7.282  0.2280 -0.0720  0.0493
10646W        W10646   3.774   4.033   3.739 -0.2097  0.1046  0.1453
10647W        W10647   3.489   0.489   3.948 -0.0022 -0.0973 -0.0734
10648W        W10648   3.336   7.963   0.456 -0.0672  0.0630  0.1530
10649W        W10649   9.428   4.023   3.437 -0.0622 -0.0320  0.0844
10650W        W10650   5.494   7.903   0.500  0.2116  0.0617 -0.0315
10651W        W10651   3.259   0.466   7.345 -0.1228 -0.3407  0.0805
10652W        W10652   3.104   9.319   2.695 -0.0259  0.1558 -0.2194
10653W        W10653   5.805   1.324   2.003  0.0993  0.3560  0.0765
10654W        W10654   7.953   5.279   0.939  0.1510 -0.1388  0.2228
10655W        W10655   1.689   7.747   7.001 -0.2468  0.0433 -0.0509
10656W        W10656   0.547   6.622   9.366  0.1341 -0.1805  0.1013
10657W        W10657   8.456   1.474   6.999  0.1660  0.1620  0.0825
10658W        W10658   2.334   5.322   2.663 -0.0616  0.3695 -0.0996
10659W        W10659   7.879   8.946   0.510  0.0938  0.0375 -0.1498
10660W        W10660   7.221   4.180   7.657  0.1836  0.0921 -0.1208
10661W        W10661   5.419   4.569   1.940 -0.0374  0.0882  0.3357
10662W        W10662   8.530   4.723   5.769  0.1726 -0.1783 -0.2148
10663W        W10663   7.927   2.931   2.773 -0.1562 -0.0483  0.0769
10664W        W10664   3.199   0.586   2.493 -0.1059 -0.0240  0.0405
10665W        W10665   5.356   6.227   9.665  0.1019 -0.1179 -0.1486
10666W        W10666   9.717   8.845   4.145  0.1077 -0.0464 -0.3218
10667W        W10667   3.400   1.662   6.467  0.1676 -0.0907 -0.1702
10668W        W10668   2.040   9.053   6.027 -0.0874  0.0129  0.0159
10669W        W10669   9.317   1.145   2.748 -0.1674 -0.1504 -0.0634
10670W        W10670   5.389   6.831   4.996 -0.0697 -0.1070 -0.0702
10671W        W10671   2.085   6.428   8.510 -0.0113  0.0157  0.1578
10672W        W10672   9.175   7.922  10.042 -0.3043 -0.1927  0.4603
10673W        W10673   0.209   3.750   0.983  0.1971 -0.0301 -0.0230
10674W        W10674   1.022   4.068   2.040 -0.1352 -0.2649  0.0181
10675W        W10675   3.522   6.880   1.771 -0.1261 -0.2105 -0.2660
10676W        W10676   5.907   8.100   0.844  0.2789  0.1531 -0.1680
10677W        W10677   9.399   8.472   4.307 -0.2679 -0.0854 -0.1945
10678W        W10678  10.327   4.118   9.790 -0.1056 -0.2825 -0.0482
10679W        W10679   2.694   7.310   9.435 -0.2174  0.0791 -0.3470
10680W        W10680   6.488   2.677   4.791 -0.2436 -0.3429 -0.3486
10681W        W10681   5.997   5.520   7.588 -0.1122  0.3274 -0.1050
10682W        W10682   2.332   2.902   8.731 -0.1870  0.0650 -0.0157
10683W        W10683   5.040   0.214   6.471  0.0013  0.2453  0.0074
10684W        W10684   9.434   4.906   5.826 -0.1761  0.0380  0.2030
10685W        W10685   3.763   3.758   1.613  0.3975  0.0101  0.1353
10686W        W10686   0.759   0.521   4.212 -0.3793 -0.0877 -0.1844
10687W        W10687   7.704   7.418   8.442  0.1510 -0.2867 -0.1391
10688W        W10688   3.842   7.842   5.391  0.4119 -0.2212  0.1127
10689W        W10689   5.839   6.189   1.701  0.3423  0.0861 -0.0704
10690W        W10690   8.301   9.096   2.231  0.0767 -0.0622  0.1247
10691W        W10691   0.169   3.431   2.253  0.2256 -0.0368 -0.4329
10692W        W10692   8.812   6.485   6.583 -0.3403  0.4759 -0.1880
10693W        W10693   4.307   7.509   3.405  0.1147  0.0069  0.0472
10694W        W10694   8.339   6.250   4.800  0.1999 -0.1618 -0.3359
10695W        W10695   2.992   1.725   6.152 -0.1005 -0.2178 -0.0856
10696W        W10696   8.476   3.384   7.238 -0.0350 -0.0932  0.3350
10697W        W10697   6.368   1.882   6.964 -0.2303  0.1932 -0.1537
10698W        W10698   0.944   8.871   9.716 -0.2302  0.1443  0.0558
10699W        W10699   6.736   5.294   3.243 -0.2990  0.0743 -0.0639
10700W        W10700   2.925   1.380   5.748 -0.1105  0.1528  0.1381
10701W        W10701   2.965   4.963   8.898 -0.0505 -0.3867 -0.1023
10702W        W10702   2.406   9.113   0.127 -0.0893  0.1185 -0.1905
10703W        W10703  10.203   9.018   9.602  0.0134 -0.0998  0.1745
10704W        W10704   4.103   2.358   8.388 -0.0143  0.0929  0.2832
10705W        W10705   0.244   0.706   0.342  0.0152 -0.2034  0.1040
10706W        W10706   1.540   4.468   7.874  0.2137 -0.0694 -0.1527
10707W        W10707   4.631   7.731   5.957  0.2814 -0.0123 -0.2590
10708W        W10708   9.948   2.463   1.145  0.1961 -0.1660 -0.1179
10709W        W10709   7.430   9.806   9.955 -0.1047 -0.0777 -0.1857
10710W        W10710   3.944   4.918   6.921  0.1774 -0.1392  0.1563
10711W        W10711   7.783   6.183   0.636 -0.1114 -0.0899 -0.0631
10712W        W10712   8.020   4.991   9.926  0.0545  0.2612 -0.1966
10713W        W10713   3.987   6.118   8.427  0.0471  0.0556 -0.0481
10714W        W10714   2.063   5.012   8.363  0.1259 -0.1305  0.1744
10715W        W10715   4.864   7.424   7.960 -0.2041 -0.1397  0.1724
10716W        W10716   2.316   4.240   2.505 -0.0507  0.0594 -0.1432
10717W        W10717   7.921   6.423   8.802  0.0661 -0.0506 -0.2304
10718W        W10718   4.483   6.772   1.643  0.1191  0.1279  0.1268
10719W        W10719   4.885   6.432   5.553  0.0968  0.1341  0.0688
10720W        W10720   5.176   1.788   3.583  0.0576 -0.2309 -0.0100
10721W        W10721   2.865   2.977   3.442  0.0132  0.1344  0.1739
10722W        W10722   6.183   6.522   3.283  0.0873 -0.1581  0.0190
10723W        W10723   9.213   6.851  10.225  0.0451  0.1515 -0.2238
10724W        W10724   7.134   8.870   4.700  0.2797 -0.0163 -0.3319
10725W        W10725   6.667   2.479   7.058  0.1586 -0.3234  0.2241
10726W        W10726   4.431   4.447   0.583 -0.0381 -0.0093 -0.0719
10727W        W10727   6.514   9.302   0.345 -0.1058 -0.0726 -0.0140
10728W        W10728   6.603   2.795   5.541 -0.1406 -0.1524 -0.0559
10729W        W10729   3.599   6.442   3.592  0.3189 -0.1115  0.0892
10730W        W10730   1.437   8.939   5.011 -0.1010 -0.1188  0.1337
10731W        W10731   1.864   9.854   6.660 -0.3027  0.1971  0.2081
10732W        W10732   0.518   7.364   8.470  0.0928 -0.2177  0.1205
10733W        W10733   0.197   7.909   1.717 -0.0755  0.1446 -0.3748
10734W        W10734   9.159   5.722   6.071 -0.1135  0.0868 -0.0062
10735W        W10735   1.096   2.760   2.592 -0.0510 -0.0943 -0.1816
10736W        W10736  10.151   7.222   3.056 -0.0281  0.1439 -0.1315
10737W        W10737   8.127   9.351   0.763  0.0131  0.0062 -0.1809
10738W        W10738   9.693   8.643   0.727 -0.0177 -0.0177  0.1990
10739W        W10739   6.609   2.224   4.719 -0.0962 -0.0016 -0.1822
10740W        W10740   6.660   9.223   2.318  0.2277 -0.3682 -0.1647
10741W        W10741   7.115   0.161   5.755  0.0435  0.1562 -0.1433
10742W        W10742  10.139   7.232   9.247  0.0898 -0.1586  0.1412
10743W        W10743   6.744   5.445   2.686 -0.0330  0.0942  0.0838
10744W        W10744   4.852   5.518   1.507  0.1530  0.0027 -0.7424
10745W        W10745   2.402   6.243   8.879 -0.1413 -0.3480  0.0878
10746W        W10746   8.012   7.431   8.941 -0.0324 -0.1287  0.1435
10747W        W10747   8.902   6.652   8.390 -0.0691 -0.3408  0.0690
10748W        W10748   5.120   7.660   7.581 -0.2813 -0.1813  0.0100
10749W        W10749   0.209   3.407   6.389 -0.2085  0.0916  0.1296
10750W        W10750   4.273   2.526   1.745  0.0359 -0.2243 -0.1300
10751W        W10751   1.744   0.575   5.486  0.0358 -0.2343  0.2282
10752W        W10752   8.391   4.325   2.727  0.2817  0.3472  0.0337
10753W        W10753   3.817   5.299   2.663  0.1342 -0.1350  0.4017
10754W        W10754   2.407   1.838   1.471  0.0195  0.0982  0.0887
10755W        W10755   4.063   6.403   1.501 -0.0585 -0.3481 -0.1650
10756W        W10756   2.448   6.842   7.234  0.1870  0.3099 -0.1451
10757W        W10757   9.190   1.918   3.842  0.4254  0.0362  0.0471
10758W        W10758   5.842   2.555   5.453 -0.1935  0.0528  0.0101
10759W        W10759   8.647   0.417   1.270 -0.1924 -0.1238 -0.0699
10760W        W10760   5.856   7.527   6.496 -0.2799  0.2422  0.1034
10761W        W10761   3.930   9.666   2.727 -0.1408 -0.0782 -0.0876
10762W        W10762   0.854   2.413   2.015  0.0679  0.0609  0.4786
10763W        W10763   1.891   4.625   6.791  0.1609  0.1630 -0.2380
10764W        W10764  10.021   3.424   3.490 -0.1410 -0.2979  0.4186
10765W        W10765   6.362   3.856   4.028  0.2313  0.0131 -0.4534
10766W        W10766   9.658   5.197   9.580 -0.1463  0.1707  0.0813
10767W        W10767   5.880   7.008   6.482  0.0217 -0.2224  0.2641
10768W        W10768   0.085   2.272   1.351 -0.1092  0.0172  0.0845
10769W        W10769   6.475   7.238   3.715 -0.0441  0.0732  0.1383
10770W        W10770   4.055   0.723   5.073 -0.0318  0.1990 -0.1016
10771W        W10771   4.084   4.345   8.275 -0.4100  0.2356  0.0104
10772W        W10772   5.582   2.721   0.603  0.1252 -0.0886  0.0906
10773W        W10773   8.177   2.445   6.797 -0.0770  0.0584  0.2488
10774W        W10774   7.256   6.739   3.906  0.0155 -0.1689  0.1149
10775W        W10775   7.517   5.233   4.716  0.0837 -0.2830  0.2727
10776W        W10776  10.229   3.143   0.700 -0.0582  0.1124 -0.0592
10777W        W10777   2.879   3.507   5.404 -0.0743  0.1673  0.0676
10778W        W10778   1.741   5.134   5.545 -0.1214 -0.0705  0.1744
10779W        W10779   9.834   9.692   8.718 -0.0987 -0.0675  0.3547
10780W        W10780   3.387   3.469   9.276  0.2215  0.0125  0.0925
10781W        W10781   3.116   3.067   6.142 -0.1990  0.0898 -0.0562
10782W        W10782   9.792   3.219   6.746  0.1343 -0.4153  0.3044
10783W        W10783   7.706   5.570  10.300  0.1079  0.0645 -0.0386
10784W        W10784   4.871   0.370   6.995 -0.1114  0.2765  0.2099
10785W        W10785   9.238   2.969   0.542  0.1792 -0.3725 -0.0788
10786W        W10786   2.011   6.615   6.168  0.1511 -0.1161  0.0693
10787W        W10787   4.567   0.946   0.702  0.0852 -0.3347 -0.0518
10788W        W10788   6.301   8.762   8.740  0.0518  0.2188  0.2659
10789W        W10789   1.079   3.484   7.951  0.0193 -0.1728  0.1140
10790W        W10790   3.565   1.122   7.192 -0.0563 -0.0170 -0.2961
10791W        W10791   9.243   8.400   1.968  0.1710  0.2695  0.3503
10792W        W10792   7.233   3.231   7.914 -0.1056 -0.1001 -0.2382
10793W        W10793   6.059   5.363   2.015 -0.3046  0.2122 -0.0275
10794W        W10794   4.220   9.957   2.294 -0.1502  0.2000  0.1348
10795W        W10795   7.069   3.006   1.808 -0.0179  0.2636  0.1684
10796W        W10796   6.854   1.882  10.244 -0.0468  0.1603  0.0854
10797W        W10797   8.625   7.807   7.215 -0.0980  0.2520 -0.2071
10798W        W10798   9.002   5.081   0.470  0.2633  0.0055 -0.0019
10799W        W10799   7.156   5.982   5.746 -0.1911  0.4297 -0.4291
10800W        W10800   6.120   8.895   4.064  0.0191  0.4457  0.4357
10801W        W10801   1.140   2.378   2.931 -0.0803 -0.1114 -0.4547
10802W        W10802   3.832   2.655   1.943  0.2291  0.2535  0.0968
10803W        W10803   5.763   8.784   0.303 -0.2150  0.1742 -0.0238
10804W        W10804   6.312   9.221   6.414 -0.2419 -0.2095 -0.1668
10805W        W10805   3.823  10.256   0.224 -0.2393 -0.3541 -0.1143
10806W        W10806   7.380   9.065   9.547 -0.0153  0.1126 -0.3158
10807W        W10807   8.138   0.334   6.286 -0.1209 -0.2603 -0.1806
10808W        W10808   9.796   8.377   2.098  0.0537 -0.1651  0.0142
10809W        W10809   1.944   0.979   2.777  0.0875 -0.0150  0.1559
10810W        W10810   3.600   6.156   6.077 -0.0118 -0.1522 -0.5299
10811W        W10811   3.035   5.699   8.312  0.0174  0.2441  0.0743
10812W        W10812   4.668   5.292   2.444 -0.0898 -0.2547 -0.0983
10813W        W10813   1.499   2.368   2.561  0.1947 -0.0914 -0.1615
10814W        W10814   6.997   4.004   8.103  0.0032 -0.1958  0.2055
10815W        W10815   4.086   2.197   5.388  0.0706 -0.2274  0.1885
10816W        W10816   0.798   3.204   9.876 -0.0522 -0.0532  0.2610
10817W        W10817   9.457   7.253   0.254  0.0035 -0.0124  0.2135
10818W        W10818   4.205   2.908   3.127  0.1998  0.0149 -0.2434
10819W        W10819   0.044   1.163   7.790  0.0807 -0.2084  0.2331
10820W        W10820   2.370   8.803   5.231  0.1035 -0.1819  0.0089
10821W        W10821   2.460   5.652   5.822 -0.0339  0.3038  0.4226
10822W        W10822   1.465   4.138   0.882 -0.0244 -0.1872 -0.0356
10823W        W10823   2.855   3.420   6.441 -0.0101 -0.1104  0.2811
10824W        W10824   7.676   3.219   8.744  0.0367  0.3340 -0.1248
10825W        W10825   9.183   3.547   4.395 -0.1171  0.0408  0.1889
10826W        W10826   6.678   9.569   3.627 -0.0139  0.0273 -0.0201
10827W        W10827   6.905   8.422   2.023  0.1188  0.2051 -0.0346
10828W        W10828   7.142   1.766   1.788 -0.1293 -0.2781  0.1468
10829W        W10829   0.389   8.965   8.172  0.2026 -0.0679 -0.0284
10830W        W10830   5.110   9.590   5.720 -0.1067 -0.0945 -0.2768
10831W        W10831   6.181   5.328   0.609 -0.1142  0.0040 -0.1666
10832W        W10832   0.937   0.140   5.315  0.1043 -0.0605  0.0171
10833W        W10833   9.318   6.204   3.129  0.0770 -0.0081  0.1088
10834W        W10834   1.582   5.136   0.628 -0.2846  0.0540  0.0427
10835W        W10835   1.878   8.578   3.708  0.3489  0.1149  0.5124
10836W        W10836   6.682   3.643   3.511 -0.0437 -0.1866  0.1685
10837W        W10837   4.844   5.868   5.711  0.0341 -0.0356 -0.2653
10838W        W10838   6.031   5.062  10.062  0.0836 -0.2602 -0.3474
10839W        W10839   7.954   7.649   5.509  0.1556 -0.2127  0.1754
10840W        W10840   3.599   5.959   3.199 -0.0846  0.2426 -0.0351
10841W        W10841   5.307  10.268   4.094 -0.0982 -0.1909 -0.0164
10842W        W10842   9.283   1.660   7.978 -0.0433  0.1339 -0.0887
10843W        W10843   3.317   7.835   6.255  0.0710  0.0915 -0.0899
10844W        W10844   1.904   7.080   6.372  0.1183 -0.1721  0.1404
10845W        W10845   2.509   4.612   0.496 -0.0340  0.1159 -0.0646
10846W        W10846   5.567   5.793   3.744 -0.1273  0.2085 -0.0077
10847W        W10847   1.635   8.331   8.180 -0.0054  0.0556 -0.1172
10848W        W10848   9.589   9.995   9.059 -0.1371 -0.1537 -0.0718
10849W        W10849   7.291   7.057   5.663  0.1264 -0.0664  0.0656
10850W        W10850   4.408   7.207   6.989  0.0330 -0.1835 -0.4025
10851W        W10851   7.642   5.754   4.803 -0.1044 -0.1496  0.0457
10852W        W10852   5.162   2.365   1.772  0.1222 -0.0996  0.0206
10853W        W10853   8.299   1.146   4.558  0.2151 -0.1087 -0.4222
10854W        W10854   1.332   0.424   4.305 -0.0712  0.2229 -0.1556
10855W        W10855   2.021   3.356   4.568 -0.2411  0.0942 -0.0613
10856W        W10856   9.075   9.420   7.407 -0.0147  0.0659  0.1063
10857W        W10857   0.037  10.190   2.689 -0.0177 -0.0374 -0.3558
10858W        W10858   0.549   4.637   5.784 -0.1594  0.2862 -0.0069
10859W        W10859  10.168   0.491   1.495  0.0210 -0.0494  0.2518
10860W        W10860   6.413   4.989   8.752  0.2774 -0.1400 -0.1765
10861W        W10861   2.611   0.157  10.118  0.1942  0.0708 -0.1033
10862W        W10862   9.849   2.178   3.065  0.2608 -0.0522 -0.0797
10863W        W10863   4.172   1.118   5.895 -0.4679  0.1551  0.1319
10864W        W10864   4.636   8.981   5.678  0.1347 -0.2042 -0.1681
10865W        W10865   8.642   3.362   7.679 -0.2084  0.4460 -0.2536
10866W        W10866   9.316   0.603   1.737  0.0952 -0.0111  0.4245
10867W        W10867   9.387   3.343   6.492  0.1145  0.2995  0.0455
10868W        W10868   8.863   9.109   7.077  0.1684 -0.0756  0.0706
10869W        W10869   4.136   0.191   0.538 -0.2155  0.0962  0.0015
10870W        W10870   4.564   2.748   3.451 -0.1120 -0.0180 -0.1392
10871W        W10871   3.583   3.093   9.960 -0.2445 -0.2740  0.0430
10872W        W10872   7.814   1.619   0.977 -0.3561 -0.0418  0.0461
10873W        W10873   3.303   7.468   2.921  0.2325  0.0345 -0.1065
10874W        W10874   7.661   5.732   8.620 -0.0426  0.1206 -0.0041
10875W        W10875   1.220   9.684   2.465  0.2332  0.0680  0.0110
10876W        W10876   4.197   6.468   2.485  0.1058 -0.2550  0.2262
10877W        W10877   2.215   2.258  10.204 -0.1758  0.1814  0.4127
10878W        W10878   1.646   6.152   0.403 -0.2257 -0.1523  0.0421
10879W        W10879   9.138   2.211   8.826  0.1305 -0.0339  0.0803
10880W        W10880   5.227   7.257   3.761 -0.1130  0.1690  0.1642
10881W        W10881   6.139   4.698   4.125  0.2808 -0.1818 -0.2078
10882W        W10882   5.007   2.099   5.097 -0.0540  0.5019 -0.1506
10883W        W10883   7.436   7.709   3.598  0.0278  0.2199 -0.1163
10884W        W10884   3.950   4.670   4.538  0.3808  0.0057  0.1904
10885W        W10885   8.096   2.954   6.689  0.3277 -0.0531 -0.0239
10886W        W10886   5.647   6.694   9.672  0.0834 -0.0642 -0.1399
10887W        W10887   9.820   5.574   4.849  0.2604 -0.1815 -0.1376
10888W        W10888   1.262   7.779   4.975  0.3591  0.0367  0.0654
10889W        W10889  10.005   6.375   3.284 -0.1706 -0.0462  0.1616
10890W        W10890   4.386   4.248   6.937  0.2108  0.1220 -0.1954
10891W        W10891   9.589   3.305   4.630 -0.0424 -0.1034  0.0135
10892W        W10892   8.366   1.131   8.536  0.1233 -0.0915 -0.1092
10893W        W10893   3.738   2.806   3.006  0.1080 -0.1978  0.2486
10894W        W10894   3.302   5.168   1.743  0.1194  0.1019 -0.1615
10895W        W10895   3.384   7.750   5.068 -0.2378  0.3096  0.1613
10896W        W10896   5.024   7.507   2.460  0.0702  0.1148  0.0970
10897W        W10897   7.213   1.848   7.994  0.1353  0.1027  0.2872
10898W        W10898   3.893   7.132   1.948  0.2358 -0.3061 -0.1980
10899W        W10899   3.019   5.027   2.170 -0.0590 -0.0980 -0.2677
10900W        W10900   6.756   5.533   5.087  0.3221  0.0314  0.2597
10901W        W10901   4.164   7.631   7.291 -0.1198  0.3135  0.2271
10902W        W10902   1.373   4.679   0.928  0.2150  0.3740  0.0221
10903W        W10903   4.004   1.708   1.092 -0.1454  0.3009  0.2090
10904W        W10904   6.851   7.305   5.483  0.4419  0.2768  0.0680
10905W        W10905   2.633   4.726   1.847  0.0275  0.1492 -0.1242
10906W        W10906   8.119   0.622   3.293  0.0683  0.0977  0.1090
10907W        W10907   7.534   9.060   0.109 -0.1414 -0.0881  0.1141
10908W        W10908   4.308   7.141   3.854 -0.2197 -0.0557  0.1311
10909W        W10909   1.754   7.183   1.985  0.0443 -0.3246 -0.0462
10910W        W10910   7.798   9.840   8.159 -0.1108  0.0959 -0.2971
10911W        W10911   3.136   8.234   4.874 -0.1963 -0.1651 -0.2569
10912W        W10912   5.819   7.663   9.397 -0.0823 -0.1183 -0.0874
10913W        W10913  10.305   9.485   2.680 -0.0690  0.0383  0.1998
10914W        W10914   9.406   8.845   8.972 -0.1740 -0.0068  0.1640
10915W        W10915   7.145   0.653   2.654 -0.1260 -0.0636 -0.0012
10916W        W10916   7.671   8.739   8.292  0.2572  0.1439  0.2403
10917W        W10917   3.127   1.288   3.627 -0.1274  0.1243  0.2809
10918W        W10918   5.668   1.352   2.946  0.0106  0.0784 -0.0217
10919W        W10919   9.762   0.629   0.054  0.1516  0.0493  0.0712
10920W        W10920   5.738   4.073   0.829 -0.2070  0.0014  0.0788
10921W        W10921   1.935   8.061   4.887  0.0472  0.3590  0.2504
10922W        W10922   9.001   0.635   6.662  0.0568 -0.0198 -0.0225
10923W        W10923   5.971   6.533   7.469  0.0282 -0.1621 -0.1778
10924W        W10924   1.232   8.618   2.832  0.4496 -0.0912 -0.1477
10925W        W10925   9.683   6.646   4.774 -0.0214  0.1213 -0.0145
10926W        W10926   4.212   0.901   2.276 -0.0792 -0.0077  0.3337
10927W        W10927   5.651   7.170   3.493 -0.0243 -0.4089 -0.0267
10928W        W10928   3.120   9.831   2.340  0.0649  0.0320 -0.3429
10929W        W10929   9.986   4.088  10.182  0.0826  0.0812  0.0120
10930W        W10930   0.542   6.459   9.842 -0.1536 -0.1539  0.0994
10931W        W10931   7.398   8.254   9.151 -0.1563  0.2084 -0.3527
10932W        W10932   8.051   5.297   8.011  0.1842  0.2036 -0.0431
10933W        W10933   1.029   1.087   5.335  0.0499 -0.0001  0.1820
10934W        W10934   0.172   0.353   1.887  0.2582  0.1920 -0.0145
10935W        W10935   4.832   6.932   5.411 -0.0594 -0.1733 -0.0852
10936W        W10936   8.701   4.974   7.468  0.2258  0.1521 -0.0461
10937W        W10937   9.116   6.289   3.660  0.2093 -0.0348  0.1694
10938W        W10938   7.937   6.749   0.590 -0.0765 -0.0994 -0.2669
10939W        W10939   9.376   0.863   0.278 -0.0061 -0.0994  0.4361
10940W        W10940   0.176   4.544   9.546  0.0386 -0.1172 -0.0589
10941W        W10941   6.575   5.154   4.101  0.0569 -0.0859  0.0022
10942W        W10942  10.059   6.744   2.827  0.1173 -0.0969  0.4450
10943W        W10943   2.462   8.101   0.472  0.2442 -0.2075  0.2407
10944W        W10944   2.518   7.191   7.755  0.1594  0.1157 -0.1408
10945W        W10945   7.819   9.268   1.202 -0.0006 -0.2490 -0.0988
10946W        W10946   1.641   8.873   9.530 -0.1751  0.3402  0.0561
10947W        W10947   0.379   6.881   7.789 -0.0505 -0.1571  0.0925
10948W        W10948   5.133   1.703   2.436 -0.1613  0.0226 -0.2055
10949W        W10949   9.077   7.019   4.710  0.1124  0.1726  0.2955
10950W        W10950   3.590   4.130   6.498  0.1078 -0.2035  0.0148
10951W        W10951   0.770   4.600   0.770 -0.1023  0.0339  0.5484
10952W        W10952   7.185   1.414   6.911 -0.3363 -0.0457  0.2644
10953W        W10953   4.202   3.976   6.458 -0.0803 -0.1981  0.1352
10954W        W10954   9.515   4.524   3.667  0.0333 -0.1051 -0.0682
10955W        W10955   7.669   9.429   6.920  0.1092 -0.2400  0.1700
10956W        W10956   6.481   3.281   5.584  0.1512  0.0906  0.0392
10957W        W10957   6.478   8.423   7.470 -0.4447  0.0217 -0.1266
10958W        W10958   0.961   5.487   8.618  0.1636 -0.0230 -0.2886
10959W        W10959   8.169   0.411   9.719 -0.0616 -0.1383 -0.0561
10960W        W10960   6.307   9.646   1.666 -0.1372 -0.3342  0.0693
10961W        W10961   3.354   0.495   0.899  0.2718  0.0514  0.1084
10962W        W10962   1.805   4.495   6.207 -0.1446  0.0475  0.0696
10963W        W10963   3.202   8.725   0.647  0.2883 -0.1303  0.0080
10964W        W10964   3.302   6.838   4.435 -0.0941  0.0419 -0.2577
10965W        W10965   1.012   0.247   0.661  0.1631 -0.4013 -0.1928
10966W        W10966   4.919   8.622   8.974 -0.4005  0.1615 -0.0433
10967W        W10967   4.034   9.049   7.909  0.1349  0.1617 -0.2051
10968W        W10968   4.046   1.154   0.860 -0.0860 -0.0054  0.2309
10969W        W10969   9.332   3.534   8.192 -0.0706  0.0684 -0.0350
10970W        W10970   1.271   0.356   1.590  0.0350  0.0572 -0.0018
10971W        W10971   0.172   4.751   1.382  0.3670  0.1224 -0.0781
10972W        W10972  10.081   3.086   2.414  0.2216 -0.2067  0.4394
10973W        W10973   1.801   9.631   3.784  0.4307  0.1287  0.0574
10974W        W10974   3.324   5.070  10.002 -0.1272  0.1575 -0.0780
10975W        W10975   4.017   2.662   0.889 -0.3285  0.3989 -0.0767
10976W        W10976   0.038   7.924   4.548 -0.2575  0.0541  0.0174
10977W        W10977   4.154   7.562   6.020 -0.1628  0.4429  0.2921
10978W        W10978   5.820   2.204   8.211  0.0581  0.1853 -0.2885
10979W        W10979   9.164   6.667   6.980 -0.1651 -0.2053  0.0353
10980W        W10980   3.776   3.825   4.319  0.1488 -0.2895  0.0681
10981W        W10981   5.575   9.696   3.444 -0.0464 -0.2902  0.1808
10982W        W10982   2.595   2.783   1.526 -0.0914 -0.5129 -0.2923
10983W        W10983   3.617   2.708   6.545 -0.3079 -0.2250  0.0491
10984W        W10984   9.053   0.115   5.254  0.0672  0.3122 -0.3827
10985W        W10985   7.559   2.361   9.578 -0.0081 -0.1682  0.2181
10986W        W10986   2.304   3.670   1.073  0.0054  0.0577 -0.1920
10987W        W10987   6.158   2.480   4.451  0.2253  0.0614 -0.1366
10988W        W10988   9.494   7.233   9.112 -0.1177  0.2271  0.1635
10989W        W10989   9.334   5.815   5.609  0.1688 -0.1842 -0.0662
10990W        W10990   8.076   3.648   9.418 -0.0752 -0.0492 -0.0980
10991W        W10991   2.917   0.020   7.550  0.1116  0.0395  0.0115
10992W        W10992   3.377   1.321   6.115  0.2317 -0.0853 -0.0004
10993W        W10993  10.002   9.146   5.131  0.0561  0.3039  0.1581
10994W        W10994   6.380   6.801   3.623  0.2733 -0.1103 -0.2860
10995W        W10995   9.393   0.279   4.330 -0.3153 -0.2567  0.0809
10996W        W10996   8.628   2.172   2.114  0.0053  0.0469 -0.1938
10997W        W10997   8.257   8.030   0.591 -0.1640 -0.3940  0.2462
10998W        W10998   3.745   6.245   2.726 -0.0949  0.1033  0.0220
10999W        W10999   2.868   8.730   2.784  0.0680 -0.3601  0.3324
11000W        W11000   6.746   2.636   1.983  0.1955 -0.0703  0.0103
11001W        W11001   1.676   7.712   4.571  0.0797 -0.1724 -0.0417
11002W        W11002   4.694   8.386   0.581  0.0131 -0.5305 -0.1589
11003W        W11003   1.524   3.559   5.474  0.1441  0.1081  0.1906
11004W        W11004   9.773   2.306   4.369 -0.1512  0.1499  0.1032
11005W        W11005   5.948   4.844   6.404 -0.2809  0.0257  0.0206
11006W        W11006   1.260   5.374   9.518  0.0447  0.0602 -0.0105
11007W        W11007   5.817   6.216   7.144 -0.0168  0.0515 -0.1108
11008W        W11008   9.249   9.393   2.017  0.0231  0.0281  0.0972
11009W        W11009   8.870   3.696   5.217 -0.0926 -0.0769  0.1550
11010W        W11010   7.852   8.173   7.732  0.1208  0.0442 -0.1239
11011W        W11011   6.371   5.634   2.941  0.2061  0.1683 -0.1601
11012W        W11012   6.220   5.932   7.421  0.0790 -0.0982  0.1108
11013W        W11013   7.109   6.531   2.880 -0.0855  0.0382  0.0968
11014W        W11014   5.963   4.001   8.834 -0.1700  0.0158 -0.2375
11015W        W11015   4.023   5.544   1.208 -0.0696  0.2469 -0.0280
11016W        W11016   5.248   3.293   3.225  0.0593  0.3438 -0.0968
11017W        W11017   5.447   6.176   2.546  0.0399  0.0978  0.5030
11018W        W11018   9.930   0.457   4.195  0.0523 -0.2883  0.1830
11019W        W11019   2.724   2.870  10.169  0.1051 -0.0176 -0.4966
11020W        W11020   8.001   0.286  10.187  0.1557  0.1107  0.1349
11021W        W11021   7.988   9.715   7.229 -0.1452  0.1117 -0.0962
11022W        W11022   0.798  10.312   7.773 -0.1297  0.1827 -0.2781
11023W        W11023   6.226   9.068   3.086  0.0348 -0.1073  0.1130
11024W        W11024   4.560   1.763   2.386 -0.2761 -0.1306  0.1027
11025W        W11025   0.328   0.396   4.486 -0.2651 -0.0610 -0.0113
11026W        W11026   2.987   0.072   9.745  0.1522  0.0167  0.0529
11027W        W11027  10.104   5.254   8.141 -0.0837 -0.0636  0.0177
11028W        W11028   7.384   8.608   7.748  0.1858  0.2207  0.0898
11029W        W11029   0.176   3.360   4.616  0.0950 -0.0561  0.1278
11030W        W11030   3.369   4.444   7.256  0.1672  0.1206  0.0146
11031W        W11031   6.498   3.807   2.987  0.0943  0.1876 -0.0636
11032W        W11032   7.893   1.309   7.775  0.0109  0.1360 -0.0845
11033W        W11033   9.293   9.387   2.878 -0.0158  0.1798  0.1580
11034W        W11034   5.284   9.335   3.055  0.2949 -0.1453 -0.3049
11035W        W11035   3.293   8.373   2.928  0.2155 -0.0094  0.1716
11036W        W11036   8.298   0.164   5.430 -0.2256 -0.2515 -0.0657
11037W        W11037   6.405   3.006   9.948 -0.1112  0.3347  0.0734
11038W        W11038   3.269   0.996   0.089  0.0565 -0.1692 -0.0893
11039W        W11039   1.710   3.637   9.982  0.0308  0.1733  0.0429
11040W        W11040   5.828   9.538   7.166  0.4856  0.1074 -0.0215
11041W        W11041   7.282   1.730   6.173 -0.4727  0.1620 -0.2453
11042W        W11042   1.998   5.498   5.321  0.0898 -0.0591 -0.1505
11043W        W11043   4.020   4.142   1.967  0.1684  0.2868  0.2910
11044W        W11044   4.844   2.155   6.165  0.0665 -0.1839  0.0826
11045W        W11045   3.765   6.950   0.626 -0.2398 -0.0468  0.1192
11046W        W11046   0.744   7.545   8.031  0.2018  0.2917 -0.0945
11047W        W11047   2.600   6.570   6.090  0.3703 -0.1235 -0.1903
11048W        W11048   7.404   0.941   4.197 -0.2147  0.0481 -0.4457
11049W        W11049   6.068   0.166   7.190 -0.3353 -0.1314 -0.2756
11050W        W11050   9.076   3.934   1.443  0.0501 -0.3192  0.2299
11051W        W11051   3.395   8.605   1.073  0.1086  0.0519 -0.1427
11052W        W11052   3.887   9.955   1.126  0.1135  0.3894 -0.1508
11053W        W11053   5.623   5.522   2.345 -0.0258  0.0254  0.2467
11054W        W11054  10.094   7.631   3.779 -0.0310  0.2500 -0.0637
11055W        W11055   2.505   6.852   8.181  0.1163  0.0892  0.0956
11056W        W11056   7.097   1.517   5.303  0.1857  0.2108 -0.3459
11057W        W11057  10.095   0.760   6.922 -0.1301  0.0138 -0.1311
11058W        W11058   3.253   4.032   8.604  0.1790  0.0071  0.2142
11059W        W11059   5.952   4.977   1.548 -0.1473 -0.2319  0.2918
11060W        W11060   7.072   1.374   9.070 -0.2885  0.1494 -0.1061
11061W        W11061   4.850   3.287   2.220  0.0180 -0.1666  0.2560
11062W        W11062   7.187   3.034   8.896 -0.2208  0.0970  0.3053
11063W        W11063   5.822   1.051   0.375  0.1173 -0.1032 -0.0461
11064W        W11064   0.058   8.585   8.302 -0.1200  0.0890  0.2267
11065W        W11065   4.563   1.602   8.901  0.1361  0.2029  0.1559
11066W        W11066   8.415   8.772   1.373 -0.0900  0.2777 -0.0644
11067W        W11067   0.524   1.504   8.596 -0.0328  0.2230  0.0272
11068W        W11068   6.771   4.874   0.818  0.0543 -0.4338  0.2389
11069W        W11069   5.447   4.829   0.388  0.1338  0.1167  0.0513
11070W        W11070   8.038   0.494   5.715 -0.2474 -0.2694  0.0509
11071W        W11071   8.059   3.418   5.765  0.0741  0.1412  0.0894
11072W        W11072   2.116   2.126   1.814  0.0098  0.0204 -0.1461
11073W        W11073   0.063   2.805   2.200 -0.3031  0.3682  0.0835
11074W        W11074   8.043   1.471   8.418  0.0719  0.2466 -0.3954
11075W        W11075   7.920   0.180   3.102 -0.1762 -0.0539 -0.0054
11076W        W11076   1.353   1.244   0.776 -0.0386 -0.0660  0.0612
11077W        W11077   6.151   1.166   1.712 -0.3168  0.0619  0.1007
11078W        W11078   3.817   9.593   9.589  0.0099 -0.2249  0.1347
11079W        W11079   2.456  10.132   7.377  0.0120  0.0956 -0.1127
11080W        W11080   1.321   9.419   0.627 -0.1174 -0.2068  0.0677
11081W        W11081   4.265   9.881   3.553 -0.3072  0.1307  0.1057
11082W        W11082   8.511   3.539   1.617  0.1361  0.3755 -0.2516
11083W        W11083   8.115   3.478   6.510 -0.1591 -0.1628  0.1771
11084W        W11084   2.841   0.910   3.464 -0.4922  0.0505  0.2642
11085W        W11085   6.886   9.075  10.042 -0.0323 -0.0752 -0.0345
11086W        W11086   8.519   9.034   0.209 -0.1609  0.2209 -0.1540
11087W        W11087   5.774   0.177   5.181  0.2968 -0.0302  0.2468
11088W        W11088   7.141   9.362   6.883 -0.0696 -0.1077 -0.0402
11089W        W11089   7.135   7.020   0.830 -0.1912 -0.1557  0.1374
11090W        W11090   2.446   9.879   8.535  0.1312  0.0457 -0.2146
11091W        W11091   3.598   5.231   0.020  0.0502  0.2510  0.3114
11092W        W11092   7.060   3.775   0.628  0.0502 -0.0228  0.1561
11093W        W11093   8.248   6.936   4.674 -0.3435 -0.0045  0.0005
11094W        W11094   4.760   5.286   6.396 -0.1696  0.0732 -0.0707
11095W        W11095   0.322   9.902   4.637  0.1263 -0.1116 -0.0429
11096W        W11096   6.669   6.752   5.661  0.2326  0.1293 -0.1366
11097W        W11097   8.273   3.291   0.628 -0.0206  0.1795  0.3023
11098W        W11098   3.422   3.703   1.279  0.3466 -0.0810  0.1588
11099W        W11099   0.630   2.332  10.085  0.2224  0.2535  0.3617
11100W        W11100   2.704   5.575   4.535  0.2493  0.0024 -0.1439
11101W        W11101   1.186   8.170   9.319 -0.1052  0.2976 -0.0458
11102W        W11102   8.699   1.119   3.559 -0.0814  0.1500 -0.2570
11103W        W11103   0.548   9.850   3.282 -0.0369 -0.2380 -0.2868
11104W        W11104   0.158   1.367   5.330  0.0812 -0.3109 -0.2619
11105W        W11105   2.508   5.752   2.653 -0.3634  0.0367 -0.3290
11106W        W11106   1.190   5.026   4.403  0.0835  0.0590 -0.2654
11107W        W11107   2.770   4.720   8.261 -0.0903  0.3336  0.0317
11108W        W11108   5.244   0.461   3.361 -0.0093  0.4564 -0.1449
11109W        W11109   1.760   2.517  10.096  0.0181  0.0265  0.2032
11110W        W11110   3.752   8.405  10.088  0.1383  0.1630 -0.0877
11111W        W11111   2.742   0.166   2.881  0.0371  0.2455  0.0262
11112W        W11112   3.181   7.867   2.097 -0.1301  0.0829  0.1370
11113W        W11113  10.092   3.438   7.609  0.2072 -0.2198  0.1282
11114W        W11114   2.506   1.783   6.365  0.1885 -0.0025 -0.1845
11115W        W11115   6.598   5.278  10.034 -0.2227  0.1269 -0.1635
11116W        W11116   9.047  10.086   8.962  0.1821  0.1220  0.1106
11117W        W11117   9.142   3.861   4.835  0.0390  0.0877 -0.0309
11118W        W11118   6.570   0.131   0.705 -0.0274 -0.0088 -0.1619
11119W        W11119   5.549   8.062   9.978  0.0554  0.1927  0.0274
11120W        W11120   6.328   3.022   8.154 -0.1276  0.1202  0.0719
11121W        W11121  10.193   7.489   7.332 -0.0924 -0.1717 -0.0173
11122W        W11122   3.021   2.568   7.376 -0.1497  0.1646  0.2317
11123W        W11123   8.519   4.803   0.612  0.3109  0.1963 -0.0066
11124W        W11124   0.998   3.869   9.407  0.1722 -0.0205  0.2781
11125W        W11125   6.064   7.414   2.723 -0.1776 -0.1946  0.0376
11126W        W11126   7.666   8.179  10.097 -0.0603  0.1000  0.0758
11127W        W11127   0.404   9.246   2.468 -0.1933 -0.1021  0.3707
11128W        W11128   2.477   2.634   1.041 -0.0271 -0.0167  0.0358
11129W        W11129   1.185   6.431   0.734  0.1451  0.1462 -0.1057
11130W        W11130   0.061   4.897   0.153 -0.0321 -0.1878 -0.3174
11131W        W11131   9.370   6.501   8.516  0.0827 -0.0408  0.0619
11132W        W11132   3.324   3.185   2.224  0.0327  0.0409  0.1721
11133W        W11133   5.988   4.041   6.012  0.1783  0.3511 -0.0423
11134W        W11134   0.812   7.125   7.709 -0.3538 -0.1077  0.0925
11135W        W11135   3.072   5.742   3.296  0.0543  0.1174  0.1791
11136W        W11136   2.942   3.721   1.578 -0.2460  0.1452 -0.0695
11137W        W11137  10.003   2.051   8.955  0.0251 -0.0986 -0.0102
11138W        W11138   0.132   1.453   1.661  0.1903 -0.1006 -0.1924
11139W        W11139   8.925   1.700   2.113  0.0399 -0.1218  0.1118
11140W        W11140   9.397   5.757   6.907 -0.2365  0.1434  0.0094
11141W        W11141   4.645   7.791   7.612 -0.0324  0.0811  0.4465
11142W        W11142   4.564   8.394   3.548 -0.0137  0.2156 -0.4097
11143W        W11143   5.170  10.067   5.612 -0.0909 -0.1539 -0.0249
11144W        W11144   6.026   7.572   3.483 -0.0742 -0.1076  0.2894
11145W        W11145   4.163   7.615   3.910 -0.0727  0.2648 -0.1685
11146W        W11146   9.106   7.762   3.799 -0.1323 -0.1167  0.0690
11147W        W11147   5.916   3.809   4.554  0.1127  0.1573 -0.2763
11148W        W11148   8.367   3.008   5.880 -0.3761  0.1110 -0.1059
10.3283 10.3283 10.3283 0.0000 0.0000 0.0000 0.0000 0.0000 0.0000
