polysmart test_case
52424
    1DES    NCO    1   2.395  18.044   0.571 -0.5918  0.1196 -0.0762
    1DES    CC1    2   2.180  18.126   0.811 -0.3970 -0.2284  0.2808
    1DES    CC1    3   2.062  18.306   0.842 -0.0329 -0.0091  0.2578
    1DES    NCC    4   2.038  18.514   1.033  0.4573 -0.1944 -0.0910
    1DES   CONH    5   1.844  18.760   0.982 -0.1655 -0.0574  0.1058
    1DES    CC1    6   1.726  18.858   0.732  0.6634  0.5867  0.1969
    1DES    CC1    7   1.863  18.921   0.579 -0.0661 -0.3477  0.3955
    1DES    CC1    8   1.951  19.082   0.419 -0.0936  0.6120  0.3288
    1DES    NCO    9   1.754  19.256   0.166  0.0736  0.2098 -0.4200
    1DES   CONH   10   2.198  18.710   1.204  0.1448  0.1635 -0.1670
    1DES    CC1   11   2.213  18.950   1.120 -0.1220 -0.1684  0.2440
    1DES    CC1   12   2.133  19.152   1.199 -0.1380 -0.3714  0.1915
    1DES    CC1   13   2.012  19.358   1.181  0.3530 -0.1399 -0.3066
    1DES    NCO   14   1.957  19.654   1.190 -0.2099  0.0347 -0.1490
    2DES    NCO   15  14.673   6.646  11.723  0.1540 -0.3303  0.2079
    2DES    CC1   16  14.931   6.625  11.916 -0.1380 -0.4784 -0.3300
    2DES    CC1   17  14.901   6.802  12.100 -0.0340  0.0544 -0.0601
    2DES    NCC   18  14.851   7.082  12.162  0.0673  0.2904 -0.2026
    2DES   CONH   19  14.683   7.188  12.429  0.2441  0.0281  0.0675
    2DES    CC1   20  14.755   7.439  12.583  0.0162  0.2436 -0.0124
    2DES    CC1   21  14.731   7.665  12.424 -0.1633 -0.0342 -0.0207
    2DES    CC1   22  14.811   7.864  12.301 -0.1699 -0.3687 -0.6563
    2DES    NCO   23  14.942   7.876  12.042 -0.4971 -0.1600  0.0385
    2DES   CONH   24  14.919   7.379  12.135 -0.2009 -0.1137  0.2332
    2DES    CC1   25  15.084   7.508  12.277  0.1810  0.1524 -0.6082
    2DES    CC1   26  15.125   7.413  12.484  0.0493 -0.2400  0.1919
    2DES    CC1   27  15.135   7.200  12.669  0.5058 -0.1247  0.2530
    2DES    NCO   28  15.304   7.315  12.922  0.2775 -0.1954 -0.1950
    3DES    NCO   29   9.283   0.036   6.921 -0.4872  0.1299  0.2854
    3DES    CC1   30   9.078   0.185   7.082  0.0499  0.4197 -0.1330
    3DES    CC1   31   8.934   0.129   7.258 -0.5336 -0.0818 -0.0640
    3DES    NCC   32   8.922   0.073   7.515  0.0293  0.1159 -0.2905
    3DES   CONH   33   9.126  -0.083   7.718  0.1205 -0.8646 -0.5557
    3DES    CC1   34   9.019  -0.288   7.885 -0.1318 -0.2030  0.1465
    3DES    CC1   35   8.907  -0.237   8.102 -0.1066 -0.2911  0.0229
    3DES    CC1   36   8.761  -0.182   8.249  0.1146  0.2203  0.0438
    3DES    NCO   37   8.727   0.052   8.379 -0.1757  0.0628  0.1639
    3DES   CONH   38   8.777   0.160   7.795  0.3817  0.0593  0.0276
    3DES    CC1   39   8.536   0.021   7.873  0.0065 -0.1268  0.6600
    3DES    CC1   40   8.555  -0.186   7.989 -0.1104  0.1298  0.7035
    3DES    CC1   41   8.605  -0.396   8.031  0.1730  0.5235 -0.1089
    3DES    NCO   42   8.428  -0.593   7.855  0.2184 -0.4674  0.1118
    4DES    NCO   43   1.848  15.912   6.599 -0.3266  0.3108  0.2220
    4DES    CC1   44   1.679  16.037   6.743  0.0238 -0.5498  0.4722
    4DES    CC1   45   1.784  16.203   6.908  0.1461 -0.0443  0.4287
    4DES    NCC   46   1.922  16.169   7.128  0.1655 -0.1979  0.1947
    4DES   CONH   47   1.813  16.148   7.412 -0.0915  0.0960  0.1196
    4DES    CC1   48   1.547  16.285   7.476 -0.2437 -0.1364  0.4199
    4DES    CC1   49   1.365  16.164   7.490  0.2296  0.1062  0.5891
    4DES    CC1   50   1.250  15.970   7.528  0.2202  0.3595 -0.5108
    4DES    NCO   51   1.139  15.796   7.333 -0.0760  0.4575 -0.2006
    4DES   CONH   52   2.101  16.410   7.263 -0.2372  0.4592  0.2744
    4DES    CC1   53   2.299  16.362   7.428  0.0293  0.2656  0.1264
    4DES    CC1   54   2.443  16.241   7.326 -0.2829  0.2175  0.2818
    4DES    CC1   55   2.545  16.041   7.161 -0.2693  0.3221 -0.1220
    4DES    NCO   56   2.655  15.829   7.345 -0.2705  0.1649 -0.0208
    5DES    NCO   57   6.081   6.986   0.465 -0.2703 -0.2689 -0.0328
    5DES    CC1   58   6.082   6.990   0.139  0.0390  0.4283 -0.1326
    5DES    CC1   59   5.873   6.918   0.080 -0.0058  0.0549 -1.0769
    5DES    NCC   60   5.596   6.915   0.008 -0.0301  0.0111 -0.0304
    5DES   CONH   61   5.407   7.022  -0.247 -0.3942  0.1007  0.0690
    5DES    CC1   62   5.211   6.887  -0.373  0.1109 -0.2718 -0.3850
    5DES    CC1   63   5.000   6.994  -0.369 -0.2028  0.2322 -0.1679
    5DES    CC1   64   4.865   7.196  -0.343  0.1413 -0.0613  0.0335
    5DES    NCO   65   4.982   7.403  -0.217 -0.2227 -0.2620  0.0623
    5DES   CONH   66   5.428   6.674  -0.014 -0.0443  0.1748  0.4905
    5DES    CC1   67   5.349   6.511   0.230 -0.1389 -0.0954  0.5403
    5DES    CC1   68   5.143   6.368   0.251 -0.2827 -0.0631  0.1416
    5DES    CC1   69   4.871   6.346   0.257  0.1154 -0.1128 -0.2876
    5DES    NCO   70   4.858   6.539   0.038 -0.0719 -0.2594  0.1035
    6DES    NCO   71  16.229  17.791  14.475 -0.2784 -0.2200  0.1397
    6DES    CC1   72  16.333  18.028  14.373  0.4277  0.3654 -0.6983
    6DES    CC1   73  16.315  18.014  14.117 -0.4829 -0.0795 -0.4313
    6DES    NCC   74  16.323  17.895  13.823 -0.1453 -0.3591  0.0945
    6DES   CONH   75  16.382  17.988  13.511 -0.2167  0.0936 -0.0977
    6DES    CC1   76  16.627  17.961  13.398  0.1590  0.0022  0.2100
    6DES    CC1   77  16.819  17.762  13.526  0.2643 -0.3589 -0.2754
    6DES    CC1   78  16.954  17.664  13.731 -0.5669 -0.3867 -0.1632
    6DES    NCO   79  17.230  17.672  13.661  0.1830 -0.2070 -0.1919
    6DES   CONH   80  16.378  17.603  13.684 -0.0962  0.1155 -0.0368
    6DES    CC1   81  16.457  17.597  13.447  0.4733 -0.1746 -0.2350
    6DES    CC1   82  16.407  17.592  13.213  0.5615  0.6127 -0.1200
    6DES    CC1   83  16.305  17.482  13.024  0.3307  0.4445  0.1900
    6DES    NCO   84  16.373  17.217  13.003  0.4242  0.0741  0.4062
    7DES    NCO   85   9.668  17.267   9.054 -0.1054 -0.4115 -0.0812
    7DES    CC1   86   9.565  17.513   9.236  0.1703  0.3534  0.3815
    7DES    CC1   87   9.477  17.646   9.067 -0.0667 -0.0613 -0.0300
    7DES    NCC   88   9.451  17.883   8.959 -0.1008  0.5954 -0.1057
    7DES   CONH   89   9.413  18.019   8.673  0.2899  0.2797  0.3709
    7DES    CC1   90   9.211  18.203   8.635 -0.1280 -0.3692  0.5686
    7DES    CC1   91   8.989  18.098   8.723  0.2908 -0.1767 -0.0441
    7DES    CC1   92   8.873  17.945   8.782  0.0059  0.3632  0.1780
    7DES    NCO   93   9.047  17.717   8.905 -0.1464  0.2507 -0.0333
    7DES   CONH   94   9.328  18.206   9.046 -0.6273 -0.1966 -0.2910
    7DES    CC1   95   9.095  18.232   9.140 -0.1858 -0.2563  0.1400
    7DES    CC1   96   8.951  18.016   9.170 -0.9267 -0.3768  0.0427
    7DES    CC1   97   8.810  17.868   9.192  0.0017  0.4457  0.3992
    7DES    NCO   98   8.533  17.907   8.990 -0.1564 -0.5066 -0.1539
    8DES    NCO   99   1.690   1.555  12.253  0.0704 -0.0114 -0.1230
    8DES    CC1  100   1.854   1.309  12.235  0.2614  0.1337  0.1552
    8DES    CC1  101   1.895   1.257  12.447 -0.0169 -0.2653 -0.0576
    8DES    NCC  102   2.017   1.197  12.726  0.2180 -0.0035 -0.2913
    8DES   CONH  103   2.099   1.392  12.947  0.0609 -0.3056 -0.1893
    8DES    CC1  104   2.319   1.593  12.879  0.0396  0.0313  0.1863
    8DES    CC1  105   2.380   1.616  12.686  0.1588  0.3026 -0.3500
    8DES    CC1  106   2.373   1.662  12.419  0.3010  0.0430  0.1226
    8DES    NCO  107   2.582   1.521  12.231 -0.2602 -0.1084 -0.2317
    8DES   CONH  108   1.943   1.003  12.941  0.2714  0.2078  0.1694
    8DES    CC1  109   2.124   0.885  13.095  0.1862  0.1872 -0.0410
    8DES    CC1  110   2.083   0.944  13.354 -0.0798 -0.0456  0.4177
    8DES    CC1  111   2.049   0.878  13.559  0.0504  0.4855 -0.3138
    8DES    NCO  112   2.062   1.172  13.659  0.0085 -0.1638 -0.3284
    9DES    NCO  113   1.467   0.983   0.525  0.3546  0.1323 -0.3946
    9DES    CC1  114   1.650   0.938   0.793 -0.0373 -0.3004 -0.2486
    9DES    CC1  115   1.879   0.984   0.794  0.0188 -0.1106  0.1155
    9DES    NCC  116   2.113   0.926   0.762  0.4291 -0.0112  0.2016
    9DES   CONH  117   2.399   1.006   0.868  0.2258 -0.4770 -0.1423
    9DES    CC1  118   2.484   1.257   0.840 -0.3742  0.3727 -0.0445
    9DES    CC1  119   2.579   1.268   0.644 -0.5557  0.3539  0.4449
    9DES    CC1  120   2.720   1.187   0.463  0.2182  0.1268  0.1671
    9DES    NCO  121   2.642   1.338   0.214 -0.2461  0.1134  0.4997
    9DES   CONH  122   2.307   0.773   0.575  0.3763 -0.1409  0.0280
    9DES    CC1  123   2.532   0.874   0.440 -0.0876 -0.1926  0.3251
    9DES    CC1  124   2.536   0.859   0.201 -0.0584  0.1402  0.1525
    9DES    CC1  125   2.458   0.876  -0.049 -0.0989 -0.0704 -0.1656
    9DES    NCO  126   2.177   0.908  -0.075 -0.3656 -0.1556  0.0250
   10DES    NCO  127   1.843  17.642  18.025  0.2229 -0.1947 -0.2219
   10DES    CC1  128   1.771  17.416  18.208  0.4624 -0.9068  0.0929
   10DES    CC1  129   1.724  17.513  18.438 -0.2172  0.5261 -0.0344
   10DES    NCC  130   1.743  17.564  18.694 -0.3314 -0.0988 -0.0605
   10DES   CONH  131   1.558  17.772  18.889 -0.0645 -0.0314  0.0981
   10DES    CC1  132   1.616  18.083  18.899  0.0999  0.2773  0.1869
   10DES    CC1  133   1.660  18.157  19.112 -0.0137  0.1805  0.3180
   10DES    CC1  134   1.761  18.249  19.315  0.1205 -0.2457 -0.0392
   10DES    NCO  135   1.910  18.034  19.446  0.2127 -0.1597  0.3841
   10DES   CONH  136   1.960  17.669  18.865 -0.4713  0.0106  0.2037
   10DES    CC1  137   1.927  17.950  18.945 -0.1799  0.1928 -0.0168
   10DES    CC1  138   1.988  18.127  18.801  0.2584 -0.4408 -0.0832
   10DES    CC1  139   1.924  18.253  18.601 -0.0377 -0.0440 -0.2326
   10DES    NCO  140   1.758  18.441  18.600  0.2888  0.0529  0.0192
   11DES    NCO  141  17.843   4.334   3.242 -0.0005  0.3436  0.1845
   11DES    CC1  142  17.709   4.348   3.516  0.3976 -0.3100 -0.3575
   11DES    CC1  143  17.536   4.490   3.589  0.2733  0.2875  0.2433
   11DES    NCC  144  17.320   4.697   3.673 -0.3167  0.2468 -0.1947
   11DES   CONH  145  17.105   4.708   3.904  0.0727  0.2215  0.0143
   11DES    CC1  146  16.814   4.636   3.859 -0.1088  0.8259 -0.3594
   11DES    CC1  147  16.646   4.822   3.884 -0.5948 -0.1782  0.5112
   11DES    CC1  148  16.465   5.010   3.827 -0.4182 -0.4695 -0.2285
   11DES    NCO  149  16.277   5.039   3.561  0.1502 -0.1185  0.0121
   11DES   CONH  150  17.129   4.937   3.524 -0.5701 -0.0679 -0.1721
   11DES    CC1  151  16.844   4.920   3.407  0.0399  0.5209  0.4713
   11DES    CC1  152  16.685   4.803   3.536  0.5361 -0.1504 -0.1612
   11DES    CC1  153  16.515   4.672   3.615  0.1028 -0.5023  0.3530
   11DES    NCO  154  16.593   4.414   3.408  0.1373  0.1278 -0.2654
   12DES    NCO  155   2.393   9.168   4.370  0.0414 -0.6284 -0.2808
   12DES    CC1  156   2.265   9.318   4.559 -0.0692 -0.2344 -0.1318
   12DES    CC1  157   2.008   9.318   4.563 -0.2877  0.1101 -0.2948
   12DES    NCC  158   1.742   9.366   4.618 -0.5082 -0.1760  0.5113
   12DES   CONH  159   1.552   9.516   4.829  0.0172 -0.1174 -0.0593
   12DES    CC1  160   1.483   9.400   5.045 -0.1127  0.0697  0.7016
   12DES    CC1  161   1.645   9.228   5.136  0.2223 -0.0242 -0.2835
   12DES    CC1  162   1.796   9.048   5.107  0.4500 -0.1663 -0.4031
   12DES    NCO  163   1.690   8.871   4.896  0.2606  0.5435 -0.0186
   12DES   CONH  164   1.518   9.450   4.425  0.2168  0.2172  0.1555
   12DES    CC1  165   1.277   9.503   4.496  0.2334  0.4481  0.2314
   12DES    CC1  166   1.102   9.405   4.389 -0.1843 -0.2599  0.0250
   12DES    CC1  167   0.999   9.217   4.269 -0.1232 -0.0748 -0.1741
   12DES    NCO  168   0.736   9.234   4.111  0.0623 -0.2747 -0.1782
   13DES    NCO  169   4.802  13.527   8.100 -0.1685 -0.3009  0.2134
   13DES    CC1  170   4.804  13.647   8.350  0.3389  0.2904  0.5130
   13DES    CC1  171   4.609  13.719   8.508 -0.0269  0.0910 -0.0263
   13DES    NCC  172   4.322  13.745   8.599  0.3271  0.1727  0.4601
   13DES   CONH  173   4.190  13.845   8.838 -0.0948 -0.3238 -0.2709
   13DES    CC1  174   4.062  14.050   8.821  0.0882  0.2218  0.0125
   13DES    CC1  175   4.121  14.269   8.953 -0.1249 -0.1967  0.1535
   13DES    CC1  176   4.206  14.524   9.000 -0.1173 -0.1837  0.1630
   13DES    NCO  177   3.941  14.771   9.018  0.0407  0.0367  0.1623
   13DES   CONH  178   4.071  13.881   8.426 -0.0123  0.2167 -0.2859
   13DES    CC1  179   3.825  13.863   8.508  0.4531 -0.1347 -0.2638
   13DES    CC1  180   3.669  14.018   8.437 -0.0495 -0.3865 -0.1075
   13DES    CC1  181   3.527  14.193   8.463 -0.0189  0.6266  0.4190
   13DES    NCO  182   3.760  14.417   8.487  0.2462 -0.5803  0.3162
   14DES    NCO  183   4.228   7.523   3.264  0.0340  0.2665 -0.3119
   14DES    CC1  184   4.481   7.646   3.369 -0.3437 -0.2752  0.2656
   14DES    CC1  185   4.453   7.770   3.554 -0.0060  0.1722  0.0161
   14DES    NCC  186   4.284   7.925   3.718 -0.2881 -0.1212  0.0459
   14DES   CONH  187   4.125   8.138   3.610  0.5030 -0.2826  0.0487
   14DES    CC1  188   4.129   8.192   3.325  0.4174  0.5363 -0.2043
   14DES    CC1  189   4.097   8.034   3.168  0.1611  0.2112 -0.2513
   14DES    CC1  190   4.105   7.912   2.967  0.6368 -0.2231 -0.4543
   14DES    NCO  191   4.270   8.031   2.761  0.1316  0.6942  0.3166
   14DES   CONH  192   4.077   7.817   3.949  0.2933  0.4672  0.2918
   14DES    CC1  193   3.885   7.640   3.872  0.1126  0.2503  0.0441
   14DES    CC1  194   3.818   7.444   3.986  0.0982  0.1115 -0.0971
   14DES    CC1  195   3.781   7.273   4.189  0.1084 -0.4061  0.1504
   14DES    NCO  196   3.725   7.379   4.458  0.0435 -0.1797 -0.0848
   15DES    NCO  197   7.859  12.919   2.051  0.0758  0.1464  0.5559
   15DES    CC1  198   7.798  12.631   1.953  0.6132 -0.4861 -0.2699
   15DES    CC1  199   7.561  12.592   1.921  0.1745  0.1381  0.2029
   15DES    NCC  200   7.345  12.541   1.757  0.2729  0.3667  0.1970
   15DES   CONH  201   7.097  12.317   1.773 -0.0913 -0.1708  0.0183
   15DES    CC1  202   6.972  12.146   1.599 -0.2329  0.4300  0.5017
   15DES    CC1  203   7.045  12.033   1.380 -0.1733  0.2402 -0.7707
   15DES    CC1  204   7.182  12.010   1.174  0.1488 -0.1052  0.0308
   15DES    NCO  205   7.498  12.159   1.137  0.3144  0.4337 -0.3937
   15DES   CONH  206   7.143  12.752   1.607 -0.2781  0.0868 -0.1982
   15DES    CC1  207   6.885  12.703   1.625 -0.0340  0.4242  0.1619
   15DES    CC1  208   6.790  12.498   1.545 -0.3529  0.2921 -0.1073
   15DES    CC1  209   6.640  12.347   1.524 -0.1346 -0.4496  0.0168
   15DES    NCO  210   6.346  12.298   1.628  0.3232  0.4462  0.0438
   16DES    NCO  211   7.212   5.507   9.695  0.0618 -0.0003 -0.0089
   16DES    CC1  212   6.997   5.656   9.646 -0.1515 -0.4793 -0.4758
   16DES    CC1  213   6.852   5.625   9.492 -0.2931 -0.2728  0.3498
   16DES    NCC  214   6.610   5.611   9.387 -0.0906 -0.1743  0.0621
   16DES   CONH  215   6.372   5.803   9.295 -0.0135 -0.3241 -0.1553
   16DES    CC1  216   6.217   5.932   9.490 -0.4012 -0.1698 -0.3698
   16DES    CC1  217   6.239   5.891   9.704  0.2629 -0.0903 -0.0665
   16DES    CC1  218   6.217   5.823   9.907  0.0098 -0.0814 -0.6010
   16DES    NCO  219   6.045   5.572   9.944  0.0315 -0.0648 -0.4174
   16DES   CONH  220   6.448   5.382   9.219 -0.5799  0.3904  0.2056
   16DES    CC1  221   6.540   5.114   9.190 -0.0893  0.0669  0.5662
   16DES    CC1  222   6.697   5.066   8.990 -0.5694  0.5678 -0.3943
   16DES    CC1  223   6.843   5.126   8.825  0.2501 -0.2089 -0.1324
   16DES    NCO  224   6.906   5.424   8.756  0.1099  0.0703 -0.1649
   17DES    NCO  225   4.923   8.445   2.374 -0.3751  0.3871 -0.5586
   17DES    CC1  226   5.038   8.189   2.448 -0.4198  0.0045 -0.0104
   17DES    CC1  227   5.135   8.252   2.624  0.4244 -0.1706  0.2160
   17DES    NCC  228   5.203   8.190   2.905  0.0360  0.1107 -0.0071
   17DES   CONH  229   5.408   7.947   3.011 -0.1412  0.0810  0.3613
   17DES    CC1  230   5.665   7.999   3.118 -0.2903  0.5937  0.0252
   17DES    CC1  231   5.812   7.837   3.148  0.1332 -0.1867 -0.2596
   17DES    CC1  232   5.937   7.672   3.224  0.3122 -0.1966  0.0750
   17DES    NCO  233   5.862   7.531   3.448  0.6009  0.0694  0.3150
   17DES   CONH  234   5.289   8.361   3.181 -0.0999 -0.1384  0.2476
   17DES    CC1  235   5.405   8.259   3.429 -0.4636 -0.5374  0.1127
   17DES    CC1  236   5.543   8.069   3.443  0.1911 -0.0297  0.1282
   17DES    CC1  237   5.704   7.953   3.503 -0.1731  0.2417 -0.0931
   17DES    NCO  238   5.954   8.108   3.635  0.2205 -0.3736  0.3212
   18DES    NCO  239   9.080  13.634   8.276 -0.4403  0.2853  0.1623
   18DES    CC1  240   9.345  13.851   8.312 -0.1292  0.2639  0.0806
   18DES    CC1  241   9.248  14.054   8.346 -0.0252 -0.0327  0.0352
   18DES    NCC  242   9.177  14.316   8.295 -0.1329 -0.1026 -0.3487
   18DES   CONH  243   8.971  14.417   8.097  0.2770 -0.1173 -0.4969
   18DES    CC1  244   8.936  14.669   8.071 -0.3180 -0.5679  0.4253
   18DES    CC1  245   9.047  14.841   8.104  0.3119  0.3304  0.0755
   18DES    CC1  246   9.121  15.093   8.120 -0.0356  0.1029 -0.4557
   18DES    NCO  247   9.341  15.042   8.269 -0.2652 -0.1135  0.4421
   18DES   CONH  248   9.195  14.599   8.436  0.1430  0.0690 -0.5249
   18DES    CC1  249   8.983  14.693   8.564  0.2828 -0.0653  0.0064
   18DES    CC1  250   8.861  14.928   8.533 -0.0599  0.2411  0.2053
   18DES    CC1  251   8.868  15.159   8.559 -0.1048  0.1668  0.0189
   18DES    NCO  252   8.580  15.275   8.695 -0.0955 -0.2659  0.2081
   19DES    NCO  253  11.512  14.977  15.805  0.1472 -0.1384  0.0235
   19DES    CC1  254  11.739  14.762  15.742 -0.0660 -0.6346  0.0267
   19DES    CC1  255  11.827  14.726  15.571  0.0850  0.1515 -0.5043
   19DES    NCC  256  11.944  14.676  15.334  0.4213  0.0278  0.3805
   19DES   CONH  257  11.969  14.816  15.057  0.4052 -0.0022 -0.1304
   19DES    CC1  258  11.762  14.888  14.935 -0.1074 -0.1096 -0.1326
   19DES    CC1  259  11.750  15.161  14.909 -0.1330 -0.0792  0.2182
   19DES    CC1  260  11.718  15.404  15.030  0.0381 -0.0539 -0.4070
   19DES    NCO  261  11.869  15.436  15.235  0.1680 -0.1833  0.1281
   19DES   CONH  262  11.977  14.430  15.154  0.0673  0.3055  0.3420
   19DES    CC1  263  11.794  14.280  15.079  0.2129 -0.0303  0.0463
   19DES    CC1  264  11.579  14.309  15.167  0.7609  0.0318 -0.0239
   19DES    CC1  265  11.401  14.436  15.255  0.2834 -0.2313 -0.1080
   19DES    NCO  266  11.510  14.669  15.350  0.1562 -0.0569 -0.3054
   20DES    NCO  267  14.979   7.708  12.789  0.0130  0.2677 -0.2771
   20DES    CC1  268  15.222   7.701  12.648  0.3946  0.0863 -0.0293
   20DES    CC1  269  15.247   7.843  12.473 -0.3687 -0.2353  0.3956
   20DES    NCC  270  15.406   7.865  12.233  0.2959 -0.0153  0.3510
   20DES   CONH  271  15.575   7.651  12.135 -0.2163  0.1408  0.3956
   20DES    CC1  272  15.516   7.420  12.213  0.0250 -0.2708 -0.2327
   20DES    CC1  273  15.357   7.264  12.231  0.4228  0.1747 -0.0059
   20DES    CC1  274  15.171   7.112  12.345 -0.1823 -0.2989  0.2813
   20DES    NCO  275  15.284   6.842  12.341 -0.3379  0.1717  0.3285
   20DES   CONH  276  15.479   8.024  11.955 -0.0709 -0.1479 -0.1999
   20DES    CC1  277  15.783   8.103  11.916  0.1996 -0.2577 -0.6321
   20DES    CC1  278  15.865   8.189  12.122  0.0549  0.5214 -0.0790
   20DES    CC1  279  15.839   8.306  12.300 -0.1409  0.6207  0.1175
   20DES    NCO  280  15.642   8.325  12.500 -0.0445  0.0672 -0.1081
   21DES    NCO  281   3.646   6.743  13.131  0.2096  0.0263  0.4072
   21DES    CC1  282   3.556   6.485  13.004 -0.0208 -0.1613  0.0677
   21DES    CC1  283   3.446   6.371  13.230 -0.0501  0.4571  0.0163
   21DES    NCC  284   3.382   6.200  13.415  0.0664  0.4730 -0.2687
   21DES   CONH  285   3.113   6.052  13.534 -0.1341 -0.2867  0.3933
   21DES    CC1  286   3.052   6.071  13.816  0.0222  0.1014 -0.0259
   21DES    CC1  287   3.037   5.833  13.943 -0.0088 -0.5735 -0.0865
   21DES    CC1  288   2.968   5.645  13.975 -0.1636 -0.0852  0.1204
   21DES    NCO  289   3.081   5.478  14.163  0.2115  0.1830  0.1404
   21DES   CONH  290   3.548   5.957  13.612  0.2597 -0.0136 -0.2589
   21DES    CC1  291   3.407   5.782  13.735 -0.1998 -0.3607  0.1525
   21DES    CC1  292   3.389   5.796  13.986  0.4412  0.2367  0.1249
   21DES    CC1  293   3.380   5.707  14.186 -0.2804 -0.1987  0.1612
   21DES    NCO  294   3.194   5.865  14.325  0.0926  0.1386 -0.2307
   22DES    NCO  295   8.477   5.821  17.608 -0.0409  0.2397  0.0178
   22DES    CC1  296   8.581   5.693  17.335 -0.1137 -0.0758  0.0313
   22DES    CC1  297   8.423   5.753  17.176 -0.0914 -0.3046  0.3319
   22DES    NCC  298   8.145   5.768  17.095  0.3861  0.4280 -0.1306
   22DES   CONH  299   7.922   5.965  17.137  0.5153  0.0051 -0.0757
   22DES    CC1  300   7.679   5.905  17.037 -0.1633 -0.2631 -0.4162
   22DES    CC1  301   7.477   6.031  17.113  0.4556 -0.0550 -0.3857
   22DES    CC1  302   7.241   6.068  17.255  0.3449  0.2437 -0.0142
   22DES    NCO  303   7.238   6.322  17.372  0.0243  0.1737 -0.0569
   22DES   CONH  304   7.936   5.589  16.931 -0.2302 -0.4803  0.2614
   22DES    CC1  305   7.792   5.362  17.016  0.0592 -0.2276 -0.0633
   22DES    CC1  306   7.766   5.242  17.219 -0.0061  0.5979 -0.2322
   22DES    CC1  307   7.828   5.100  17.401  0.0832  0.1940  0.3885
   22DES    NCO  308   7.762   5.283  17.644  0.2799  0.0384  0.1627
   23DES    NCO  309   9.162   8.574  10.807  0.0376  0.1317  0.1058
   23DES    CC1  310   9.023   8.427  10.536  0.1630  0.0360  0.0190
   23DES    CC1  311   8.787   8.464  10.443 -0.1945 -0.2133  0.3479
   23DES    NCC  312   8.545   8.582  10.438  0.3110 -0.3360 -0.3081
   23DES   CONH  313   8.401   8.778  10.639 -0.2992 -0.2934  0.4309
   23DES    CC1  314   8.127   8.854  10.600  0.2108  0.3028 -0.2200
   23DES    CC1  315   8.128   9.069  10.627  0.4878 -0.1319 -0.0138
   23DES    CC1  316   8.033   9.273  10.741 -0.2006 -0.3507  0.0129
   23DES    NCO  317   8.081   9.497  10.594 -0.0852  0.4534 -0.6476
   23DES   CONH  318   8.423   8.788  10.243 -0.1041  0.1977  0.2662
   23DES    CC1  319   8.279   9.022  10.329 -0.3553  0.2384 -0.2424
   23DES    CC1  320   8.394   9.216  10.431 -0.1184 -0.0239  0.7070
   23DES    CC1  321   8.497   9.340  10.588  0.1607 -0.0645  0.0120
   23DES    NCO  322   8.472   9.213  10.817  0.2711  0.1575  0.0942
   24DES    NCO  323   1.364   9.874   0.851 -0.0088  0.2875 -0.2148
   24DES    CC1  324   1.186   9.756   1.057 -0.1623 -0.3348 -0.1077
   24DES    CC1  325   1.103   9.569   0.940  0.2615  0.2738  0.3635
   24DES    NCC  326   0.886   9.434   0.844  0.4055 -0.3409 -0.1414
   24DES   CONH  327   0.590   9.348   0.916  0.0325 -0.1422  0.1262
   24DES    CC1  328   0.431   9.303   0.706  0.1612  0.3127  0.0311
   24DES    CC1  329   0.231   9.442   0.604  0.1130 -0.3550 -0.3098
   24DES    CC1  330   0.016   9.505   0.525 -0.1729 -0.5121  0.0979
   24DES    NCO  331   0.021   9.561   0.262 -0.1217  0.3253 -0.0334
   24DES   CONH  332   0.807   9.383   0.553 -0.2083  0.1107 -0.0422
   24DES    CC1  333   0.694   9.173   0.498  0.2857  0.3325  0.1588
   24DES    CC1  334   0.654   8.970   0.612 -0.1159  0.3425  0.0289
   24DES    CC1  335   0.548   8.741   0.629  0.0783 -0.1971  0.1396
   24DES    NCO  336   0.272   8.685   0.534 -0.0970  0.1829 -0.1810
   25DES    NCO  337   8.030   5.514  16.406 -0.2233  0.2855 -0.2090
   25DES    CC1  338   7.954   5.342  16.628  0.0125  0.0630 -0.5022
   25DES    CC1  339   8.115   5.157  16.627  0.4112  0.1187 -0.4032
   25DES    NCC  340   8.330   5.091  16.600 -0.3546  0.1114  0.3385
   25DES   CONH  341   8.603   5.085  16.748 -0.3360  0.3261 -0.4429
   25DES    CC1  342   8.694   5.314  16.876  0.1950 -0.2592 -0.1761
   25DES    CC1  343   8.595   5.354  17.085 -0.2101 -0.1101 -0.1145
   25DES    CC1  344   8.397   5.361  17.223 -0.0989 -0.1988 -0.0537
   25DES    NCO  345   8.265   5.162  17.448 -0.1468  0.2897  0.0178
   25DES   CONH  346   8.456   4.813  16.465  0.3129  0.1524 -0.3658
   25DES    CC1  347   8.284   4.611  16.347 -0.1489 -0.0132 -0.2029
   25DES    CC1  348   8.234   4.721  16.126  0.2416 -0.3966  0.5364
   25DES    CC1  349   8.213   4.789  15.872 -0.0999  0.1582 -0.0341
   25DES    NCO  350   8.423   4.734  15.744  0.1323 -0.1200 -0.2948
   26DES    NCO  351  13.217  10.995  16.159  0.1598  0.2384 -0.1625
   26DES    CC1  352  13.096  11.251  15.984 -0.0921 -0.1406  0.5187
   26DES    CC1  353  13.238  11.505  15.978  0.0747  0.2280 -0.0789
   26DES    NCC  354  13.276  11.789  15.917  0.3064  0.1880  0.1196
   26DES   CONH  355  13.086  11.995  15.795 -0.1751  0.3677  0.1616
   26DES    CC1  356  13.175  12.113  15.583  0.4277  0.1117  0.3923
   26DES    CC1  357  13.357  12.190  15.528 -0.2562 -0.3556 -0.3816
   26DES    CC1  358  13.517  12.347  15.405 -0.2296  0.4296 -0.1146
   26DES    NCO  359  13.639  12.503  15.540  0.5174  0.1064  0.0406
   26DES   CONH  360  13.456  12.047  16.014  0.1862 -0.3092  0.3911
   26DES    CC1  361  13.693  12.055  16.203  0.3948  0.1362 -0.3399
   26DES    CC1  362  13.697  12.256  16.391 -0.4412  0.2738  0.0006
   26DES    CC1  363  13.665  12.460  16.546 -0.2376  0.1821 -0.2989
   26DES    NCO  364  13.509  12.754  16.479 -0.1935  0.0105 -0.1296
   27DES    NCO  365  13.899   5.845   4.698 -0.3287 -0.3822 -0.0310
   27DES    CC1  366  13.778   5.976   4.953  0.3267 -0.2812 -0.0756
   27DES    CC1  367  13.976   6.077   5.092 -0.4580 -0.0932  0.1239
   27DES    NCC  368  14.057   6.170   5.304  0.2065 -0.0051 -0.2688
   27DES   CONH  369  14.009   6.435   5.468 -0.2046  0.0560  0.2949
   27DES    CC1  370  14.189   6.625   5.456  0.2648 -0.0865  0.3332
   27DES    CC1  371  14.374   6.541   5.586  0.2743 -0.4913 -0.4179
   27DES    CC1  372  14.587   6.444   5.665 -0.2660  0.3749  0.0349
   27DES    NCO  373  14.709   6.200   5.620  0.4997 -0.3484  0.3490
   27DES   CONH  374  14.296   6.107   5.489  0.1206 -0.2644  0.1040
   27DES    CC1  375  14.424   5.888   5.427  0.2197 -0.3159 -0.2623
   27DES    CC1  376  14.392   5.787   5.191  0.1914  0.1315  0.3216
   27DES    CC1  377  14.349   5.586   5.028 -0.7048  0.5097  0.1793
   27DES    NCO  378  14.091   5.513   4.936  0.1263 -0.3846  0.1535
   28DES    NCO  379  15.424   6.861   8.334  0.1495 -0.3558 -0.3148
   28DES    CC1  380  15.459   6.654   8.564 -0.0843 -0.4055  0.3543
   28DES    CC1  381  15.419   6.454   8.465  0.0562  0.1760  0.0197
   28DES    NCC  382  15.419   6.260   8.272 -0.1964  0.4942  0.1206
   28DES   CONH  383  15.156   6.087   8.123  0.1135  0.3189 -0.2068
   28DES    CC1  384  15.231   5.870   7.951 -0.3711 -0.0455  0.2439
   28DES    CC1  385  15.370   5.930   7.809 -0.3138  0.1605 -0.2578
   28DES    CC1  386  15.584   5.935   7.730  0.2297  0.3583  0.4751
   28DES    NCO  387  15.648   5.828   7.471  0.2430 -0.7231  0.0297
   28DES   CONH  388  15.600   6.007   8.193  0.2685  0.0194 -0.1095
   28DES    CC1  389  15.498   5.760   8.198  0.2051  0.1272 -0.1810
   28DES    CC1  390  15.565   5.590   8.292  0.3280 -0.0215 -0.2919
   28DES    CC1  391  15.585   5.427   8.434  0.3247 -0.0888  0.3176
   28DES    NCO  392  15.395   5.417   8.703  0.1440  0.1417  0.1014
   29DES    NCO  393   8.097   8.925  17.622  0.4724  0.1296 -0.5420
   29DES    CC1  394   7.884   8.762  17.840 -0.2016  0.1827  0.0506
   29DES    CC1  395   7.694   8.929  17.862  0.1332  0.2004  0.2759
   29DES    NCC  396   7.480   9.151  17.841  0.1927  0.0849 -0.3972
   29DES   CONH  397   7.494   9.436  17.989  0.0640 -0.2056  0.2822
   29DES    CC1  398   7.689   9.591  17.935 -0.0221 -0.0993 -0.3987
   29DES    CC1  399   7.768   9.614  17.718  0.1889 -0.4672 -0.0369
   29DES    CC1  400   7.931   9.518  17.544 -0.0281 -0.2795  0.3076
   29DES    NCO  401   8.212   9.519  17.624 -0.1317 -0.2942  0.1754
   29DES   CONH  402   7.172   9.184  17.880  0.2526 -0.2384 -0.0112
   29DES    CC1  403   7.064   9.402  17.938 -0.4557 -0.4507 -0.0487
   29DES    CC1  404   7.128   9.430  18.205  0.2454 -0.0740 -0.2332
   29DES    CC1  405   7.057   9.433  18.430  0.0692  0.4242 -0.0886
   29DES    NCO  406   7.282   9.316  18.546  0.5722  0.1668 -0.0251
   30DES    NCO  407  13.154  14.741   7.226  0.5492 -0.2733  0.0609
   30DES    CC1  408  12.889  14.661   7.382 -0.0895  0.2891  0.1547
   30DES    CC1  409  12.671  14.624   7.242 -0.4056  0.3181 -0.1762
   30DES    NCC  410  12.420  14.590   7.277  0.2823  0.5415 -0.6146
   30DES   CONH  411  12.176  14.324   7.221  0.3907  0.0375  0.3386
   30DES    CC1  412  12.093  14.269   6.910 -0.0419 -0.1901  0.1349
   30DES    CC1  413  12.218  14.274   6.717 -0.3517  0.0791  0.0437
   30DES    CC1  414  12.293  14.321   6.446  0.1173  0.3542 -0.2952
   30DES    NCO  415  12.075  14.507   6.371 -0.6380 -0.0573  0.1354
   30DES   CONH  416  12.190  14.747   7.134  0.1551 -0.1085  0.1545
   30DES    CC1  417  12.118  14.641   6.879 -0.3028 -0.0578 -0.3226
   30DES    CC1  418  12.246  14.695   6.694 -0.0072 -0.3727 -0.0227
   30DES    CC1  419  12.421  14.714   6.500 -0.0077  0.3488  0.2111
   30DES    NCO  420  12.342  14.853   6.248 -0.1033 -0.1617  0.0679
   31DES    NCO  421   3.682   7.451   3.115 -0.0197  0.1138  0.4749
   31DES    CC1  422   3.390   7.303   3.035  0.5615 -0.2460 -0.0750
   31DES    CC1  423   3.278   7.115   3.189 -0.0375  0.2076 -0.1337
   31DES    NCC  424   3.316   6.878   3.357 -0.0657 -0.2334  0.0045
   31DES   CONH  425   3.135   6.751   3.577  0.1431  0.0122  0.0356
   31DES    CC1  426   3.225   6.743   3.833  0.3375 -0.2097  0.3814
   31DES    CC1  427   3.410   6.881   3.908  0.4817 -0.1163 -0.1905
   31DES    CC1  428   3.524   7.023   4.056  0.2857 -0.1297 -0.0362
   31DES    NCO  429   3.359   7.212   4.175 -0.2079  0.1281 -0.2922
   31DES   CONH  430   3.551   6.679   3.507  0.0535 -0.2330 -0.0342
   31DES    CC1  431   3.711   6.791   3.735 -0.1408  0.0912 -0.2286
   31DES    CC1  432   3.729   6.671   3.936 -0.0079  0.3063 -0.1339
   31DES    CC1  433   3.790   6.526   4.110 -0.0221 -0.1374  0.2100
   31DES    NCO  434   4.068   6.491   4.196  0.4497 -0.3619 -0.1195
   32DES    NCO  435   9.440   7.360   0.763  0.2820  0.4285 -0.0597
   32DES    CC1  436   9.307   7.640   0.705 -0.1032 -0.1633  0.0517
   32DES    CC1  437   9.406   7.808   0.829 -0.2966  0.4281  0.3735
   32DES    NCC  438   9.460   8.074   0.905  0.0305  0.3614 -0.2071
   32DES   CONH  439   9.688   8.219   1.079 -0.3420  0.1798 -0.0214
   32DES    CC1  440   9.855   8.385   0.986 -0.6900 -0.3245 -0.5317
   32DES    CC1  441  10.028   8.241   0.859 -0.4118 -0.2008 -0.0858
   32DES    CC1  442  10.112   8.095   0.707 -0.0145  0.1201  0.1825
   32DES    NCO  443  10.304   8.114   0.481  0.1831 -0.3268 -0.0057
   32DES   CONH  444   9.440   8.345   0.751 -0.0729  0.0083 -0.1104
   32DES    CC1  445   9.479   8.594   0.895  0.2005  0.4566  0.4011
   32DES    CC1  446   9.624   8.660   1.101 -0.2357  0.0073 -0.1170
   32DES    CC1  447   9.652   8.697   1.351 -0.1244  0.3589  0.0006
   32DES    NCO  448   9.508   8.491   1.480 -0.0522 -0.4494  0.0743
   33DES    NCO  449   0.701  15.554   7.931 -0.2142  0.3099 -0.0739
   33DES    CC1  450   0.835  15.790   7.876  0.2472 -0.3450  0.5050
   33DES    CC1  451   0.866  15.948   7.733 -0.2337  0.2890  0.2110
   33DES    NCC  452   0.899  16.182   7.639  0.0592 -0.1580  0.1414
   33DES   CONH  453   0.690  16.400   7.564  0.0377 -0.2186  0.0854
   33DES    CC1  454   0.588  16.391   7.353  0.6460 -0.1643 -0.6084
   33DES    CC1  455   0.652  16.310   7.175 -0.1690 -0.1361  0.1105
   33DES    CC1  456   0.672  16.246   6.930  0.4359  0.0026  0.0405
   33DES    NCO  457   0.788  16.420   6.796 -0.0549  0.1150  0.4100
   33DES   CONH  458   1.081  16.455   7.630  0.0270  0.5633 -0.0034
   33DES    CC1  459   1.151  16.561   7.848 -0.0737  0.4273 -0.2734
   33DES    CC1  460   1.263  16.476   8.016 -0.6920 -0.4592 -0.1831
   33DES    CC1  461   1.387  16.463   8.185 -0.7692 -0.0777 -0.0099
   33DES    NCO  462   1.304  16.241   8.354 -0.1080 -0.3871 -0.3888
   34DES    NCO  463   2.377  17.595  16.737  0.2104 -0.6821  0.2597
   34DES    CC1  464   2.459  17.360  16.801  0.0976 -0.2865 -0.1493
   34DES    CC1  465   2.683  17.295  16.722  0.0162 -0.3615 -0.0891
   34DES    NCC  466   2.966  17.359  16.766  0.4753  0.0127  0.3506
   34DES   CONH  467   3.124  17.642  16.767  0.0236 -0.2756  0.0616
   34DES    CC1  468   3.288  17.692  16.567  0.1030  0.1186 -0.0656
   34DES    CC1  469   3.472  17.611  16.525  0.0349  0.1430 -0.1743
   34DES    CC1  470   3.667  17.512  16.565 -0.1967 -0.1744  0.4977
   34DES    NCO  471   3.814  17.541  16.221 -0.4019  0.0701 -0.1421
   34DES   CONH  472   3.253  17.208  16.675  0.1062  0.1514 -0.2662
   34DES    CC1  473   3.397  17.295  16.497  0.4477  0.0298  0.0349
   34DES    CC1  474   3.446  17.243  16.268  0.1498  0.1923  0.5337
   34DES    CC1  475   3.523  17.132  16.083  0.0304  0.2084  0.3694
   34DES    NCO  476   3.456  16.857  16.074  0.0339  0.1348  0.1920
   35DES    NCO  477   1.442   6.964   9.295  0.0906 -0.4425  0.6071
   35DES    CC1  478   1.399   7.206   9.141 -0.1385  0.5335  0.1922
   35DES    CC1  479   1.329   7.358   9.318 -0.2315 -0.4995  0.1480
   35DES    NCC  480   1.231   7.576   9.475  0.1444  0.3128  0.2142
   35DES   CONH  481   0.982   7.621   9.644  0.1036 -0.1655 -0.1099
   35DES    CC1  482   0.965   7.469   9.907 -0.1294  0.1356 -0.2908
   35DES    CC1  483   0.928   7.200   9.888  0.3182  0.0822  0.0768
   35DES    CC1  484   0.943   6.964   9.962 -0.1972 -0.0849 -0.1823
   35DES    NCO  485   1.146   6.831  10.183 -0.4454  0.4165 -0.2035
   35DES   CONH  486   1.259   7.872   9.415  0.2725 -0.3671  0.0302
   35DES    CC1  487   1.015   8.012   9.282  0.1154  0.0011  0.1394
   35DES    CC1  488   1.066   8.092   9.072  0.0975  0.2621 -0.1493
   35DES    CC1  489   1.195   8.127   8.896 -0.2326 -0.1390 -0.0380
   35DES    NCO  490   1.123   8.391   8.743  0.1314  0.1083  0.3075
   36DES    NCO  491   3.471   8.219   3.787 -0.1518 -0.2355 -0.0313
   36DES    CC1  492   3.682   8.005   3.827  0.1473 -0.3075  0.0323
   36DES    CC1  493   3.553   7.839   3.674 -0.4005  0.0419 -0.0598
   36DES    NCC  494   3.432   7.634   3.556 -0.0633  0.0229 -0.1079
   36DES   CONH  495   3.242   7.612   3.295 -0.2301  0.2078  0.0641
   36DES    CC1  496   3.037   7.395   3.263  0.4642  1.1988 -0.1037
   36DES    CC1  497   3.030   7.300   3.015 -0.1714  0.0988  0.2542
   36DES    CC1  498   3.085   7.139   2.860 -0.1286  0.4578 -0.7652
   36DES    NCO  499   3.133   7.293   2.605 -0.3598  0.6206  0.1451
   36DES   CONH  500   3.492   7.305   3.504 -0.2505  0.2848  0.0234
   36DES    CC1  501   3.586   7.121   3.698 -0.1299 -0.0394  0.2582
   36DES    CC1  502   3.799   7.130   3.812 -0.2156 -0.0576  0.5892
   36DES    CC1  503   3.969   7.046   3.969 -0.2921  0.0058 -0.1590
   36DES    NCO  504   4.206   6.983   3.810 -0.0111 -0.0677  0.4757
   37DES    NCO  505   8.543   6.376  16.092  0.2471  0.1454  0.3469
   37DES    CC1  506   8.452   6.437  16.385  0.0401 -0.1382  0.0198
   37DES    CC1  507   8.499   6.253  16.495  0.3122  0.2484  0.1616
   37DES    NCC  508   8.422   5.958  16.516  0.3398 -0.2368 -0.0176
   37DES   CONH  509   8.392   5.779  16.759 -0.0845  0.3178  0.4520
   37DES    CC1  510   8.383   5.513  16.763  0.0168  0.4688  0.1481
   37DES    CC1  511   8.263   5.364  16.860 -0.0770 -0.2767 -0.0634
   37DES    CC1  512   8.140   5.215  16.947 -0.5563  0.5864 -0.0931
   37DES    NCO  513   8.275   4.978  17.003  0.1879  0.0138 -0.3063
   37DES   CONH  514   8.449   5.687  16.317  0.2281 -0.1140 -0.3840
   37DES    CC1  515   8.453   5.437  16.452  0.0361 -0.6433 -0.1014
   37DES    CC1  516   8.614   5.325  16.368  0.2182 -0.2531  0.0349
   37DES    CC1  517   8.783   5.102  16.336  0.2303  0.2205 -0.3578
   37DES    NCO  518   8.743   4.879  16.146  0.3817  0.0394 -0.2646
   38DES    NCO  519   4.626   0.216   3.599  0.5061 -0.1849  0.4496
   38DES    CC1  520   4.563   0.107   3.818  0.2465  0.0520 -0.0679
   38DES    CC1  521   4.630   0.150   4.067  0.3540  0.0317 -0.0216
   38DES    NCC  522   4.757   0.275   4.245 -0.0197  0.2093  0.1267
   38DES   CONH  523   5.059   0.435   4.248  0.2622  0.0142 -0.1637
   38DES    CC1  524   5.254   0.358   4.115 -0.2231 -0.0422 -0.3932
   38DES    CC1  525   5.475   0.386   4.178 -0.4032  0.0803 -0.2360
   38DES    CC1  526   5.759   0.359   4.095  0.2897 -0.3355  0.1568
   38DES    NCO  527   5.978   0.465   4.248 -0.4593  0.0440  0.3504
   38DES   CONH  528   4.774   0.345   4.553  0.6346  0.0322 -0.1931
   38DES    CC1  529   4.594   0.316   4.750  0.0262  0.1201  0.3812
   38DES    CC1  530   4.391   0.406   4.735 -0.0618  0.0351 -0.1845
   38DES    CC1  531   4.264   0.596   4.742 -0.5998  0.2950  0.4070
   38DES    NCO  532   4.239   0.852   4.833  0.1067  0.4411 -0.5910
   39DES    NCO  533   1.472  16.120   7.975 -0.2753 -0.5366  0.9041
   39DES    CC1  534   1.201  16.068   7.897 -0.1910 -0.1089  0.1906
   39DES    CC1  535   1.036  16.182   8.009  0.1590  0.0799 -0.0617
   39DES    NCC  536   0.887  16.384   8.096  0.0492 -0.3070  0.0955
   39DES   CONH  537   0.760  16.667   7.968 -0.5682  0.3925 -0.2440
   39DES    CC1  538   0.927  16.809   7.801  0.0918  0.4039  0.3653
   39DES    CC1  539   1.107  16.888   7.921 -0.1481  0.1349 -0.1580
   39DES    CC1  540   1.301  16.972   7.934  0.4959 -0.0775  0.1844
   39DES    NCO  541   1.462  16.888   7.680  0.3052 -0.1864  0.3446
   39DES   CONH  542   0.938  16.607   8.322  0.0345 -0.5269 -0.3810
   39DES    CC1  543   1.072  16.558   8.535 -0.4875  0.1627  0.2445
   39DES    CC1  544   1.018  16.388   8.676  0.3571 -0.0012  0.2810
   39DES    CC1  545   1.062  16.226   8.819  0.2539 -0.1303 -0.0028
   39DES    NCO  546   0.784  16.099   8.853  0.3650  0.0936  0.0350
   40DES    NCO  547  16.026   7.416  11.751 -0.0531 -0.3848 -0.1521
   40DES    CC1  548  15.732   7.464  11.820  0.1336  0.0177  0.0453
   40DES    CC1  549  15.653   7.282  11.915  0.0075  0.1600  0.3565
   40DES    NCC  550  15.669   7.057  12.077  0.1732 -0.2779  0.3497
   40DES   CONH  551  15.711   7.071  12.395  0.2258  0.0728  0.0504
   40DES    CC1  552  15.583   7.243  12.538  0.1132  0.1054 -0.2444
   40DES    CC1  553  15.622   7.515  12.501 -0.2324 -0.3335 -0.2052
   40DES    CC1  554  15.661   7.761  12.533 -0.2954  0.2829  0.3409
   40DES    NCO  555  15.948   7.880  12.562  0.1822  0.3729 -0.2868
   40DES   CONH  556  15.836   6.765  12.121  0.0820  0.3068 -0.2782
   40DES    CC1  557  15.800   6.573  12.344 -0.0834  0.0896  0.1553
   40DES    CC1  558  15.633   6.417  12.310  0.0626 -0.1579 -0.0676
   40DES    CC1  559  15.460   6.256  12.207 -0.1222  0.2639  0.0624
   40DES    NCO  560  15.522   6.142  11.937 -0.0355 -0.0485  0.1117
   41PEG    COH  561   1.501  16.150   1.919  0.0210  0.1485 -0.1268
   41PEG    COC  562   1.260  16.166   1.809 -0.5128 -0.1006  0.0966
   41PEG    COC  563   1.172  16.399   1.622  0.1376 -0.4814 -0.2585
   41PEG    COC  564   1.310  16.674   1.733  0.2942 -0.4021 -0.3646
   41PEG    COC  565   1.281  16.932   1.600  0.1486  0.1683  0.3810
   41PEG    COC  566   1.151  17.192   1.560 -0.3713  0.1631  0.1153
   41PEG    COC  567   0.926  17.229   1.395 -0.2221  0.0813  0.2565
   41PEG    COC  568   0.916  17.551   1.411  0.2979 -0.2810  0.4092
   41PEG    COC  569   1.186  17.626   1.301 -0.1303 -0.3303 -0.1269
   41PEG    COC  570   1.275  17.766   1.054  0.1452  0.1870 -0.0664
   41PEG    COC  571   1.358  18.072   1.015 -0.2468 -0.1292  0.1589
   41PEG    COC  572   1.425  18.280   1.224  0.0378  0.0034  0.0170
   41PEG    COC  573   1.405  18.583   1.160  0.5204  0.4010 -0.0559
   41PEG    COC  574   1.421  18.848   1.005  0.1351  0.1017 -0.0865
   41PEG    COC  575   1.565  19.053   1.155  0.2181  0.0797 -0.1278
   41PEG    COC  576   1.639  19.286   1.276 -0.2530  0.0693  0.0551
   41PEG    COC  577   1.585  19.526   1.051 -0.0634 -0.1523  0.1557
   41PEG    COC  578   1.722  19.592   0.801 -0.0312 -0.1582 -0.0557
   41PEG    COC  579   1.806  19.529   0.503  0.2635  0.0394  0.0450
   41PEG    COC  580   1.851  19.755   0.284 -0.2036 -0.4061 -0.0269
   41PEG    COC  581   1.987  19.661   0.054  0.0064 -0.0965 -0.0991
   41PEG    COC  582   2.282  19.734  -0.049 -0.2531 -0.2738 -0.4237
   41PEG    COC  583   2.396  19.603  -0.280  0.1613  0.3856  0.3585
   41PEG    COC  584   2.347  19.667  -0.566 -0.0329  0.1980  0.0440
   41PEG    COC  585   2.259  19.907  -0.731  0.0840  0.0189 -0.1747
   41PEG    COC  586   2.336  19.952  -1.023 -0.0303 -0.0097 -0.3170
   41PEG    COC  587   2.577  20.022  -1.107 -0.3505 -0.1394  0.0808
   41PEG    COC  588   2.900  20.057  -1.205  0.1812 -0.0122 -0.0504
   41PEG    COC  589   2.875  20.127  -1.506 -0.1871 -0.0966  0.4665
   41PEG    COC  590   3.088  20.373  -1.562  0.2807  0.2270  0.1812
   41PEG    COC  591   3.182  20.444  -1.297  0.0427 -0.4394  0.3423
   41PEG    COC  592   3.019  20.742  -1.291 -0.1539  0.3227 -0.2392
   41PEG    COC  593   2.760  20.653  -1.410 -0.2774 -0.0996  0.1531
   41PEG    COC  594   2.598  20.407  -1.295 -0.1335 -0.1372 -0.1510
   41PEG    COC  595   2.442  20.369  -1.526 -0.0263 -0.4801 -0.1447
   41PEG    COC  596   2.668  20.416  -1.729  0.1084 -0.4366  0.1554
   41PEG    COC  597   2.488  20.325  -1.949 -0.1692 -0.1675  0.0708
   41PEG    COC  598   2.507  20.539  -2.192  0.1105  0.0609 -0.1875
   41PEG    COC  599   2.754  20.769  -2.099 -0.1198  0.0101  0.1473
   41PEG    COC  600   2.896  20.946  -2.266  0.2310  0.3351 -0.2182
   41PEG    COC  601   2.756  20.951  -2.564  0.4465 -0.2654  0.1593
   41PEG    COC  602   2.639  21.155  -2.726 -0.1387  0.0394 -0.0230
   41PEG    COC  603   2.375  21.057  -2.793  0.4918 -0.1008  0.0651
   41PEG    COC  604   2.235  21.346  -2.844 -0.0286 -0.0523 -0.0432
   41PEG    COC  605   1.937  21.353  -2.895  0.0643  0.1573  0.1992
   41PEG    COH  606   1.747  21.234  -2.995 -0.1108  0.2391  0.1801
   42PEG    COH  607   3.281  14.427   0.903  0.4312  0.5440  0.0136
   42PEG    COC  608   3.514  14.325   1.004 -0.4067 -0.3986  0.1466
   42PEG    COC  609   3.671  14.206   1.212 -0.1150 -0.1649  0.1817
   42PEG    COC  610   3.744  14.017   1.421 -0.3934 -0.1709  0.0547
   42PEG    COC  611   3.535  14.070   1.647 -0.2314 -0.3996  0.2393
   42PEG    COC  612   3.326  14.243   1.502 -0.3952 -0.1762 -0.1955
   42PEG    COC  613   3.028  14.193   1.615 -0.1302  0.1117 -0.0065
   42PEG    COC  614   2.868  14.454   1.586  0.6918 -0.1173  0.2414
   42PEG    COC  615   2.983  14.772   1.640 -0.0067 -0.1739  0.1884
   42PEG    COC  616   3.103  14.895   1.898  0.1263  0.1286 -0.1595
   42PEG    COC  617   3.197  15.207   1.939 -0.0591 -0.4284  0.4850
   42PEG    COC  618   3.282  15.257   1.633  0.0778  0.0117 -0.0911
   42PEG    COC  619   3.408  14.958   1.535  0.4592 -0.1186 -0.0177
   42PEG    COC  620   3.634  14.898   1.322  0.2210  0.1560 -0.0307
   42PEG    COC  621   3.918  14.945   1.354 -0.1138 -0.0547 -0.2489
   42PEG    COC  622   4.088  14.680   1.297 -0.2578 -0.0457  0.4360
   42PEG    COC  623   4.024  14.401   1.351 -0.2123  0.0750  0.5852
   42PEG    COC  624   4.147  14.223   1.574  0.3880 -0.1507 -0.2968
   42PEG    COC  625   4.449  14.170   1.665  0.4252  0.2716 -0.1301
   42PEG    COC  626   4.646  14.361   1.707 -0.5095 -0.4747  0.1405
   42PEG    COC  627   4.866  14.280   1.523  0.0035  0.0695 -0.1744
   42PEG    COC  628   5.142  14.334   1.653 -0.1532  0.2361  0.0493
   42PEG    COC  629   5.379  14.502   1.619 -0.1538 -0.2191  0.0997
   42PEG    COC  630   5.308  14.756   1.726  0.0633 -0.0812  0.1139
   42PEG    COC  631   5.339  15.009   1.560 -0.2357  0.0107 -0.0407
   42PEG    COC  632   5.151  14.952   1.348 -0.1133  0.1158  0.0232
   42PEG    COC  633   5.112  14.665   1.294 -0.1135 -0.1686  0.2946
   42PEG    COC  634   4.868  14.526   1.096 -0.6696 -0.0490  0.1318
   42PEG    COC  635   5.004  14.260   1.070  0.3394 -0.1073  0.3251
   42PEG    COC  636   4.943  14.183   0.738  0.4562  0.0184 -0.1328
   42PEG    COC  637   4.860  14.040   0.503 -0.1989  0.0009 -0.1652
   42PEG    COC  638   5.106  13.854   0.473 -0.1992  0.1311 -0.0973
   42PEG    COC  639   5.317  14.011   0.375 -0.4372 -0.1646  0.0641
   42PEG    COC  640   5.227  14.280   0.440  0.1501  0.2156 -0.0049
   42PEG    COC  641   5.446  14.446   0.397 -0.3950 -0.3103 -0.3660
   42PEG    COC  642   5.702  14.326   0.468  0.0290 -0.2720 -0.3631
   42PEG    COC  643   5.719  14.373   0.752  0.4446  0.0483 -0.1022
   42PEG    COC  644   5.623  14.616   0.918 -0.0827  0.0541 -0.3396
   42PEG    COC  645   5.542  14.536   1.176  0.1665  0.0207 -0.3306
   42PEG    COC  646   5.701  14.298   1.306  0.1060 -0.2866  0.2119
   42PEG    COC  647   5.855  14.096   1.468 -0.2072  0.2097 -0.0368
   42PEG    COC  648   5.996  14.110   1.721  0.4394 -0.1738 -0.0174
   42PEG    COC  649   5.893  14.403   1.769  0.5643 -0.1415 -0.2942
   42PEG    COC  650   5.894  14.415   2.077 -0.0808 -0.0296 -0.0608
   42PEG    COC  651   5.786  14.201   2.297 -0.0505 -0.1377  0.4794
   42PEG    COH  652   5.524  14.227   2.367  0.0968 -0.3690 -0.1548
   43PEG    COH  653   7.330   0.921  16.183 -0.1154 -0.4309 -0.3146
   43PEG    COC  654   7.290   0.797  16.406  0.0033 -0.1920 -0.1273
   43PEG    COC  655   7.177   0.561  16.585  0.2377 -0.7602 -0.3487
   43PEG    COC  656   7.265   0.285  16.588 -0.0361 -0.3343  0.3119
   43PEG    COC  657   7.568   0.295  16.639  0.0888  0.1119 -0.2332
   43PEG    COC  658   7.843   0.156  16.548 -0.0083  0.1512  0.1821
   43PEG    COC  659   8.075   0.101  16.789 -0.2504 -0.5857  0.1039
   43PEG    COC  660   7.979  -0.041  17.043  0.5823 -0.1546 -0.2816
   43PEG    COC  661   7.854  -0.325  17.039 -0.0656 -0.1620  0.0976
   43PEG    COC  662   7.627  -0.378  17.208 -0.0486 -0.0915  0.4254
   43PEG    COC  663   7.411  -0.203  17.123 -0.3447  0.0946 -0.3049
   43PEG    COC  664   7.295   0.052  17.212 -0.0137  0.1151 -0.1926
   43PEG    COC  665   7.139   0.259  16.985 -0.0546 -0.1294 -0.1745
   43PEG    COC  666   6.871   0.374  17.079 -0.3662  0.3465  0.2393
   43PEG    COC  667   6.810   0.589  17.281  0.0758 -0.0806  0.0561
   43PEG    COC  668   6.746   0.870  17.206  0.0231 -0.2347 -0.0776
   43PEG    COC  669   6.461   0.886  17.023 -0.2658  0.0144 -0.2272
   43PEG    COC  670   6.293   0.959  16.789 -0.0512 -0.0562  0.4351
   43PEG    COC  671   6.014   1.075  16.764 -0.0521  0.0717  0.0636
   43PEG    COC  672   6.105   1.343  16.684 -0.0788 -0.1627  0.2420
   43PEG    COC  673   6.242   1.596  16.634 -0.0185  0.0625  0.0220
   43PEG    COC  674   6.356   1.467  16.361  0.2491 -0.2212 -0.0927
   43PEG    COC  675   6.147   1.246  16.264  0.2880 -0.0172  0.0657
   43PEG    COC  676   6.353   1.023  16.343  0.2049 -0.3243 -0.3153
   43PEG    COC  677   6.621   1.113  16.233 -0.3507  0.0769  0.3401
   43PEG    COC  678   6.866   0.952  16.329  0.2560 -0.1605  0.1230
   43PEG    COC  679   6.944   0.815  16.098 -0.0109 -0.1494 -0.1465
   43PEG    COC  680   6.754   0.828  15.832  0.0594 -0.2641  0.0162
   43PEG    COC  681   6.896   0.923  15.578 -0.0579  0.0344  0.0010
   43PEG    COC  682   6.973   1.158  15.398 -0.1038 -0.2234 -0.2410
   43PEG    COC  683   6.713   1.165  15.295 -0.2545 -0.1727 -0.1730
   43PEG    COC  684   6.509   1.207  15.532 -0.0260  0.1541  0.2719
   43PEG    COC  685   6.465   1.503  15.493 -0.1021  0.0120 -0.3110
   43PEG    COC  686   6.651   1.710  15.627 -0.1416  0.3268 -0.3549
   43PEG    COC  687   6.845   1.824  15.442 -0.0965 -0.4956  0.3197
   43PEG    COC  688   7.020   1.575  15.317  0.2156  0.2857  0.3260
   43PEG    COC  689   7.307   1.474  15.245 -0.0299 -0.1934 -0.2066
   43PEG    COC  690   7.478   1.205  15.259 -0.2082  0.1617 -0.1451
   43PEG    COC  691   7.501   1.041  14.990 -0.3841 -0.0522  0.0524
   43PEG    COC  692   7.700   0.904  14.789  0.1567 -0.2405 -0.1198
   43PEG    COC  693   7.991   1.063  14.848  0.0645  0.0418 -0.0211
   43PEG    COC  694   8.103   0.978  14.566 -0.3323  0.1007  0.4856
   43PEG    COC  695   8.035   0.725  14.417 -0.4047 -0.3288  0.3348
   43PEG    COC  696   8.070   0.664  14.112  0.3494 -0.2142 -0.0945
   43PEG    COC  697   8.182   0.379  14.018  0.0194  0.2023  0.0105
   43PEG    COH  698   7.999   0.176  14.073  0.0223  0.1185  0.0341
   44PEG    COH  699   3.763  11.831   7.284 -0.2174  0.0215 -0.0466
   44PEG    COC  700   3.824  11.898   7.531  0.2838  0.0229 -0.3030
   44PEG    COC  701   4.006  12.171   7.468  0.2889 -0.0265 -0.1989
   44PEG    COC  702   3.905  12.372   7.727  0.3461  0.2189 -0.0034
   44PEG    COC  703   3.642  12.273   7.852 -0.0989  0.0333 -0.0575
   44PEG    COC  704   3.441  12.514   7.889 -0.3265  0.0747  0.2330
   44PEG    COC  705   3.238  12.452   8.107  0.3518  0.1971 -0.1305
   44PEG    COC  706   3.040  12.311   8.327 -0.2818 -0.1133 -0.1461
   44PEG    COC  707   2.788  12.258   8.175 -0.0581 -0.0966 -0.3553
   44PEG    COC  708   2.739  11.950   8.089  0.1666 -0.0566  0.0198
   44PEG    COC  709   3.000  11.828   7.951  0.1915 -0.1014 -0.0711
   44PEG    COC  710   3.220  12.035   7.862 -0.1425 -0.2328  0.0746
   44PEG    COC  711   3.349  11.998   7.578 -0.1472 -0.1378 -0.1628
   44PEG    COC  712   3.544  12.224   7.431  0.0848  0.0490  0.0956
   44PEG    COC  713   3.409  12.477   7.418 -0.0465  0.3215 -0.1573
   44PEG    COC  714   3.525  12.742   7.370  0.0501  0.0195  0.0210
   44PEG    COC  715   3.794  12.772   7.531 -0.0745 -0.2748  0.3034
   44PEG    COC  716   3.964  13.039   7.561  0.0243 -0.0649  0.0550
   44PEG    COC  717   3.972  13.292   7.442  0.1172  0.5944 -0.0738
   44PEG    COC  718   3.673  13.329   7.466  0.0087  0.7313 -0.1180
   44PEG    COC  719   3.616  13.554   7.701 -0.0063  0.3565 -0.1301
   44PEG    COC  720   3.489  13.766   7.867 -0.1852 -0.0398  0.0405
   44PEG    COC  721   3.241  13.927   7.823 -0.1058  0.4205  0.0505
   44PEG    COC  722   3.097  14.169   7.824 -0.0639  0.0578  0.1814
   44PEG    COC  723   3.004  14.275   7.555  0.2406  0.1144 -0.1045
   44PEG    COC  724   3.072  14.444   7.306 -0.3816  0.2515 -0.3410
   44PEG    COC  725   2.959  14.471   7.044 -0.3918  0.1868 -0.2543
   44PEG    COC  726   2.929  14.251   6.822  0.0713 -0.0494 -0.1484
   44PEG    COC  727   3.121  14.348   6.619 -0.0841  0.1660  0.2987
   44PEG    COC  728   3.157  14.654   6.537  0.2961  0.5010 -0.2653
   44PEG    COC  729   3.431  14.785   6.569  0.2188 -0.1315  0.2509
   44PEG    COC  730   3.623  14.849   6.797  0.3326 -0.2109  0.4447
   44PEG    COC  731   3.532  15.128   6.978 -0.3382  0.0988  0.2081
   44PEG    COC  732   3.570  15.417   6.849  0.3131 -0.3143 -0.2152
   44PEG    COC  733   3.489  15.340   6.565 -0.2717  0.0706  0.0070
   44PEG    COC  734   3.410  15.559   6.356 -0.1647 -0.2776  0.0056
   44PEG    COC  735   3.508  15.808   6.180  0.1953  0.0524 -0.3668
   44PEG    COC  736   3.320  15.909   5.982 -0.1861  0.0637  0.1489
   44PEG    COC  737   3.255  15.751   5.753  0.2174  0.2578 -0.1981
   44PEG    COC  738   3.344  15.457   5.757 -0.2728  0.0237 -0.0066
   44PEG    COC  739   3.237  15.216   5.860  0.2522  0.3971  0.0932
   44PEG    COC  740   3.472  15.070   5.976  0.4774  0.0703 -0.0886
   44PEG    COC  741   3.402  14.811   6.040  0.3556 -0.0843 -0.6048
   44PEG    COC  742   3.586  14.618   6.242 -0.0417  0.1181  0.0194
   44PEG    COC  743   3.862  14.480   6.221  0.0888 -0.3152 -0.3049
   44PEG    COH  744   3.965  14.385   6.419 -0.0116 -0.0396 -0.1316
   45PEG    COH  745  13.724   3.045   5.983  0.0786  0.3219  0.1724
   45PEG    COC  746  13.636   3.133   6.202  0.1752 -0.4498  0.0448
   45PEG    COC  747  13.887   3.260   6.317 -0.0836 -0.1521 -0.0394
   45PEG    COC  748  14.112   3.129   6.507  0.3351  0.0030  0.5316
   45PEG    COC  749  14.073   3.290   6.775 -0.4752 -0.2562 -0.2653
   45PEG    COC  750  14.117   3.174   7.045  0.0842 -0.0086  0.1773
   45PEG    COC  751  14.116   2.969   7.258 -0.2193  0.1858 -0.1982
   45PEG    COC  752  13.990   2.736   7.161  0.0168  0.2167  0.3889
   45PEG    COC  753  13.743   2.717   7.038  0.4683  0.0865  0.0322
   45PEG    COC  754  13.600   2.831   7.254  0.2320  0.2613  0.0333
   45PEG    COC  755  13.626   3.112   7.441  0.0566  0.0103 -0.1924
   45PEG    COC  756  13.827   3.311   7.338  0.5803  0.2471 -0.3875
   45PEG    COC  757  14.108   3.410   7.436 -0.1559  0.0292 -0.1060
   45PEG    COC  758  14.245   3.550   7.166  0.3165  0.1050 -0.1992
   45PEG    COC  759  14.520   3.438   7.064  0.0727 -0.0476  0.1203
   45PEG    COC  760  14.739   3.504   6.875  0.2929  0.0689  0.5702
   45PEG    COC  761  14.921   3.300   6.730  0.0637  0.5277  0.3130
   45PEG    COC  762  15.170   3.278   6.623  0.1186  0.2444  0.2646
   45PEG    COC  763  15.348   3.070   6.573  0.3968  0.1529 -0.2004
   45PEG    COC  764  15.640   3.051   6.682  0.6588 -0.0707  0.3411
   45PEG    COC  765  15.735   2.887   6.459  0.2115  0.0638 -0.1023
   45PEG    COC  766  16.030   2.849   6.496  0.2627  0.2265 -0.0598
   45PEG    COC  767  16.094   3.016   6.727  0.0300  0.3883 -0.3831
   45PEG    COC  768  16.378   3.128   6.729  0.4116  0.3912 -0.2633
   45PEG    COC  769  16.377   3.195   7.003 -0.0782 -0.2252 -0.2482
   45PEG    COC  770  16.464   3.396   7.206  0.0730  0.0862 -0.0019
   45PEG    COC  771  16.735   3.565   7.224 -0.3620  0.2301  0.0909
   45PEG    COC  772  16.952   3.602   7.011 -0.3480 -0.1002 -0.2770
   45PEG    COC  773  17.211   3.520   7.062 -0.1639  0.0900 -0.1684
   45PEG    COC  774  17.353   3.590   6.817  0.4187  0.1703 -0.0201
   45PEG    COC  775  17.515   3.774   6.838  0.0607 -0.0261 -0.3501
   45PEG    COC  776  17.466   3.940   7.068 -0.2090 -0.2771  0.1594
   45PEG    COC  777  17.331   4.216   6.976 -0.0058 -0.0107 -0.5104
   45PEG    COC  778  17.349   4.446   6.775  0.2264 -0.0964  0.1609
   45PEG    COC  779  17.187   4.480   6.508  0.1747 -0.0483 -0.1268
   45PEG    COC  780  17.230   4.536   6.237 -0.3262  0.2756 -0.1966
   45PEG    COC  781  17.365   4.298   6.075 -0.2869 -0.1284  0.3714
   45PEG    COC  782  17.404   4.320   5.769  0.4738 -0.1236  0.2285
   45PEG    COC  783  17.357   4.162   5.521 -0.2811  0.0850 -0.0212
   45PEG    COC  784  17.157   4.229   5.255  0.3742 -0.3297 -0.1732
   45PEG    COC  785  16.939   4.456   5.269 -0.5693  0.0673 -0.1223
   45PEG    COC  786  16.692   4.491   5.070  0.0666 -0.1444 -0.1425
   45PEG    COC  787  16.391   4.483   5.057 -0.2950  0.0720 -0.4952
   45PEG    COC  788  16.341   4.527   4.757  0.1275  0.2235 -0.1208
   45PEG    COC  789  16.578   4.380   4.610 -0.1636  0.0180  0.0549
   45PEG    COH  790  16.410   4.311   4.415  0.1170 -0.0006 -0.4736
   46PEG    COH  791   4.091   9.525   5.045 -0.3064  0.1898 -0.2755
   46PEG    COC  792   4.206   9.271   5.028  0.0578 -0.3448  0.0170
   46PEG    COC  793   4.135   9.063   5.218 -0.1016  0.0467 -0.2781
   46PEG    COC  794   4.133   9.067   5.541  0.2721  0.1663  0.1991
   46PEG    COC  795   3.897   8.960   5.674 -0.1689  0.3870 -0.4119
   46PEG    COC  796   3.726   8.723   5.650 -0.0973  0.1401  0.0517
   46PEG    COC  797   3.663   8.487   5.444  0.5878  0.3525 -0.8767
   46PEG    COC  798   3.486   8.502   5.237 -0.2746 -0.4248 -0.2791
   46PEG    COC  799   3.239   8.407   5.299  0.1844  0.2718  0.2405
   46PEG    COC  800   3.066   8.268   5.115 -0.1930  0.1433  0.0131
   46PEG    COC  801   2.791   8.140   5.187  0.0076 -0.2393 -0.3120
   46PEG    COC  802   2.796   7.906   5.359 -0.3073  0.0127 -0.1988
   46PEG    COC  803   3.034   7.788   5.376  0.1987 -0.2303 -0.0408
   46PEG    COC  804   3.078   7.477   5.336 -0.4525  0.0422 -0.0444
   46PEG    COC  805   3.039   7.233   5.537 -0.0685  0.0521  0.2733
   46PEG    COC  806   3.174   7.313   5.775 -0.2494 -0.0886  0.2612
   46PEG    COC  807   3.166   7.477   6.012  0.0541 -0.1939  0.0293
   46PEG    COC  808   3.226   7.739   5.829 -0.4576  0.1846 -0.1938
   46PEG    COC  809   2.970   7.850   5.797 -0.0976  0.1333  0.0050
   46PEG    COC  810   2.783   8.081   5.765 -0.2703  0.3482  0.1444
   46PEG    COC  811   2.936   8.256   5.582  0.0230  0.4303  0.2604
   46PEG    COC  812   2.868   8.545   5.551  0.2744 -0.0983  0.3749
   46PEG    COC  813   2.722   8.766   5.343 -0.0986  0.1392  0.2130
   46PEG    COC  814   2.690   8.600   5.084 -0.3664  0.0124 -0.0776
   46PEG    COC  815   2.447   8.587   4.890  0.0361  0.3044 -0.1980
   46PEG    COC  816   2.212   8.411   4.901 -0.3744 -0.0618  0.4621
   46PEG    COC  817   1.951   8.528   4.837  0.0196 -0.2037  0.2706
   46PEG    COC  818   1.809   8.625   4.562  0.1865 -0.2670 -0.3374
   46PEG    COC  819   1.537   8.572   4.492  0.0973  0.0139  0.0709
   46PEG    COC  820   1.374   8.636   4.226 -0.0336  0.1044 -0.0221
   46PEG    COC  821   1.486   8.808   4.006  0.1325 -0.3064  0.0653
   46PEG    COC  822   1.249   8.989   3.840  0.1676 -0.1964  0.3344
   46PEG    COC  823   1.209   9.190   3.597  0.4016 -0.0126 -0.4485
   46PEG    COC  824   1.123   9.058   3.339 -0.1918  0.3001 -0.1618
   46PEG    COC  825   1.231   9.257   3.101 -0.2073  0.1037 -0.2047
   46PEG    COC  826   1.442   9.478   3.189 -0.2477  0.0200 -0.3325
   46PEG    COC  827   1.397   9.564   3.514  0.3320  0.2423 -0.2383
   46PEG    COC  828   1.387   9.706   3.749 -0.0758 -0.2212 -0.2444
   46PEG    COC  829   1.645   9.776   3.926  0.0910 -0.0153 -0.0819
   46PEG    COC  830   1.824   9.716   4.155 -0.0081 -0.2431  0.0784
   46PEG    COC  831   2.133   9.766   4.129 -0.0062  0.0336 -0.0842
   46PEG    COC  832   2.318   9.941   4.307  0.1149 -0.4799 -0.0198
   46PEG    COC  833   2.646  10.006   4.291 -0.3779  0.1727  0.2027
   46PEG    COC  834   2.890   9.816   4.157 -0.0251  0.4904  0.3174
   46PEG    COC  835   3.189   9.879   4.254 -0.0859  0.4235 -0.3650
   46PEG    COH  836   3.294   9.759   4.075 -0.1915  0.2963 -0.0652
   47PEG    COH  837   1.884   6.553  17.687 -0.1764 -0.4738 -0.1060
   47PEG    COC  838   1.685   6.682  17.812  0.0938  0.0606 -0.2385
   47PEG    COC  839   1.690   6.976  17.789  0.0522  0.1762  0.3456
   47PEG    COC  840   1.413   7.106  17.721 -0.0473  0.5013  0.0801
   47PEG    COC  841   1.207   6.898  17.791 -0.0748 -0.0481  0.3145
   47PEG    COC  842   0.927   6.975  17.675 -0.0851  0.0689  0.0336
   47PEG    COC  843   0.949   6.938  17.381 -0.2965  0.3459  0.0473
   47PEG    COC  844   1.204   7.041  17.355 -0.3524  0.4194 -0.0238
   47PEG    COC  845   1.421   6.783  17.359 -0.2929  0.4003 -0.2135
   47PEG    COC  846   1.443   6.492  17.525  0.0014 -0.4767 -0.1644
   47PEG    COC  847   1.339   6.233  17.478  0.1108  0.4691  0.1730
   47PEG    COC  848   1.096   6.286  17.613 -0.1600 -0.0882  0.0544
   47PEG    COC  849   0.958   6.509  17.476  0.1932 -0.2675  0.1622
   47PEG    COC  850   0.752   6.462  17.260 -0.0325  0.1048  0.2387
   47PEG    COC  851   0.568   6.241  17.324 -0.1676 -0.1531  0.2852
   47PEG    COC  852   0.318   6.379  17.410 -0.3926  0.2153 -0.4339
   47PEG    COC  853   0.202   6.438  17.177 -0.1250  0.1170  0.5803
   47PEG    COC  854   0.074   6.675  17.029  0.0569  0.1085 -0.3273
   47PEG    COC  855  -0.063   6.750  16.774  0.0415 -0.1102  0.0242
   47PEG    COC  856  -0.155   7.019  16.633 -0.0396 -0.0645 -0.4487
   47PEG    COC  857  -0.110   7.040  16.341 -0.0186 -0.1375 -0.0567
   47PEG    COC  858  -0.089   6.762  16.228 -0.0891 -0.3523  0.0816
   47PEG    COC  859   0.048   6.497  16.318  0.1761 -0.0233 -0.3367
   47PEG    COC  860   0.279   6.375  16.501  0.2384  0.0006  0.1234
   47PEG    COC  861   0.364   6.432  16.763 -0.1560 -0.0387  0.3112
   47PEG    COC  862   0.498   6.214  16.935 -0.2789 -0.4403 -0.0783
   47PEG    COC  863   0.736   6.118  16.846  0.3971  0.7084 -0.1083
   47PEG    COC  864   0.972   6.104  17.036  0.4244 -0.3173 -0.2554
   47PEG    COC  865   1.064   5.889  17.245  0.0025 -0.0637 -0.3023
   47PEG    COC  866   1.287   5.606  17.194 -0.1236 -0.0505 -0.0006
   47PEG    COC  867   1.266   5.388  16.968 -0.1134  0.8349  0.4468
   47PEG    COC  868   1.400   5.140  16.929  0.1531 -0.2331  0.0002
   47PEG    COC  869   1.617   5.182  16.720 -0.0251  0.1810 -0.1362
   47PEG    COC  870   1.808   4.946  16.638 -0.0082  0.0835  0.2089
   47PEG    COC  871   1.782   4.814  16.375 -0.3142 -0.1071  0.2196
   47PEG    COC  872   1.652   4.876  16.078 -0.1565  0.1500 -0.0514
   47PEG    COC  873   1.811   4.684  15.892 -0.1754 -0.0678  0.0763
   47PEG    COC  874   1.986   4.818  15.646  0.0459 -0.4144 -0.2535
   47PEG    COC  875   2.069   5.161  15.719 -0.2410 -0.0985  0.3013
   47PEG    COC  876   1.987   5.177  15.982 -0.2584  0.5744  0.5052
   47PEG    COC  877   2.225   4.964  16.128  0.3464 -0.5661  0.2384
   47PEG    COC  878   2.387   4.835  15.922 -0.3075  0.0188 -0.1254
   47PEG    COC  879   2.372   4.574  15.745 -0.0781 -0.2785 -0.3353
   47PEG    COC  880   2.283   4.287  15.703  0.4794  0.0211  0.0286
   47PEG    COC  881   2.383   4.106  15.961 -0.1842  0.0195  0.0270
   47PEG    COH  882   2.608   4.033  15.968 -0.2539  0.2478 -0.0799
   48PEG    COH  883  16.299   7.543   9.300 -0.2979 -0.5245 -0.4924
   48PEG    COC  884  16.392   7.421   9.072  0.4044  0.0399 -0.0188
   48PEG    COC  885  16.621   7.242   9.139 -0.0436 -0.0778 -0.1116
   48PEG    COC  886  16.729   7.014   8.946  0.1344  0.1187 -0.1345
   48PEG    COC  887  16.633   6.838   8.758 -0.0265 -0.0725  0.1832
   48PEG    COC  888  16.697   6.954   8.467 -0.0974 -0.1605  0.1002
   48PEG    COC  889  16.980   6.894   8.356 -0.2598  0.3365 -0.0039
   48PEG    COC  890  17.261   6.996   8.377 -0.1772  0.3524 -0.2690
   48PEG    COC  891  17.468   7.026   8.152  0.4975  0.3480 -0.0194
   48PEG    COC  892  17.509   6.878   7.862 -0.3464 -0.1597  0.4885
   48PEG    COC  893  17.337   6.681   7.679  0.1161 -0.1093  0.1844
   48PEG    COC  894  17.082   6.473   7.748 -0.1976 -0.1553 -0.0595
   48PEG    COC  895  16.983   6.438   8.043 -0.1112 -0.1682 -0.1270
   48PEG    COC  896  17.242   6.428   8.241 -0.3070  0.0381  0.0826
   48PEG    COC  897  17.513   6.459   8.090 -0.0626  0.1223 -0.3163
   48PEG    COC  898  17.647   6.319   7.850 -0.1089 -0.0667 -0.1604
   48PEG    COC  899  17.463   6.146   7.695  0.3154  0.0970  0.1167
   48PEG    COC  900  17.417   6.165   7.367 -0.4514 -0.2305  0.2195
   48PEG    COC  901  17.618   6.088   7.140 -0.0821 -0.1293 -0.5083
   48PEG    COC  902  17.841   5.881   7.158  0.1478 -0.3390 -0.0764
   48PEG    COC  903  18.123   5.804   7.251  0.0313 -0.0612 -0.2769
   48PEG    COC  904  18.236   6.082   7.226 -0.1368  0.2347  0.3055
   48PEG    COC  905  18.542   6.086   7.097 -0.0373 -0.0368  0.0229
   48PEG    COC  906  18.742   6.253   7.241 -0.0706 -0.1517 -0.1799
   48PEG    COC  907  19.050   6.232   7.231  0.2499 -0.0882 -0.0208
   48PEG    COC  908  19.282   6.003   7.271  0.0530  0.0029 -0.0762
   48PEG    COC  909  19.322   5.833   7.005 -0.1149  0.3271 -0.1457
   48PEG    COC  910  19.534   5.678   6.896 -0.0030  0.2219  0.1787
   48PEG    COC  911  19.576   5.408   7.038 -0.3037  0.1586 -0.2731
   48PEG    COC  912  19.737   5.235   7.269  0.7125  0.2237  0.1614
   48PEG    COC  913  19.679   4.972   7.467 -0.0694  0.0775 -0.3468
   48PEG    COC  914  19.814   4.773   7.665  0.2007 -0.1939  0.3344
   48PEG    COC  915  20.035   4.956   7.835 -0.2748  0.2863 -0.1355
   48PEG    COC  916  19.866   5.020   8.089 -0.4174  0.3595 -0.6004
   48PEG    COC  917  19.579   5.055   8.097 -0.0100 -0.2209  0.2672
   48PEG    COC  918  19.517   5.001   8.407 -0.0007 -0.1106 -0.0979
   48PEG    COC  919  19.779   5.046   8.583 -0.0257 -0.0378 -0.0341
   48PEG    COC  920  20.050   5.166   8.502  0.1497  0.0285 -0.0304
   48PEG    COC  921  20.342   5.116   8.566  0.1462  0.3514 -0.0259
   48PEG    COC  922  20.609   5.276   8.664 -0.5771 -0.1086  0.0632
   48PEG    COC  923  20.771   5.501   8.533 -0.0829  0.0145 -0.1209
   48PEG    COC  924  20.763   5.786   8.551  0.0805  0.2790 -0.2121
   48PEG    COC  925  20.468   5.898   8.490 -0.1173  0.1594  0.3926
   48PEG    COC  926  20.455   6.183   8.569 -0.0791  0.2056 -0.1184
   48PEG    COC  927  20.720   6.313   8.653 -0.2637  0.2252 -0.3909
   48PEG    COH  928  20.706   6.370   8.917  0.0969 -0.0934 -0.0310
   49PEG    COH  929   8.045  17.712   7.665  0.0633 -0.1331 -0.1530
   49PEG    COC  930   7.800  17.757   7.731  0.1407  0.0548  0.1504
   49PEG    COC  931   7.556  17.627   7.775  0.0166  0.1698  0.2112
   49PEG    COC  932   7.491  17.430   8.005  0.3845 -0.1224 -0.1191
   49PEG    COC  933   7.636  17.278   8.211 -0.1132  0.2687  0.2632
   49PEG    COC  934   7.604  17.067   8.440  0.0145  0.2138 -0.0241
   49PEG    COC  935   7.575  17.127   8.752 -0.1013  0.1999 -0.2194
   49PEG    COC  936   7.447  17.329   8.881  0.1083  0.2049 -0.1174
   49PEG    COC  937   7.637  17.543   8.842 -0.2040  0.1344  0.0269
   49PEG    COC  938   7.693  17.622   9.154  0.3524  0.1567 -0.1081
   49PEG    COC  939   7.934  17.538   9.333  0.5635  0.1274 -0.5211
   49PEG    COC  940   7.999  17.279   9.494 -0.1113  0.4390  0.3221
   49PEG    COC  941   8.265  17.242   9.679 -0.0907 -0.3438  0.0161
   49PEG    COC  942   8.422  16.996   9.754  0.2190 -0.1010 -0.2180
   49PEG    COC  943   8.542  16.906   9.476 -0.5457  0.2344 -0.0199
   49PEG    COC  944   8.855  16.798   9.561 -0.3318 -0.1128  0.1695
   49PEG    COC  945   9.086  16.932   9.698 -0.5958  0.2289  0.0611
   49PEG    COC  946   9.130  17.197   9.871 -0.0284 -0.0180  0.4026
   49PEG    COC  947   9.360  17.322   9.994  0.0683 -0.0997 -0.0119
   49PEG    COC  948   9.375  17.564  10.120  0.0449  0.0662  0.1560
   49PEG    COC  949   9.388  17.589  10.432 -0.3244  0.0958  0.2234
   49PEG    COC  950   9.685  17.653  10.482 -0.2291 -0.2589  0.1076
   49PEG    COC  951   9.796  17.638  10.224  0.0076  0.1271  0.4227
   49PEG    COC  952   9.820  17.822   9.997 -0.3639 -0.0608  0.0161
   49PEG    COC  953   9.620  17.728   9.792  0.1063 -0.1309  0.2021
   49PEG    COC  954   9.575  17.459   9.638 -0.2446 -0.1720 -0.4071
   49PEG    COC  955   9.752  17.294   9.492 -0.3994  0.3123  0.3334
   49PEG    COC  956   9.959  17.425   9.350 -0.3875  0.4990  0.2098
   49PEG    COC  957  10.271  17.473   9.324 -0.0016  0.0316 -0.1039
   49PEG    COC  958  10.470  17.491   9.579  0.1390  0.0934  0.0419
   49PEG    COC  959  10.431  17.274   9.763 -0.2867  0.1340 -0.2600
   49PEG    COC  960  10.442  16.973   9.660  0.1616 -0.7295 -0.1608
   49PEG    COC  961  10.586  16.768   9.870  0.0820 -0.2446  0.0130
   49PEG    COC  962  10.547  16.710  10.175 -0.2345 -0.0695 -0.1526
   49PEG    COC  963  10.582  16.455  10.297  0.0550  0.2247  0.4070
   49PEG    COC  964  10.650  16.147  10.172  0.1122 -0.1027  0.0850
   49PEG    COC  965  10.676  15.823  10.247  0.0094  0.4216 -0.5117
   49PEG    COC  966  10.483  15.647  10.429  0.0550 -0.3666 -0.4305
   49PEG    COC  967  10.681  15.525  10.610  0.6107 -0.1379 -0.0910
   49PEG    COC  968  10.591  15.459  10.910  0.1029  0.1952  0.1332
   49PEG    COC  969  10.557  15.741  11.025 -0.0593  0.4280  0.1489
   49PEG    COC  970  10.601  15.724  11.325  0.3161 -0.1984 -0.0978
   49PEG    COC  971  10.481  15.927  11.571 -0.2703  0.0303 -0.2580
   49PEG    COC  972  10.238  15.802  11.738 -0.1831 -0.6826 -0.4086
   49PEG    COC  973  10.299  15.611  11.980  0.0117  0.1388  0.5338
   49PEG    COH  974  10.322  15.679  12.248  0.1627  0.3658 -0.2648
   50PEG    COH  975   5.198  12.353  15.346 -0.0744 -0.0413  0.3886
   50PEG    COC  976   5.175  12.519  15.528 -0.0558 -0.0038  0.1435
   50PEG    COC  977   5.340  12.774  15.562  0.0616  0.0105  0.1822
   50PEG    COC  978   5.615  12.765  15.467  0.2657 -0.2229 -0.0846
   50PEG    COC  979   5.680  12.914  15.217  0.1654 -0.0591  0.5077
   50PEG    COC  980   5.745  13.203  15.161  0.0430  0.0908  0.0862
   50PEG    COC  981   6.025  13.257  15.194 -0.0497 -0.1124 -0.3438
   50PEG    COC  982   6.050  13.475  15.410  0.1294 -0.1008  0.0284
   50PEG    COC  983   6.276  13.433  15.632 -0.2996 -0.2230  0.0191
   50PEG    COC  984   6.464  13.672  15.662  0.1699  0.1939 -0.0384
   50PEG    COC  985   6.376  13.855  15.880  0.1029 -0.0110  0.3417
   50PEG    COC  986   6.110  13.685  15.912 -0.0493  0.0528 -0.1696
   50PEG    COC  987   5.872  13.725  15.784 -0.2969 -0.1230 -0.0244
   50PEG    COC  988   5.575  13.735  15.785 -0.1882 -0.1174 -0.4025
   50PEG    COC  989   5.500  13.426  15.813  0.2872 -0.0375 -0.1130
   50PEG    COC  990   5.690  13.362  15.586 -0.0251 -0.0466  0.3543
   50PEG    COC  991   5.885  13.117  15.592 -0.0234  0.5514  0.0705
   50PEG    COC  992   6.225  13.036  15.558 -0.0416  0.2389 -0.0780
   50PEG    COC  993   6.450  12.901  15.663  0.0559 -0.0800  0.1673
   50PEG    COC  994   6.751  12.912  15.598  0.2976  0.1104 -0.1964
   50PEG    COC  995   6.932  12.692  15.676 -0.1105  0.1475 -0.0981
   50PEG    COC  996   6.891  12.386  15.656 -0.2865 -0.3723 -0.2645
   50PEG    COC  997   6.701  12.183  15.652  0.5591 -0.1863 -0.0442
   50PEG    COC  998   6.444  12.103  15.494  0.0288  0.4042  0.2420
   50PEG    COC  999   6.414  12.192  15.217 -0.1351  0.0119 -0.3094
   50PEG    COC 1000   6.325  11.933  15.044  0.0438  0.4037 -0.0496
   50PEG    COC 1001   6.447  11.609  15.025 -0.0800 -0.1806  0.0959
   50PEG    COC 1002   6.586  11.503  14.792  0.1426  0.2943 -0.3773
   50PEG    COC 1003   6.755  11.266  14.667 -0.0952 -0.0333 -0.0594
   50PEG    COC 1004   6.684  11.047  14.512  0.2313  0.0322 -0.1879
   50PEG    COC 1005   6.477  10.861  14.412  0.0677  0.6949  0.2507
   50PEG    COC 1006   6.234  10.823  14.205  0.4595 -0.0379 -0.2508
   50PEG    COC 1007   6.278  10.780  13.931  0.0485  0.0257 -0.1970
   50PEG    COC 1008   6.431  10.861  13.678 -0.2142  0.0233 -0.1550
   50PEG    COC 1009   6.503  10.649  13.478  0.2191  0.1965 -0.1069
   50PEG    COC 1010   6.648  10.414  13.583 -0.0472  0.1351 -0.2170
   50PEG    COC 1011   6.775  10.210  13.380 -0.0125 -0.3498  0.1012
   50PEG    COC 1012   6.974  10.179  13.123 -0.0165  0.2051 -0.3279
   50PEG    COC 1013   7.233  10.044  13.172  0.1416 -0.3711 -0.3207
   50PEG    COC 1014   7.374   9.955  12.904 -0.2028 -0.1413  0.2147
   50PEG    COC 1015   7.190   9.746  12.758  0.0094 -0.0937  0.0858
   50PEG    COC 1016   6.943   9.893  12.708  0.4059 -0.0770 -0.1059
   50PEG    COC 1017   6.727   9.813  12.894  0.1925 -0.1112 -0.5228
   50PEG    COC 1018   6.630   9.931  13.115  0.1202  0.1688  0.1092
   50PEG    COC 1019   6.308   9.936  13.122  0.0294  0.1477  0.1962
   50PEG    COH 1020   6.095   9.722  13.108 -0.2473 -0.0952  0.0899
   51PEG    COH 1021   2.182   2.218   2.682  0.2153 -0.2930 -0.1732
   51PEG    COC 1022   1.993   2.060   2.597  0.1879  0.3913 -0.2215
   51PEG    COC 1023   2.021   1.752   2.679  0.3587  0.2167  0.1740
   51PEG    COC 1024   1.822   1.630   2.902 -0.0604 -0.3174 -0.6190
   51PEG    COC 1025   1.698   1.595   3.154  0.2207  0.1452 -0.5835
   51PEG    COC 1026   1.889   1.711   3.370 -0.3951  0.3448 -0.1125
   51PEG    COC 1027   2.121   1.528   3.315  0.4546  0.1432  0.0264
   51PEG    COC 1028   2.194   1.534   3.040 -0.1278  0.2454  0.2210
   51PEG    COC 1029   2.191   1.240   2.911  0.1525  0.0976 -0.1089
   51PEG    COC 1030   2.283   0.986   3.014 -0.1368 -0.0707  0.0115
   51PEG    COC 1031   2.209   0.761   2.839 -0.0175  0.0074  0.4350
   51PEG    COC 1032   2.385   0.522   2.721  0.0292 -0.1203 -0.1710
   51PEG    COC 1033   2.669   0.608   2.575  0.2743  0.1756 -0.1083
   51PEG    COC 1034   2.697   0.408   2.342  0.0807  0.0881 -0.1894
   51PEG    COC 1035   2.949   0.199   2.302 -0.2826 -0.0157 -0.1626
   51PEG    COC 1036   3.225   0.123   2.252  0.1203 -0.3105 -0.4005
   51PEG    COC 1037   3.243  -0.076   2.066 -0.1308 -0.1819  0.3005
   51PEG    COC 1038   3.244  -0.355   2.116 -0.0625 -0.0584 -0.0630
   51PEG    COC 1039   3.420  -0.569   2.157  0.0876  0.0638  0.3584
   51PEG    COC 1040   3.416  -0.706   2.425 -0.0721  0.0441  0.4122
   51PEG    COC 1041   3.625  -0.592   2.656 -0.2308 -0.1886 -0.1307
   51PEG    COC 1042   3.779  -0.336   2.653 -0.2320 -0.1061 -0.0836
   51PEG    COC 1043   4.110  -0.449   2.684  0.0113  0.0984 -0.3333
   51PEG    COC 1044   4.302  -0.344   2.865 -0.1305  0.0195  0.1720
   51PEG    COC 1045   4.365  -0.048   2.823  0.2348 -0.0475 -0.0502
   51PEG    COC 1046   4.445   0.181   2.687  0.3117  0.1356 -0.2501
   51PEG    COC 1047   4.248   0.398   2.722  0.1243  0.1602 -0.1102
   51PEG    COC 1048   4.215   0.641   2.549  0.1652 -0.1729  0.1606
   51PEG    COC 1049   3.932   0.736   2.438 -0.2516 -0.1656  0.0255
   51PEG    COC 1050   3.828   0.646   2.166  0.3558 -0.0160 -0.1095
   51PEG    COC 1051   3.587   0.430   2.241 -0.5570 -0.1462  0.0444
   51PEG    COC 1052   3.596   0.192   2.473  0.1262 -0.1891  0.0276
   51PEG    COC 1053   3.850   0.070   2.597 -0.2272  0.0516 -0.0293
   51PEG    COC 1054   3.974   0.082   2.854 -0.0785 -0.0968 -0.4214
   51PEG    COC 1055   3.922  -0.130   3.129 -0.1175  0.0789  0.0702
   51PEG    COC 1056   4.039  -0.120   3.450  0.2075 -0.0358 -0.2142
   51PEG    COC 1057   3.880   0.013   3.685  0.0226  0.2895 -0.1471
   51PEG    COC 1058   4.054   0.272   3.666 -0.2081 -0.3396 -0.2885
   51PEG    COC 1059   4.264   0.510   3.614 -0.3833 -0.3808  0.4579
   51PEG    COC 1060   4.210   0.718   3.831 -0.4929  0.0106  0.0087
   51PEG    COC 1061   4.238   0.645   4.104  0.1435 -0.0092  0.0781
   51PEG    COC 1062   4.303   0.362   4.121  0.0653 -0.2850 -0.3842
   51PEG    COC 1063   4.344   0.215   4.401  0.1495  0.1007  0.3103
   51PEG    COC 1064   4.410  -0.088   4.322  0.0470 -0.1309 -0.1824
   51PEG    COC 1065   4.700  -0.160   4.194 -0.3056 -0.6616 -0.0909
   51PEG    COH 1066   4.797  -0.413   4.189  0.0380 -0.2340  0.5173
   52PEG    COH 1067   0.457   4.460   0.231 -0.1770  0.2520 -0.1323
   52PEG    COC 1068   0.459   4.263   0.357 -0.2203  0.0838  0.0360
   52PEG    COC 1069   0.542   4.068   0.155 -0.0284 -0.0049  0.2417
   52PEG    COC 1070   0.287   3.931   0.010  0.0474  0.0134 -0.2204
   52PEG    COC 1071   0.277   3.820  -0.240 -0.5169  0.0541 -0.2350
   52PEG    COC 1072   0.288   3.858  -0.545  0.0130 -0.4058  0.0595
   52PEG    COC 1073   0.266   4.057  -0.734 -0.4312  0.1940  0.1351
   52PEG    COC 1074  -0.045   4.183  -0.707  0.0270  0.0810  0.4296
   52PEG    COC 1075  -0.178   4.433  -0.833  0.5580 -0.2033  0.1228
   52PEG    COC 1076  -0.025   4.685  -0.952  0.0243  0.1272  0.4371
   52PEG    COC 1077  -0.026   4.688  -1.246  0.0819 -0.4434 -0.2816
   52PEG    COC 1078  -0.165   4.879  -1.429 -0.2472 -0.3319 -0.2167
   52PEG    COC 1079  -0.114   5.179  -1.593 -0.0538 -0.2478 -0.0551
   52PEG    COC 1080  -0.315   5.216  -1.832  0.0868  0.3013 -0.0565
   52PEG    COC 1081  -0.400   5.470  -1.707 -0.4558 -0.1202 -0.1119
   52PEG    COC 1082  -0.590   5.591  -1.486  0.0395  0.6283  0.4163
   52PEG    COC 1083  -0.816   5.763  -1.558 -0.3205 -0.0751  0.3015
   52PEG    COC 1084  -1.070   5.601  -1.479 -0.3531 -0.4575  0.0304
   52PEG    COC 1085  -0.933   5.372  -1.319 -0.3559  0.0526  0.1255
   52PEG    COC 1086  -1.069   5.104  -1.363  0.3426 -0.2861  0.2006
   52PEG    COC 1087  -1.365   5.153  -1.403 -0.0926  0.0244 -0.0963
   52PEG    COC 1088  -1.418   5.414  -1.287 -0.1085  0.3296 -0.5366
   52PEG    COC 1089  -1.680   5.525  -1.202  0.1289 -0.4561  0.3210
   52PEG    COC 1090  -1.787   5.430  -0.934 -0.1847 -0.0129  0.2285
   52PEG    COC 1091  -2.073   5.338  -0.968 -0.2838 -0.0978 -0.1813
   52PEG    COC 1092  -2.323   5.548  -0.968 -0.1089 -0.0467  0.1085
   52PEG    COC 1093  -2.427   5.651  -1.216  0.0574  0.1511  0.1915
   52PEG    COC 1094  -2.614   5.558  -1.438 -0.0086  0.5923  0.3206
   52PEG    COC 1095  -2.574   5.732  -1.711  0.0388  0.0519  0.1946
   52PEG    COC 1096  -2.342   5.901  -1.799  0.1723  0.0319 -0.1860
   52PEG    COC 1097  -2.409   5.977  -2.078 -0.2028 -0.1884 -0.1524
   52PEG    COC 1098  -2.734   5.980  -2.058  0.2701 -0.4234 -0.1702
   52PEG    COC 1099  -2.780   5.694  -2.154  0.2380 -0.3139 -0.3697
   52PEG    COC 1100  -3.015   5.470  -2.137  0.1547  0.2551  0.1195
   52PEG    COC 1101  -2.919   5.168  -2.194 -0.0896  0.0015 -0.2219
   52PEG    COC 1102  -2.945   4.859  -2.131 -0.1112  0.0373  0.3962
   52PEG    COC 1103  -2.962   4.956  -1.855 -0.0198 -0.1441  0.1162
   52PEG    COC 1104  -2.908   4.778  -1.613 -0.0789 -0.2665  0.0669
   52PEG    COC 1105  -3.150   4.755  -1.441  0.1200 -0.0547  0.1925
   52PEG    COC 1106  -3.263   4.961  -1.252  0.2916  0.3649  0.1448
   52PEG    COC 1107  -3.397   4.937  -1.006  0.2583  0.1779  0.0505
   52PEG    COC 1108  -3.260   5.107  -0.791 -0.0487  0.0749 -0.1317
   52PEG    COC 1109  -2.972   5.097  -0.882  0.2353  0.1959  0.0964
   52PEG    COC 1110  -2.891   4.795  -0.934  0.3140  0.2788 -0.3248
   52PEG    COC 1111  -2.989   4.603  -0.677 -0.2641 -0.1127  0.1073
   52PEG    COH 1112  -2.783   4.414  -0.589  0.0930  0.4483 -0.1591
   53PEG    COH 1113  13.563   1.094   0.388  0.0199  0.1700 -0.5176
   53PEG    COC 1114  13.547   1.364   0.437 -0.0679  0.0404 -0.2114
   53PEG    COC 1115  13.601   1.536   0.178 -0.0734  0.0119 -0.1914
   53PEG    COC 1116  13.679   1.837   0.244  0.1408 -0.1062  0.2213
   53PEG    COC 1117  13.453   1.949   0.374 -0.4205 -0.0206  0.4742
   53PEG    COC 1118  13.242   1.818   0.603  0.0837 -0.0340  0.0816
   53PEG    COC 1119  12.990   1.707   0.511 -0.3742  0.0146  0.3882
   53PEG    COC 1120  12.740   1.908   0.490 -0.0581 -0.2233 -0.0999
   53PEG    COC 1121  12.649   2.218   0.353  0.0052  0.0881  0.2814
   53PEG    COC 1122  12.837   2.446   0.274  0.4659 -0.2288  0.0301
   53PEG    COC 1123  12.701   2.565   0.038  0.0684  0.2544 -0.3317
   53PEG    COC 1124  12.681   2.789  -0.139  0.1948 -0.2065 -0.2444
   53PEG    COC 1125  12.499   3.006  -0.019 -0.0620 -0.3243 -0.1779
   53PEG    COC 1126  12.227   3.009  -0.165 -0.2774 -0.1674 -0.4506
   53PEG    COC 1127  12.009   2.875  -0.386 -0.0348 -0.1759 -0.2571
   53PEG    COC 1128  11.779   2.913  -0.571  0.2499  0.0742 -0.1156
   53PEG    COC 1129  11.623   3.164  -0.493  0.2799  0.0645  0.1170
   53PEG    COC 1130  11.539   3.227  -0.773 -0.0320 -0.1841  0.0453
   53PEG    COC 1131  11.443   3.500  -0.808  0.0198 -0.0864 -0.0576
   53PEG    COC 1132  11.199   3.663  -0.870 -0.0922  0.0537  0.1605
   53PEG    COC 1133  10.959   3.625  -0.675  0.0820 -0.2130  0.2454
   53PEG    COC 1134  10.851   3.815  -0.506 -0.0072 -0.0486 -0.2290
   53PEG    COC 1135  10.723   4.038  -0.346 -0.1369 -0.3537 -0.0444
   53PEG    COC 1136  10.896   4.099  -0.086  0.1978  0.0437 -0.1378
   53PEG    COC 1137  10.736   4.279   0.090 -0.1203 -0.0127  0.1116
   53PEG    COC 1138  10.455   4.330   0.089 -0.0984 -0.0009 -0.2358
   53PEG    COC 1139  10.142   4.282   0.169 -0.1934  0.4267  0.3073
   53PEG    COC 1140   9.901   4.246   0.014  0.3274  0.2686  0.0731
   53PEG    COC 1141   9.898   4.047  -0.201 -0.3963 -0.0344  0.2314
   53PEG    COC 1142   9.752   3.762  -0.200  0.0233 -0.0749 -0.1969
   53PEG    COC 1143   9.595   3.546  -0.294  0.0323 -0.2882  0.0017
   53PEG    COC 1144   9.732   3.313  -0.196  0.2741  0.1606 -0.1329
   53PEG    COC 1145   9.899   3.069  -0.333 -0.2178  0.0821 -0.1534
   53PEG    COC 1146   9.967   3.111  -0.643 -0.2388 -0.0535 -0.0654
   53PEG    COC 1147   9.903   3.110  -0.943  0.0999 -0.0399 -0.0962
   53PEG    COC 1148   9.578   3.106  -0.981  0.2791 -0.2322  0.0612
   53PEG    COC 1149   9.451   2.863  -0.907  0.2151  0.1500 -0.0558
   53PEG    COC 1150   9.132   2.853  -0.859  0.0513 -0.2835  0.1182
   53PEG    COC 1151   9.073   2.774  -0.587  0.3406  0.4408  0.1454
   53PEG    COC 1152   9.009   2.957  -0.355 -0.0332  0.2306  0.0980
   53PEG    COC 1153   8.775   2.995  -0.151  0.0394 -0.0640  0.0283
   53PEG    COC 1154   8.520   2.978  -0.305  0.3034  0.1305  0.0482
   53PEG    COC 1155   8.291   2.782  -0.299  0.2083  0.0630  0.3815
   53PEG    COC 1156   8.106   2.827  -0.509 -0.0222  0.1573  0.0280
   53PEG    COC 1157   8.214   3.009  -0.747  0.1512 -0.2001  0.1420
   53PEG    COH 1158   8.085   3.162  -0.931 -0.2265  0.0227 -0.3278
   54PEG    COH 1159  16.585   4.007   4.662  0.0801  0.5509 -0.1572
   54PEG    COC 1160  16.561   4.029   4.931  0.2368 -0.0895  0.2766
   54PEG    COC 1161  16.330   3.958   5.082  0.2926 -0.1990 -0.0356
   54PEG    COC 1162  16.363   3.734   5.268  0.2087 -0.0251 -0.0545
   54PEG    COC 1163  16.531   3.692   5.497  0.1541 -0.2699  0.0338
   54PEG    COC 1164  16.825   3.692   5.588 -0.8372 -0.0452  0.0402
   54PEG    COC 1165  16.936   3.525   5.815 -0.2344  0.0643  0.0008
   54PEG    COC 1166  17.100   3.523   6.027  0.2994 -0.4099 -0.0056
   54PEG    COC 1167  17.174   3.819   6.148 -0.1611  0.6096 -0.3823
   54PEG    COC 1168  17.410   3.899   5.991 -0.3705 -0.0984  0.2869
   54PEG    COC 1169  17.665   3.825   5.849  0.1716 -0.0455 -0.0129
   54PEG    COC 1170  17.901   3.964   5.816 -0.1716 -0.1915 -0.1760
   54PEG    COC 1171  18.182   3.991   5.955  0.1985 -0.0018  0.3271
   54PEG    COC 1172  18.240   3.850   6.210 -0.2006 -0.1446  0.1385
   54PEG    COC 1173  18.124   3.656   6.430 -0.3004  0.3081 -0.1698
   54PEG    COC 1174  18.276   3.455   6.611  0.0466  0.2953  0.0441
   54PEG    COC 1175  18.445   3.406   6.876  0.0906  0.2633 -0.4686
   54PEG    COC 1176  18.617   3.264   7.089 -0.2782  0.0789  0.4887
   54PEG    COC 1177  18.556   3.303   7.366  0.2337  0.1293 -0.0254
   54PEG    COC 1178  18.513   3.121   7.574  0.1507  0.4913  0.2090
   54PEG    COC 1179  18.727   2.874   7.605 -0.3609 -0.5564  0.1247
   54PEG    COC 1180  18.826   2.583   7.504  0.0620  0.2226  0.3612
   54PEG    COC 1181  19.110   2.525   7.385  0.0547  0.0893  0.3621
   54PEG    COC 1182  19.185   2.527   7.064 -0.1788  0.2828 -0.3919
   54PEG    COC 1183  19.325   2.810   7.070 -0.0044  0.1310 -0.1871
   54PEG    COC 1184  19.541   2.820   6.890 -0.1482 -0.0400  0.0900
   54PEG    COC 1185  19.769   3.009   6.840  0.3024  0.3312 -0.0722
   54PEG    COC 1186  19.744   3.267   6.694 -0.0910  0.7055  0.5444
   54PEG    COC 1187  19.458   3.336   6.708 -0.3672  0.4515  0.0882
   54PEG    COC 1188  19.251   3.199   6.889 -0.8876 -0.0167 -0.1421
   54PEG    COC 1189  19.144   3.235   7.192 -0.0725 -0.3697  0.0535
   54PEG    COC 1190  19.118   2.980   7.395 -0.1945 -0.2608 -0.0578
   54PEG    COC 1191  19.178   2.928   7.730  0.1152 -0.4969  0.1445
   54PEG    COC 1192  19.421   3.030   7.869  0.1286 -0.3327  0.1182
   54PEG    COC 1193  19.537   3.299   7.963 -0.1755  0.2518 -0.7038
   54PEG    COC 1194  19.659   3.557   7.902  0.0395 -0.0782  0.1037
   54PEG    COC 1195  19.487   3.764   8.056  0.1923  0.0508 -0.2433
   54PEG    COC 1196  19.446   3.786   8.332  0.0105  0.1190 -0.0827
   54PEG    COC 1197  19.559   3.551   8.495  0.5096 -0.0171 -0.4325
   54PEG    COC 1198  19.540   3.253   8.396 -0.1110  0.2912  0.4227
   54PEG    COC 1199  19.834   3.212   8.305 -0.0341 -0.0560  0.2187
   54PEG    COC 1200  20.102   3.166   8.153 -0.0407  0.2410  0.0345
   54PEG    COC 1201  20.185   2.978   7.923 -0.3861  0.2883  0.0419
   54PEG    COC 1202  20.284   2.677   7.985  0.1475 -0.1191 -0.1554
   54PEG    COC 1203  20.268   2.522   7.720  0.3554 -0.4484 -0.0544
   54PEG    COH 1204  20.090   2.666   7.633 -0.2406  0.2776 -0.1284
   55PEG    COH 1205   9.632  12.163  16.833 -0.0451  0.2893 -0.0569
   55PEG    COC 1206   9.837  12.109  17.006  0.0956 -0.1771 -0.0936
   55PEG    COC 1207  10.109  12.002  16.916  0.1763  0.0213 -0.0484
   55PEG    COC 1208  10.326  12.030  17.139 -0.0863  0.0928 -0.5568
   55PEG    COC 1209  10.596  12.180  17.165 -0.2088  0.1024 -0.1791
   55PEG    COC 1210  10.759  11.996  17.341 -0.0546  0.1670 -0.2766
   55PEG    COC 1211  10.636  11.736  17.469  0.1547 -0.0928  0.0435
   55PEG    COC 1212  10.757  11.455  17.529 -0.1249 -0.0150  0.0780
   55PEG    COC 1213  11.076  11.357  17.518  0.0857 -0.0111  0.1116
   55PEG    COC 1214  11.334  11.518  17.564 -0.0489  0.2233  0.2802
   55PEG    COC 1215  11.557  11.502  17.367 -0.0368 -0.1428 -0.0740
   55PEG    COC 1216  11.820  11.658  17.357 -0.3395  0.0185 -0.0019
   55PEG    COC 1217  12.046  11.638  17.159 -0.2578  0.3403  0.4588
   55PEG    COC 1218  12.205  11.411  17.293 -0.2343  0.3852 -0.3185
   55PEG    COC 1219  12.426  11.463  17.492  0.1309  0.2291 -0.0285
   55PEG    COC 1220  12.745  11.399  17.466 -0.1023  0.2739 -0.4582
   55PEG    COC 1221  12.930  11.458  17.204 -0.3426 -0.3396 -0.0489
   55PEG    COC 1222  13.070  11.199  17.091  0.1060 -0.1479 -0.0383
   55PEG    COC 1223  12.947  11.035  16.887  0.1389  0.2139  0.1014
   55PEG    COC 1224  13.038  11.004  16.590 -0.1441 -0.4104 -0.1414
   55PEG    COC 1225  13.186  11.250  16.577 -0.1630 -0.0319  0.0243
   55PEG    COC 1226  13.160  11.427  16.340  0.3155  0.0893 -0.3704
   55PEG    COC 1227  13.458  11.544  16.352  0.0791 -0.3395  0.3328
   55PEG    COC 1228  13.656  11.718  16.169 -0.0469 -0.2191  0.0760
   55PEG    COC 1229  13.680  11.731  15.858 -0.2674  0.2811 -0.0477
   55PEG    COC 1230  13.600  11.909  15.628  0.0116 -0.2952  0.1312
   55PEG    COC 1231  13.822  12.100  15.546  0.4581 -0.0425 -0.0896
   55PEG    COC 1232  14.005  12.250  15.392  0.4098 -0.6926  0.2970
   55PEG    COC 1233  13.982  12.504  15.238 -0.2460  0.1077 -0.2099
   55PEG    COC 1234  14.018  12.575  14.945 -0.3099 -0.2802 -0.1002
   55PEG    COC 1235  13.972  12.419  14.692  0.0506  0.0691 -0.1943
   55PEG    COC 1236  13.806  12.658  14.557  0.1743  0.6546 -0.1491
   55PEG    COC 1237  13.490  12.702  14.560  0.3362  0.1189  0.2489
   55PEG    COC 1238  13.251  12.490  14.595 -0.0438 -0.1208 -0.0026
   55PEG    COC 1239  13.021  12.594  14.417  0.4424 -0.1786 -0.1157
   55PEG    COC 1240  12.757  12.436  14.385 -0.0523  0.1867 -0.1620
   55PEG    COC 1241  12.597  12.296  14.144 -0.1696  0.1365 -0.3197
   55PEG    COC 1242  12.722  12.020  14.056  0.1614 -0.1570 -0.1022
   55PEG    COC 1243  12.582  11.759  14.015  0.0842  0.2471 -0.1236
   55PEG    COC 1244  12.568  11.592  13.774 -0.0056 -0.1258  0.1998
   55PEG    COC 1245  12.623  11.308  13.885  0.0086 -0.2925  0.0185
   55PEG    COC 1246  12.861  11.250  14.071  0.3450  0.1425 -0.0055
   55PEG    COC 1247  12.858  11.076  14.322  0.1792 -0.4599  0.1455
   55PEG    COC 1248  13.023  11.253  14.537  0.0291  0.0960 -0.0739
   55PEG    COC 1249  13.238  11.465  14.662  0.1370  0.4256 -0.1906
   55PEG    COH 1250  13.322  11.716  14.750 -0.2746  0.1156 -0.0220
   56PEG    COH 1251  12.633  16.155   8.665  0.0452 -0.1319  0.4656
   56PEG    COC 1252  12.817  16.098   8.481  0.2485 -0.2169  0.1131
   56PEG    COC 1253  12.845  16.310   8.297 -0.3052  0.1471 -0.0876
   56PEG    COC 1254  13.116  16.451   8.360  0.1057  0.2008  0.2601
   56PEG    COC 1255  13.204  16.683   8.182  0.1680 -0.0938 -0.2680
   56PEG    COC 1256  13.455  16.655   7.992  0.1653  0.2525 -0.1627
   56PEG    COC 1257  13.464  16.814   7.731 -0.2106 -0.1760 -0.1943
   56PEG    COC 1258  13.264  17.058   7.727 -0.0948  0.2004 -0.2306
   56PEG    COC 1259  13.036  17.004   7.945 -0.3975 -0.5973  0.6642
   56PEG    COC 1260  12.894  16.742   7.808  0.0501 -0.0425 -0.1480
   56PEG    COC 1261  13.011  16.484   7.835 -0.4535 -0.0262 -0.1107
   56PEG    COC 1262  13.191  16.461   7.570 -0.6185 -0.1953  0.1722
   56PEG    COC 1263  13.459  16.393   7.448  0.0173  0.0919  0.0905
   56PEG    COC 1264  13.488  16.482   7.155  0.0399  0.1871 -0.2034
   56PEG    COC 1265  13.629  16.670   6.977 -0.1112 -0.1302  0.0623
   56PEG    COC 1266  13.649  16.781   6.722 -0.0367 -0.0753  0.2166
   56PEG    COC 1267  13.776  17.048   6.583  0.6244  0.3289  0.2546
   56PEG    COC 1268  13.581  17.275   6.477 -0.5702 -0.0332 -0.1065
   56PEG    COC 1269  13.319  17.302   6.640  0.1794 -0.0862 -0.2455
   56PEG    COC 1270  13.088  17.236   6.859 -0.0949 -0.2159 -0.1821
   56PEG    COC 1271  12.848  17.231   7.041  0.0245 -0.2744  0.1350
   56PEG    COC 1272  12.720  17.427   7.235 -0.0454 -0.0119 -0.0446
   56PEG    COC 1273  12.713  17.717   7.165  0.1413 -0.3726  0.0108
   56PEG    COC 1274  12.654  17.825   6.893 -0.3434  0.3312  0.1597
   56PEG    COC 1275  12.386  17.680   6.811  0.0448 -0.1085  0.2227
   56PEG    COC 1276  12.172  17.844   6.911  0.1861 -0.1297  0.2775
   56PEG    COC 1277  12.143  18.157   6.772 -0.1702  0.1079 -0.3350
   56PEG    COC 1278  12.049  18.196   6.506 -0.1145 -0.2365  0.3052
   56PEG    COC 1279  11.796  18.336   6.379 -0.0416  0.0007  0.0160
   56PEG    COC 1280  11.719  18.517   6.632 -0.1477 -0.2501  0.5380
   56PEG    COC 1281  11.898  18.469   6.881 -0.3073 -0.1842  0.4858
   56PEG    COC 1282  12.170  18.468   7.041  0.3184 -0.4371 -0.1816
   56PEG    COC 1283  12.300  18.542   7.298 -0.0766  0.4671  0.3115
   56PEG    COC 1284  12.193  18.593   7.573 -0.1388  0.3907 -0.4090
   56PEG    COC 1285  11.988  18.814   7.629 -0.0254  0.1792 -0.0987
   56PEG    COC 1286  11.947  19.084   7.593 -0.0409  0.2281  0.1488
   56PEG    COC 1287  11.674  19.149   7.784  0.1414 -0.0579 -0.2758
   56PEG    COC 1288  11.390  19.277   7.745  0.2080 -0.2423 -0.1582
   56PEG    COC 1289  11.368  19.412   7.481  0.3654 -0.2502  0.0607
   56PEG    COC 1290  11.212  19.400   7.220 -0.1948  0.0724  0.1191
   56PEG    COC 1291  11.184  19.216   6.990 -0.1433 -0.2265  0.1968
   56PEG    COC 1292  11.205  18.872   6.943 -0.1287  0.1848 -0.5248
   56PEG    COC 1293  11.391  18.729   7.119 -0.2591  0.4567 -0.1798
   56PEG    COC 1294  11.508  18.458   7.016  0.1843  0.0232 -0.1448
   56PEG    COC 1295  11.308  18.358   6.804 -0.1374 -0.1837  0.3571
   56PEG    COH 1296  11.327  18.209   6.567  0.0899 -0.1402  0.0813
   57PEG    COH 1297  10.528  18.245   3.376  0.3328  0.1275 -0.0195
   57PEG    COC 1298  10.282  18.274   3.465 -0.0045  0.1353 -0.3197
   57PEG    COC 1299  10.178  17.982   3.398  0.1572 -0.5353  0.0238
   57PEG    COC 1300  10.393  17.786   3.573 -0.1287 -0.0010 -0.1045
   57PEG    COC 1301  10.699  17.688   3.545 -0.0303 -0.3229  0.4519
   57PEG    COC 1302  10.715  17.394   3.449 -0.2384 -0.0274 -0.0848
   57PEG    COC 1303  10.906  17.314   3.240 -0.2159  0.0770 -0.1067
   57PEG    COC 1304  10.964  17.420   2.970 -0.1771 -0.1961 -0.3297
   57PEG    COC 1305  10.771  17.485   2.717 -0.3358 -0.2574 -0.1326
   57PEG    COC 1306  10.672  17.232   2.541  0.3288 -0.2714 -0.1577
   57PEG    COC 1307  10.864  16.995   2.429  0.1075 -0.0447 -0.4505
   57PEG    COC 1308  11.003  17.043   2.156 -0.1085 -0.3516 -0.0732
   57PEG    COC 1309  11.056  17.320   2.085 -0.1494  0.1245  0.1827
   57PEG    COC 1310  10.982  17.441   1.847 -0.0873  0.0768  0.0615
   57PEG    COC 1311  10.883  17.738   1.881 -0.0610  0.1902 -0.1135
   57PEG    COC 1312  10.635  17.849   1.764 -0.2471  0.6171 -0.0207
   57PEG    COC 1313  10.485  18.108   1.840 -0.1622  0.1944 -0.1632
   57PEG    COC 1314  10.328  18.363   1.837 -0.2637 -0.0001 -0.0584
   57PEG    COC 1315  10.030  18.364   1.921 -0.0283 -0.0311  0.2404
   57PEG    COC 1316   9.842  18.296   2.133  0.2481 -0.1406 -0.1754
   57PEG    COC 1317   9.911  18.187   2.433 -0.2617 -0.1320  0.2271
   57PEG    COC 1318   9.629  18.163   2.532  0.0373 -0.1645 -0.3199
   57PEG    COC 1319   9.546  17.958   2.728  0.0332  0.0419  0.0559
   57PEG    COC 1320   9.275  17.889   2.869 -0.1515 -0.0682  0.2287
   57PEG    COC 1321   9.032  18.044   2.888 -0.1198  0.0699 -0.1555
   57PEG    COC 1322   8.911  18.310   2.946 -0.0684 -0.0747 -0.6854
   57PEG    COC 1323   9.044  18.405   3.214  0.0185  0.5948  0.2420
   57PEG    COC 1324   9.204  18.318   3.454 -0.0881 -0.0589  0.3727
   57PEG    COC 1325   9.059  18.208   3.717 -0.0728  0.2122 -0.4430
   57PEG    COC 1326   8.810  18.294   3.805 -0.1970  0.2765 -0.2266
   57PEG    COC 1327   8.736  18.498   3.984 -0.0833 -0.0517 -0.0951
   57PEG    COC 1328   8.794  18.592   4.230 -0.1773  0.4442  0.0041
   57PEG    COC 1329   8.529  18.667   4.380  0.5442  0.1531 -0.2678
   57PEG    COC 1330   8.333  18.715   4.189 -0.2920  0.2336 -0.0816
   57PEG    COC 1331   8.131  18.934   4.234 -0.0041  0.3765 -0.2755
   57PEG    COC 1332   8.206  19.159   4.074  0.2706 -0.0185  0.2873
   57PEG    COC 1333   8.365  19.271   4.319 -0.2378  0.3341  0.2122
   57PEG    COC 1334   8.582  19.451   4.272 -0.1657  0.0206  0.1381
   57PEG    COC 1335   8.575  19.736   4.336  0.2095  0.1541  0.5910
   57PEG    COC 1336   8.453  19.902   4.159  0.1901  0.2426  0.2718
   57PEG    COC 1337   8.627  20.056   4.016 -0.1028  0.1015 -0.2084
   57PEG    COC 1338   8.635  20.264   3.795 -0.4777  0.4225 -0.3744
   57PEG    COC 1339   8.852  20.333   3.582 -0.0968  0.3210  0.2792
   57PEG    COC 1340   8.854  20.080   3.482  0.2219  0.2057  0.0794
   57PEG    COC 1341   8.597  19.935   3.478 -0.0744  0.0245  0.0747
   57PEG    COH 1342   8.609  19.688   3.466 -0.4360 -0.0038 -0.0214
   58PEG    COH 1343   8.785  10.662   0.605 -0.4061  0.0801 -0.4905
   58PEG    COC 1344   8.522  10.586   0.541  0.4048  0.3924  0.2120
   58PEG    COC 1345   8.448  10.277   0.576  0.0602 -0.4975  0.1594
   58PEG    COC 1346   8.340  10.051   0.757 -0.0083 -0.1639  0.3124
   58PEG    COC 1347   8.386  10.069   1.045 -0.3494 -0.0304 -0.0182
   58PEG    COC 1348   8.415   9.784   1.048  0.0434 -0.1537  0.0834
   58PEG    COC 1349   8.167   9.642   1.122  0.4444 -0.1555  0.6300
   58PEG    COC 1350   8.186   9.391   1.307  0.2837 -0.0348  0.6344
   58PEG    COC 1351   8.009   9.400   1.558 -0.1743 -0.3918 -0.1622
   58PEG    COC 1352   8.085   9.622   1.809  0.1645  0.0925 -0.1379
   58PEG    COC 1353   8.363   9.726   1.917 -0.0375  0.2378  0.1038
   58PEG    COC 1354   8.649   9.596   1.839 -0.6025 -0.0199 -0.0381
   58PEG    COC 1355   8.869   9.730   1.699  0.0962  0.0224 -0.2012
   58PEG    COC 1356   9.107   9.673   1.523  0.2672  0.2734 -0.0112
   58PEG    COC 1357   9.089   9.516   1.245 -0.0775  0.1539  0.0473
   58PEG    COC 1358   9.230   9.277   1.187 -0.1786 -0.0682  0.3413
   58PEG    COC 1359   9.345   9.085   1.362 -0.1662  0.2645  0.0469
   58PEG    COC 1360   9.133   8.869   1.359 -0.1101 -0.1415 -0.0019
   58PEG    COC 1361   8.856   8.897   1.498 -0.0890  0.1468  0.1124
   58PEG    COC 1362   8.796   9.182   1.564 -0.6619 -0.0451  0.0167
   58PEG    COC 1363   9.106   9.262   1.630  0.0239 -0.2950 -0.3268
   58PEG    COC 1364   9.347   9.324   1.860  0.1408 -0.3023 -0.2385
   58PEG    COC 1365   9.445   9.591   1.944 -0.3222  0.0042 -0.2222
   58PEG    COC 1366   9.716   9.611   2.043  0.2391 -0.1734 -0.1754
   58PEG    COC 1367   9.784   9.870   2.247 -0.0767  0.2181 -0.1207
   58PEG    COC 1368   9.903   9.754   2.479 -0.0925 -0.3068  0.3202
   58PEG    COC 1369   9.768   9.691   2.765  0.1379 -0.1538  0.2983
   58PEG    COC 1370   9.805   9.778   3.083 -0.0362  0.3159 -0.1003
   58PEG    COC 1371  10.042   9.724   3.218 -0.1490 -0.1250 -0.0881
   58PEG    COC 1372  10.278   9.623   3.026 -0.1922  0.3280 -0.1086
   58PEG    COC 1373  10.204   9.605   2.710 -0.0663  0.4055  0.1776
   58PEG    COC 1374  10.316   9.577   2.396 -0.1085  0.1887 -0.1579
   58PEG    COC 1375  10.544   9.368   2.336 -0.3336  0.0921 -0.0399
   58PEG    COC 1376  10.565   9.204   2.048  0.1078 -0.3920 -0.0404
   58PEG    COC 1377  10.597   8.887   2.042 -0.2977  0.1999 -0.1293
   58PEG    COC 1378  10.412   8.789   2.253 -0.2234  0.0798 -0.1878
   58PEG    COC 1379  10.268   8.940   2.459 -0.1699 -0.2986  0.0817
   58PEG    COC 1380  10.120   9.197   2.558 -0.1586 -0.0034  0.1720
   58PEG    COC 1381   9.799   9.226   2.522 -0.0329  0.2619 -0.4202
   58PEG    COC 1382   9.573   9.052   2.465 -0.0090  0.2138  0.1425
   58PEG    COC 1383   9.459   9.085   2.202 -0.2978  0.0316  0.3278
   58PEG    COC 1384   9.199   8.930   2.261 -0.1926 -0.3413  0.0675
   58PEG    COC 1385   9.356   8.667   2.224  0.2980  0.0693 -0.2920
   58PEG    COC 1386   9.624   8.536   2.103  0.2083 -0.0798  0.0923
   58PEG    COC 1387   9.775   8.401   2.311 -0.3783 -0.0893  0.2554
   58PEG    COH 1388   9.961   8.210   2.211  0.5438 -0.0109  0.3018
   59PEG    COH 1389   6.243  15.663   5.051 -0.4316 -0.3271  0.0353
   59PEG    COC 1390   6.029  15.799   4.963  0.0972 -0.1927  0.0875
   59PEG    COC 1391   5.773  15.627   4.916 -0.2791  0.2308 -0.3316
   59PEG    COC 1392   5.495  15.707   5.003 -0.0658 -0.2877 -0.3832
   59PEG    COC 1393   5.433  15.749   5.298 -0.2099  0.2224  0.0161
   59PEG    COC 1394   5.521  16.034   5.345  0.2016  0.1281 -0.0625
   59PEG    COC 1395   5.786  16.097   5.487 -0.0236 -0.0790  0.1422
   59PEG    COC 1396   6.053  16.064   5.296 -0.0747 -0.0786  0.1132
   59PEG    COC 1397   6.227  16.313   5.384  0.0926 -0.6180 -0.0572
   59PEG    COC 1398   6.475  16.390   5.251  0.0412  0.5793 -0.3633
   59PEG    COC 1399   6.499  16.217   5.019  0.0683 -0.1734 -0.0755
   59PEG    COC 1400   6.258  16.312   4.875  0.3002  0.1606 -0.1861
   59PEG    COC 1401   5.923  16.318   4.790 -0.3515  0.1415 -0.1533
   59PEG    COC 1402   5.749  16.138   4.945  0.0381  0.4973 -0.0373
   59PEG    COC 1403   5.435  16.113   4.869  0.1992  0.0413 -0.2386
   59PEG    COC 1404   5.403  16.384   4.866 -0.0169 -0.0763 -0.3387
   59PEG    COC 1405   5.494  16.676   4.789  0.0309 -0.0237  0.3057
   59PEG    COC 1406   5.743  16.699   4.642  0.4565 -0.5261  0.1059
   59PEG    COC 1407   5.900  16.793   4.395 -0.0473 -0.0635 -0.1951
   59PEG    COC 1408   6.064  17.055   4.457  0.0201  0.4266 -0.0867
   59PEG    COC 1409   6.119  17.030   4.747 -0.1401 -0.0259 -0.7592
   59PEG    COC 1410   5.875  17.030   4.946  0.1861  0.0197 -0.0814
   59PEG    COC 1411   6.027  17.151   5.197 -0.1903 -0.2199 -0.2721
   59PEG    COC 1412   6.286  17.375   5.095 -0.1582  0.2281 -0.1714
   59PEG    COC 1413   6.529  17.158   5.084 -0.0349 -0.1502  0.2752
   59PEG    COC 1414   6.702  16.938   5.165  0.1276  0.2467  0.3117
   59PEG    COC 1415   6.726  16.779   5.408  0.1582  0.1935  0.0152
   59PEG    COC 1416   6.934  16.619   5.606  0.0266 -0.2849  0.2009
   59PEG    COC 1417   7.194  16.513   5.519 -0.1681 -0.0966  0.0263
   59PEG    COC 1418   7.484  16.628   5.535 -0.5102  0.1322  0.1187
   59PEG    COC 1419   7.464  16.898   5.643 -0.1070  0.9040  0.2829
   59PEG    COC 1420   7.603  16.956   5.902  0.0407  0.1346 -0.2929
   59PEG    COC 1421   7.839  16.988   6.121  0.3865  0.0199 -0.2391
   59PEG    COC 1422   7.905  16.719   6.250 -0.1048 -0.1762 -0.0533
   59PEG    COC 1423   7.708  16.498   6.326 -0.2723  0.4377 -0.0048
   59PEG    COC 1424   7.418  16.413   6.314  0.0016  0.1495 -0.3529
   59PEG    COC 1425   7.459  16.168   6.127 -0.1275 -0.1352  0.1793
   59PEG    COC 1426   7.652  15.970   5.975  0.2303 -0.2920 -0.1932
   59PEG    COC 1427   7.548  15.727   5.790 -0.3472 -0.2673 -0.1964
   59PEG    COC 1428   7.714  15.796   5.553  0.2024  0.2727  0.0193
   59PEG    COC 1429   7.717  15.663   5.292  0.1332  0.5593 -0.1095
   59PEG    COC 1430   7.464  15.625   5.155  0.4583 -0.4609  0.0712
   59PEG    COC 1431   7.237  15.817   5.279  0.2336  0.2627 -0.0956
   59PEG    COC 1432   7.352  16.075   5.182 -0.0252  0.3438 -0.2324
   59PEG    COC 1433   7.646  16.113   5.274  0.2487  0.1042  0.3111
   59PEG    COH 1434   7.799  16.237   5.085 -0.0214 -0.1986  0.2794
   60PEG    COH 1435  12.913   3.498   9.570 -0.1975  0.2011  0.0268
   60PEG    COC 1436  12.822   3.230   9.625 -0.0193 -0.2211  0.5379
   60PEG    COC 1437  12.621   3.236   9.866  0.0220  0.3988 -0.3746
   60PEG    COC 1438  12.549   3.573   9.921  0.0286 -0.3439  0.5389
   60PEG    COC 1439  12.311   3.762   9.990  0.2160 -0.3411 -0.2092
   60PEG    COC 1440  12.357   3.870  10.267  0.0890 -0.1761 -0.1127
   60PEG    COC 1441  12.523   3.882  10.560  0.0047  0.0480  0.5052
   60PEG    COC 1442  12.522   4.131  10.669 -0.2714  0.0083 -0.1021
   60PEG    COC 1443  12.319   4.259  10.820  0.2785 -0.0665  0.2505
   60PEG    COC 1444  12.331   4.501  10.990 -0.2904  0.3398 -0.1896
   60PEG    COC 1445  12.079   4.548  11.138  0.0266 -0.0346 -0.1116
   60PEG    COC 1446  11.771   4.572  11.070  0.2050  0.3882 -0.1931
   60PEG    COC 1447  11.692   4.589  10.817 -0.2152  0.1994 -0.0196
   60PEG    COC 1448  11.414   4.459  10.804 -0.1776 -0.3245 -0.1611
   60PEG    COC 1449  11.439   4.316  11.075 -0.1306  0.1727 -0.3378
   60PEG    COC 1450  11.410   4.146  11.338  0.0860  0.0994  0.2013
   60PEG    COC 1451  11.534   3.884  11.437 -0.1549  0.1659 -0.1645
   60PEG    COC 1452  11.411   3.834  11.708  0.2158  0.4108 -0.0368
   60PEG    COC 1453  11.344   3.542  11.776  0.3650 -0.1222 -0.0193
   60PEG    COC 1454  11.244   3.459  12.059  0.0260 -0.0161 -0.1250
   60PEG    COC 1455  10.965   3.616  12.150  0.0914 -0.2257 -0.3099
   60PEG    COC 1456  10.904   3.673  12.431 -0.0984 -0.1261 -0.2503
   60PEG    COC 1457  11.113   3.520  12.593  0.0158  0.2270  0.3092
   60PEG    COC 1458  11.124   3.421  12.881 -0.2965  0.1408  0.1193
   60PEG    COC 1459  11.127   3.151  12.988 -0.0847  0.2134 -0.0015
   60PEG    COC 1460  11.278   3.091  13.253  0.2011 -0.5327  0.1235
   60PEG    COC 1461  11.254   3.237  13.506  0.0784  0.1917 -0.2874
   60PEG    COC 1462  10.986   3.381  13.607 -0.7992 -0.0753  0.1316
   60PEG    COC 1463  10.722   3.265  13.622  0.1939  0.5059 -0.1305
   60PEG    COC 1464  10.589   3.206  13.344 -0.3563  0.0975 -0.1890
   60PEG    COC 1465  10.528   3.377  13.088  0.2229  0.2563  0.4078
   60PEG    COC 1466  10.342   3.616  13.134  0.4156  0.2029  0.3726
   60PEG    COC 1467  10.140   3.605  13.381  0.0248 -0.2524  0.0806
   60PEG    COC 1468   9.869   3.481  13.434 -0.0597 -0.0659  0.2409
   60PEG    COC 1469   9.859   3.217  13.346 -0.1123 -0.1544  0.3609
   60PEG    COC 1470   9.616   3.143  13.168 -0.0937  0.1233  0.4031
   60PEG    COC 1471   9.586   3.137  12.879  0.0773 -0.0179 -0.3257
   60PEG    COC 1472   9.284   3.009  12.835  0.1543 -0.1862 -0.1569
   60PEG    COC 1473   9.281   2.718  12.748 -0.2077 -0.3229  0.0855
   60PEG    COC 1474   9.121   2.643  12.481 -0.2136 -0.3301 -0.0919
   60PEG    COC 1475   9.082   2.404  12.309 -0.1217 -0.0323 -0.3061
   60PEG    COC 1476   9.393   2.345  12.289  0.2709  0.0295 -0.1074
   60PEG    COC 1477   9.550   2.570  12.355 -0.0457  0.1929 -0.0181
   60PEG    COC 1478   9.828   2.559  12.437 -0.1113 -0.3910 -0.3301
   60PEG    COC 1479   9.939   2.802  12.252  0.0560 -0.3049 -0.1104
   60PEG    COH 1480   9.970   2.918  12.508  0.0622  0.0830  1.0198
   61PEG    COH 1481  11.518  13.947   7.719 -0.5805 -0.0293 -0.2973
   61PEG    COC 1482  11.476  13.700   7.597  0.1362  0.2768  0.0379
   61PEG    COC 1483  11.207  13.559   7.668 -0.1617  0.2966  0.2189
   61PEG    COC 1484  11.117  13.277   7.643 -0.1118 -0.0206  0.3402
   61PEG    COC 1485  10.814  13.248   7.727  0.2830  0.4113  0.1231
   61PEG    COC 1486  10.717  13.261   8.025 -0.1386  0.2005  0.0218
   61PEG    COC 1487  10.667  12.953   8.050  0.2191 -0.0495  0.0527
   61PEG    COC 1488  10.542  12.724   8.223  0.0830 -0.1228  0.1193
   61PEG    COC 1489  10.518  12.409   8.158 -0.1608 -0.0441  0.3927
   61PEG    COC 1490  10.746  12.337   8.402 -0.0777  0.3310 -0.1997
   61PEG    COC 1491  10.760  12.038   8.415  0.1149 -0.2463  0.0206
   61PEG    COC 1492  10.718  11.931   8.695  0.0941  0.3774  0.3927
   61PEG    COC 1493  10.914  11.701   8.768  0.2427 -0.1628 -0.0448
   61PEG    COC 1494  10.873  11.487   8.522 -0.0070  0.0992  0.3533
   61PEG    COC 1495  11.091  11.280   8.549  0.7000  0.2320  0.2739
   61PEG    COC 1496  11.192  11.199   8.834 -0.2219 -0.1043 -0.0445
   61PEG    COC 1497  11.329  11.399   8.969 -0.0039  0.2302  0.4756
   61PEG    COC 1498  11.346  11.614   8.698  0.2733  0.2470  0.0647
   61PEG    COC 1499  11.247  11.864   8.523 -0.0226 -0.0642 -0.0873
   61PEG    COC 1500  11.407  12.135   8.519 -0.0068  0.2317 -0.6223
   61PEG    COC 1501  11.317  12.390   8.594  0.0753 -0.0501 -0.1709
   61PEG    COC 1502  11.316  12.591   8.842 -0.4493 -0.0039  0.4997
   61PEG    COC 1503  11.591  12.477   8.953 -0.0281  0.0623 -0.0823
   61PEG    COC 1504  11.523  12.284   9.136  0.2127  0.2220  0.0236
   61PEG    COC 1505  11.409  12.091   8.938  0.0766  0.2644  0.0726
   61PEG    COC 1506  11.201  11.887   9.018  0.4078 -0.0224  0.3907
   61PEG    COC 1507  11.259  11.702   9.279 -0.2840 -0.0712  0.1970
   61PEG    COC 1508  11.035  11.690   9.520  0.1876 -0.0026 -0.3409
   61PEG    COC 1509  10.899  11.955   9.636 -0.3550  0.1890  0.2021
   61PEG    COC 1510  10.580  11.967   9.632 -0.2649 -0.0734  0.1405
   61PEG    COC 1511  10.434  12.205   9.494  0.3072 -0.1366  0.4261
   61PEG    COC 1512  10.181  12.227   9.306 -0.1663  0.1742  0.0496
   61PEG    COC 1513   9.945  12.428   9.376  0.1268 -0.1485 -0.1510
   61PEG    COC 1514   9.709  12.283   9.326  0.4318 -0.3034 -0.1069
   61PEG    COC 1515   9.490  12.494   9.291  0.1678 -0.0862 -0.1124
   61PEG    COC 1516   9.541  12.693   9.093 -0.0867 -0.0523 -0.0410
   61PEG    COC 1517   9.433  12.850   8.870 -0.0732  0.3193  0.0461
   61PEG    COC 1518   9.330  13.097   8.774  0.0450 -0.1368 -0.3857
   61PEG    COC 1519   9.453  13.383   8.859  0.1712 -0.0315  0.2707
   61PEG    COC 1520   9.631  13.549   8.684  0.1049  0.0111  0.3538
   61PEG    COC 1521   9.911  13.460   8.709 -0.0217  0.4263 -0.2816
   61PEG    COC 1522  10.154  13.274   8.683  0.1539 -0.0124 -0.1905
   61PEG    COC 1523  10.275  13.064   8.484  0.1567 -0.3928 -0.2458
   61PEG    COC 1524  10.168  13.067   8.199  0.0464  0.1621 -0.4765
   61PEG    COC 1525   9.918  12.886   8.135 -0.0122  0.0635 -0.2310
   61PEG    COH 1526   9.669  12.993   8.211  0.5048  0.2505  0.2426
   62PEG    COH 1527  10.968  12.913  15.833  0.2321  0.0400 -0.1278
   62PEG    COC 1528  10.819  12.781  15.961 -0.2157 -0.1448 -0.0526
   62PEG    COC 1529  10.905  12.470  15.995 -0.2113 -0.0620 -0.0859
   62PEG    COC 1530  11.026  12.372  15.755 -0.0178  0.4814  0.0931
   62PEG    COC 1531  11.124  12.072  15.650 -0.0612  0.1195 -0.1447
   62PEG    COC 1532  11.411  11.982  15.751  0.3746  0.0028  0.1448
   62PEG    COC 1533  11.563  11.707  15.838 -0.0011  0.4747 -0.0564
   62PEG    COC 1534  11.560  11.412  16.048  0.0531 -0.0132  0.2782
   62PEG    COC 1535  11.667  11.304  16.288 -0.2319 -0.2241 -0.5923
   62PEG    COC 1536  11.632  11.396  16.568  0.1151  0.4107  0.5969
   62PEG    COC 1537  11.427  11.589  16.580 -0.2277 -0.0838  0.1924
   62PEG    COC 1538  11.351  11.725  16.309 -0.3767  0.1449 -0.0637
   62PEG    COC 1539  11.586  11.885  16.232  0.1334 -0.2265  0.0599
   62PEG    COC 1540  11.867  11.937  16.104  0.2059  0.0272 -0.2372
   62PEG    COC 1541  11.932  11.623  16.135 -0.0117 -0.1197 -0.1707
   62PEG    COC 1542  11.969  11.467  15.872 -0.0133 -0.1428 -0.0626
   62PEG    COC 1543  11.913  11.605  15.617 -0.0029 -0.0830 -0.0305
   62PEG    COC 1544  12.129  11.520  15.403 -0.2977 -0.2869 -0.1910
   62PEG    COC 1545  12.362  11.690  15.537  0.0950  0.0283 -0.5146
   62PEG    COC 1546  12.310  11.795  15.817 -0.0350  0.1143 -0.3817
   62PEG    COC 1547  12.351  11.657  16.087 -0.2396 -0.0255  0.0026
   62PEG    COC 1548  12.612  11.810  16.164  0.2844  0.0246  0.1480
   62PEG    COC 1549  12.871  11.635  16.104  0.2366  0.1622  0.1106
   62PEG    COC 1550  12.839  11.580  15.778 -0.3357  0.1238 -0.0097
   62PEG    COC 1551  12.831  11.778  15.558  0.0912  0.5604 -0.0590
   62PEG    COC 1552  12.646  12.049  15.593  0.2540 -0.3009 -0.1536
   62PEG    COC 1553  12.724  12.366  15.522 -0.0108 -0.1147 -0.3140
   62PEG    COC 1554  12.989  12.511  15.649  0.2106 -0.1828 -0.0513
   62PEG    COC 1555  13.222  12.623  15.474 -0.0469  0.0230 -0.2873
   62PEG    COC 1556  13.101  12.718  15.205  0.0221 -0.0014 -0.3493
   62PEG    COC 1557  13.006  13.013  15.278  0.5185 -0.1324 -0.1605
   62PEG    COC 1558  13.019  13.243  15.090 -0.0737 -0.3898 -0.2879
   62PEG    COC 1559  13.277  13.334  14.941  0.0134 -0.0884  0.1962
   62PEG    COC 1560  13.324  13.358  14.631 -0.0582 -0.1108  0.1497
   62PEG    COC 1561  13.212  13.580  14.472 -0.2332  0.0527 -0.2813
   62PEG    COC 1562  13.118  13.570  14.181  0.1023  0.1490 -0.2581
   62PEG    COC 1563  12.945  13.321  14.178 -0.0928  0.4472 -0.2345
   62PEG    COC 1564  12.713  13.372  13.990  0.0119 -0.4220 -0.2529
   62PEG    COC 1565  12.683  13.583  13.770  0.1173  0.2623 -0.2690
   62PEG    COC 1566  12.448  13.752  13.694 -0.0314 -0.3924 -0.0909
   62PEG    COC 1567  12.212  13.626  13.527  0.1557  0.2170 -0.5393
   62PEG    COC 1568  12.032  13.861  13.602  0.4051  0.6012  0.5163
   62PEG    COC 1569  11.783  13.955  13.467  0.3293 -0.0189 -0.1045
   62PEG    COC 1570  11.683  14.149  13.277  0.2539  0.1139 -0.0595
   62PEG    COC 1571  11.413  14.144  13.147  0.1858  0.1244 -0.0162
   62PEG    COH 1572  11.405  14.391  13.065 -0.1123  0.1126 -0.5251
   63PEG    COH 1573  10.629   3.811   9.819 -0.3880  0.1458 -0.1314
   63PEG    COC 1574  10.854   3.855   9.819  0.0502  0.0020 -0.0009
   63PEG    COC 1575  10.927   4.075   9.622 -0.1383  0.0629  0.2117
   63PEG    COC 1576  10.816   4.309   9.467  0.2801  0.0585 -0.2160
   63PEG    COC 1577  10.699   4.363   9.170 -0.2628 -0.2082  0.3284
   63PEG    COC 1578  10.903   4.441   8.938 -0.2940  0.2472  0.0141
   63PEG    COC 1579  11.183   4.520   8.894  0.3921  0.0102 -0.2666
   63PEG    COC 1580  11.333   4.437   8.643 -0.0519 -0.2611 -0.1167
   63PEG    COC 1581  11.242   4.136   8.570 -0.3066  0.0347  0.2225
   63PEG    COC 1582  11.466   3.973   8.413 -0.2140 -0.0721 -0.0561
   63PEG    COC 1583  11.512   3.665   8.502 -0.0050 -0.1911 -0.2040
   63PEG    COC 1584  11.564   3.406   8.301  0.0929 -0.0030 -0.4292
   63PEG    COC 1585  11.578   3.434   7.993  0.2236 -0.0037 -0.4579
   63PEG    COC 1586  11.686   3.234   7.787 -0.0205 -0.0491 -0.0960
   63PEG    COC 1587  11.808   3.396   7.592 -0.2227  0.2679 -0.4082
   63PEG    COC 1588  12.028   3.564   7.574  0.0972  0.1259 -0.0881
   63PEG    COC 1589  11.974   3.856   7.615  0.0821 -0.0509 -0.1481
   63PEG    COC 1590  12.106   3.919   7.890  0.3802  0.0709  0.0298
   63PEG    COC 1591  12.301   4.132   8.004  0.0570 -0.0098  0.2145
   63PEG    COC 1592  12.232   4.377   8.191  0.1332 -0.1202  0.0402
   63PEG    COC 1593  12.074   4.627   8.166 -0.0719  0.6009  0.2625
   63PEG    COC 1594  11.903   4.646   7.880  0.0716  0.1077 -0.2807
   63PEG    COC 1595  12.104   4.811   7.693  0.1084  0.1763 -0.1537
   63PEG    COC 1596  12.061   4.832   7.405 -0.2989 -0.0388 -0.0860
   63PEG    COC 1597  11.777   4.918   7.318 -0.4311 -0.5610  0.2437
   63PEG    COC 1598  11.554   4.749   7.392 -0.1371  0.1599  0.0904
   63PEG    COC 1599  11.370   4.548   7.279 -0.1705 -0.1134  0.0408
   63PEG    COC 1600  11.348   4.407   7.028  0.2887 -0.3157 -0.2561
   63PEG    COC 1601  11.537   4.157   6.964  0.2307  0.2106  0.0592
   63PEG    COC 1602  11.362   3.955   6.892 -0.0627  0.2504 -0.0768
   63PEG    COC 1603  11.085   4.089   6.876 -0.3753  0.0601 -0.2095
   63PEG    COC 1604  10.997   4.100   6.573  0.5380  0.1514  0.2857
   63PEG    COC 1605  10.770   4.191   6.448 -0.4811  0.1306 -0.3331
   63PEG    COC 1606  10.813   4.483   6.605  0.4113 -0.1838  0.1942
   63PEG    COC 1607  11.145   4.550   6.632 -0.0477 -0.2225 -0.1118
   63PEG    COC 1608  11.316   4.518   6.386 -0.0735 -0.1442  0.3728
   63PEG    COC 1609  11.134   4.468   6.109 -0.5591 -0.3640 -0.2595
   63PEG    COC 1610  11.062   4.662   5.909  0.5034  0.2338  0.4692
   63PEG    COC 1611  10.979   4.469   5.658  0.0495 -0.2541  0.3246
   63PEG    COC 1612  11.049   4.191   5.576 -0.0620  0.1590 -0.0529
   63PEG    COC 1613  11.285   4.190   5.364  0.0258  0.0430  0.1226
   63PEG    COC 1614  11.227   3.999   5.099  0.4404 -0.1912 -0.0988
   63PEG    COC 1615  11.337   3.742   5.119  0.0062 -0.2563  0.3287
   63PEG    COC 1616  11.218   3.547   4.895 -0.5210 -0.0948  0.2798
   63PEG    COC 1617  10.920   3.561   4.873  0.0216 -0.3910 -0.0268
   63PEG    COH 1618  10.841   3.374   4.727 -0.0032  0.5104  0.4305
   64PEG    COH 1619   0.545   9.853  11.557 -0.0437 -0.5918 -0.0510
   64PEG    COC 1620   0.350   9.837  11.712 -0.1220  0.0827  0.4841
   64PEG    COC 1621   0.093   9.694  11.590 -0.0416  0.3530  0.0344
   64PEG    COC 1622  -0.130   9.582  11.738  0.1392 -0.0655 -0.3544
   64PEG    COC 1623  -0.108   9.323  11.922 -0.0317  0.0182  0.4756
   64PEG    COC 1624  -0.230   9.319  12.184  0.5884 -0.0080  0.1775
   64PEG    COC 1625  -0.141   9.643  12.242 -0.4465  0.4281 -0.0098
   64PEG    COC 1626   0.152   9.634  12.140  0.0867  0.1244 -0.0344
   64PEG    COC 1627   0.437   9.705  12.157  0.0888  0.2311 -0.1137
   64PEG    COC 1628   0.564   9.809  12.426  0.1949 -0.1580 -0.1562
   64PEG    COC 1629   0.686   9.714  12.696 -0.2597  0.4192  0.0035
   64PEG    COC 1630   0.578   9.471  12.859  0.1620 -0.2116 -0.1582
   64PEG    COC 1631   0.272   9.500  13.014  0.3690 -0.1615  0.1520
   64PEG    COC 1632   0.005   9.402  12.989 -0.1040 -0.0694 -0.4333
   64PEG    COC 1633   0.009   9.157  12.805 -0.0675 -0.3275 -0.0324
   64PEG    COC 1634   0.042   9.097  12.500 -0.1634 -0.2347 -0.0722
   64PEG    COC 1635   0.319   9.125  12.325  0.0968 -0.3581 -0.0307
   64PEG    COC 1636   0.550   9.322  12.415  0.4388  0.0541  0.1751
   64PEG    COC 1637   0.824   9.283  12.205 -0.1710 -0.4524 -0.0492
   64PEG    COC 1638   0.797   9.132  11.913  0.2912  0.1935  0.0957
   64PEG    COC 1639   0.898   8.829  11.928 -0.1608  0.0079 -0.1891
   64PEG    COC 1640   1.183   8.715  12.051 -0.1208  0.0287  0.2012
   64PEG    COC 1641   1.468   8.703  11.992 -0.2371  0.1393  0.0352
   64PEG    COC 1642   1.491   8.956  11.881  0.3521 -0.1934 -0.0984
   64PEG    COC 1643   1.740   9.078  11.815  0.0163  0.3860  0.0523
   64PEG    COC 1644   2.044   9.043  11.674 -0.0348 -0.2041 -0.3973
   64PEG    COC 1645   1.993   9.323  11.574  0.0868  0.0008 -0.2800
   64PEG    COC 1646   1.773   9.274  11.333 -0.0136  0.2400 -0.0837
   64PEG    COC 1647   1.596   9.034  11.258  0.3960 -0.0022  0.1746
   64PEG    COC 1648   1.348   9.219  11.194 -0.2229 -0.2937  0.2692
   64PEG    COC 1649   1.121   9.125  11.038  0.3088  0.2252 -0.1309
   64PEG    COC 1650   0.848   9.115  11.230 -0.0536  0.1118 -0.0954
   64PEG    COC 1651   0.816   8.908  11.451 -0.1338  0.1225 -0.1659
   64PEG    COC 1652   0.546   9.010  11.543  0.0077 -0.1219  0.1363
   64PEG    COC 1653   0.506   9.307  11.455 -0.2274 -0.1224  0.2498
   64PEG    COC 1654   0.246   9.351  11.278 -0.2744 -0.0699 -0.1138
   64PEG    COC 1655   0.181   9.380  10.959  0.0960 -0.1200 -0.0742
   64PEG    COC 1656   0.131   9.630  10.788 -0.3597 -0.1947  0.1619
   64PEG    COC 1657  -0.092   9.556  10.558  0.1426  0.0125  0.0755
   64PEG    COC 1658  -0.239   9.284  10.623 -0.0265 -0.0862  0.1430
   64PEG    COC 1659  -0.403   9.074  10.490  0.2041 -0.0480 -0.4219
   64PEG    COC 1660  -0.649   9.200  10.637  0.0846  0.3513  0.1910
   64PEG    COC 1661  -0.858   9.389  10.545 -0.1351 -0.1854 -0.3927
   64PEG    COC 1662  -1.011   9.466  10.319  0.2614  0.2122 -0.2693
   64PEG    COC 1663  -1.033   9.767  10.309  0.1768 -0.3659 -0.0362
   64PEG    COH 1664  -0.920   9.916  10.561 -0.5493  0.1994  0.0238
   65PEG    COH 1665  15.570  12.724   3.645 -0.3598 -0.1562  0.5320
   65PEG    COC 1666  15.610  12.445   3.626 -0.2434  0.0624  0.4568
   65PEG    COC 1667  15.851  12.387   3.476  0.2351  0.0512 -0.0357
   65PEG    COC 1668  16.114  12.394   3.501  0.1543 -0.2439 -0.0327
   65PEG    COC 1669  16.230  12.517   3.252  0.2672  0.3917  0.1151
   65PEG    COC 1670  16.347  12.412   2.970 -0.1259  0.0921  0.1401
   65PEG    COC 1671  16.174  12.474   2.722 -0.2131 -0.1506  0.0905
   65PEG    COC 1672  15.884  12.409   2.842  0.0956 -0.0321  0.1866
   65PEG    COC 1673  15.874  12.102   2.878 -0.4020  0.0563 -0.1596
   65PEG    COC 1674  15.752  12.004   2.624 -0.2329 -0.2142 -0.2504
   65PEG    COC 1675  15.633  11.693   2.601  0.2339  0.2909 -0.1747
   65PEG    COC 1676  15.342  11.668   2.625 -0.1078  0.3902  0.3220
   65PEG    COC 1677  15.139  11.903   2.549  0.1664  0.4645  0.3575
   65PEG    COC 1678  14.886  12.077   2.516  0.1016 -0.0523 -0.1707
   65PEG    COC 1679  14.640  11.867   2.550  0.3024 -0.1693 -0.1860
   65PEG    COC 1680  14.695  11.599   2.650  0.2652  0.5984  0.0306
   65PEG    COC 1681  14.977  11.477   2.536  0.4661  0.1062 -0.1524
   65PEG    COC 1682  15.147  11.482   2.252 -0.1335 -0.2428  0.0139
   65PEG    COC 1683  15.263  11.202   2.251  0.1479  0.3310 -0.1752
   65PEG    COC 1684  15.322  11.159   1.964  0.2526  0.1991  0.0911
   65PEG    COC 1685  15.204  11.408   1.799  0.0427 -0.5271  0.1551
   65PEG    COC 1686  15.264  11.696   1.735  0.0561  0.0004 -0.0224
   65PEG    COC 1687  15.122  11.797   1.465  0.0169  0.3231  0.2410
   65PEG    COC 1688  15.254  12.070   1.321  0.1490 -0.0768 -0.1878
   65PEG    COC 1689  15.424  12.348   1.324 -0.1073 -0.2983 -0.0237
   65PEG    COC 1690  15.420  12.592   1.090 -0.0222 -0.2262  0.4389
   65PEG    COC 1691  15.515  12.572   0.807 -0.3821 -0.2240 -0.1110
   65PEG    COC 1692  15.601  12.492   0.558  0.0710 -0.2477 -0.0601
   65PEG    COC 1693  15.914  12.597   0.478  0.0683 -0.0066  0.0049
   65PEG    COC 1694  16.084  12.377   0.555  0.2141  0.0093 -0.3716
   65PEG    COC 1695  16.380  12.306   0.546  0.2312 -0.1463 -0.1066
   65PEG    COC 1696  16.578  12.493   0.412 -0.0783 -0.0224 -0.0090
   65PEG    COC 1697  16.849  12.399   0.347  0.0616  0.0223 -0.4416
   65PEG    COC 1698  16.901  12.151   0.528 -0.3073 -0.1299  0.2767
   65PEG    COC 1699  17.090  12.224   0.742 -0.0307 -0.1076 -0.2883
   65PEG    COC 1700  16.931  12.012   0.945 -0.0099 -0.0466 -0.0107
   65PEG    COC 1701  17.026  11.885   1.200  0.1962  0.3839 -0.3578
   65PEG    COC 1702  16.831  11.649   1.321  0.0212 -0.3184 -0.2940
   65PEG    COC 1703  16.799  11.582   1.010  0.0130  0.1693  0.0697
   65PEG    COC 1704  16.825  11.267   0.982  0.4051  0.0622  0.0206
   65PEG    COC 1705  16.603  11.102   0.973  0.0464  0.3060 -0.2419
   65PEG    COC 1706  16.705  10.878   1.174 -0.2492  0.3451 -0.0954
   65PEG    COC 1707  16.749  10.859   1.506 -0.2741  0.2277  0.1411
   65PEG    COC 1708  16.605  10.975   1.700  0.0824  0.2228 -0.0407
   65PEG    COC 1709  16.382  11.129   1.778  0.5734  0.1152  0.0535
   65PEG    COH 1710  16.159  11.183   1.627  0.1820 -0.2354 -0.2071
   66PEG    COH 1711   5.440   4.874   8.274  0.2372  0.2823 -0.2858
   66PEG    COC 1712   5.578   5.041   8.114 -0.0499  0.0739  0.2715
   66PEG    COC 1713   5.356   5.245   8.069  0.1612 -0.0755  0.0647
   66PEG    COC 1714   5.335   5.435   7.836 -0.0665  0.1355  0.0372
   66PEG    COC 1715   5.511   5.689   7.835  0.4059 -0.3203 -0.3491
   66PEG    COC 1716   5.680   5.757   8.121  0.1377 -0.0749  0.1046
   66PEG    COC 1717   5.924   5.856   7.922 -0.2100 -0.2028 -0.1887
   66PEG    COC 1718   5.749   5.970   7.677  0.0490 -0.2052 -0.1294
   66PEG    COC 1719   5.551   6.183   7.700 -0.3888  0.7471 -0.2921
   66PEG    COC 1720   5.359   6.086   7.922 -0.2119  0.0158 -0.4883
   66PEG    COC 1721   5.275   6.157   8.197 -0.2116 -0.0331  0.1209
   66PEG    COC 1722   5.106   6.304   8.363  0.4094  0.0282  0.2908
   66PEG    COC 1723   4.819   6.430   8.293 -0.1059 -0.2075  0.1642
   66PEG    COC 1724   4.911   6.653   8.123 -0.0108 -0.0133 -0.2013
   66PEG    COC 1725   4.843   6.928   8.289 -0.1480 -0.0353 -0.0735
   66PEG    COC 1726   4.842   6.851   8.582  0.1962 -0.0371 -0.1018
   66PEG    COC 1727   4.919   6.643   8.795  0.2025 -0.4832  0.1627
   66PEG    COC 1728   5.128   6.476   8.748  0.0937  0.0757 -0.3230
   66PEG    COC 1729   5.393   6.490   8.645 -0.3280  0.1110 -0.0091
   66PEG    COC 1730   5.583   6.526   8.407 -0.3243 -0.0346 -0.3433
   66PEG    COC 1731   5.710   6.809   8.274 -0.2854  0.5184 -0.1091
   66PEG    COC 1732   5.881   6.784   8.018 -0.1230  0.1195 -0.5275
   66PEG    COC 1733   5.806   6.547   7.821  0.2078  0.3594 -0.1705
   66PEG    COC 1734   5.567   6.671   7.629  0.1210 -0.0343  0.1184
   66PEG    COC 1735   5.316   6.850   7.596  0.2841  0.2067  0.0686
   66PEG    COC 1736   5.051   6.879   7.779 -0.3529  0.1202 -0.1977
   66PEG    COC 1737   4.838   7.078   7.883  0.0430 -0.2149 -0.1760
   66PEG    COC 1738   4.676   7.300   7.769  0.1462  0.0127 -0.0658
   66PEG    COC 1739   4.570   7.507   7.551  0.0369 -0.2210  0.0694
   66PEG    COC 1740   4.234   7.509   7.512  0.1650  0.0747 -0.1455
   66PEG    COC 1741   4.170   7.237   7.546 -0.0012  0.3100 -0.1004
   66PEG    COC 1742   4.082   6.998   7.693 -0.4253  0.3145  0.2700
   66PEG    COC 1743   3.914   6.917   7.457 -0.2303 -0.3006  0.2967
   66PEG    COC 1744   4.023   6.994   7.167  0.0136  0.1313 -0.0797
   66PEG    COC 1745   3.964   7.112   6.881  0.1083 -0.4297 -0.1355
   66PEG    COC 1746   3.713   7.156   6.797 -0.1875 -0.1645 -0.2706
   66PEG    COC 1747   3.621   6.985   6.582  0.4058  0.2949  0.2311
   66PEG    COC 1748   3.615   6.899   6.300  0.3753 -0.0567  0.1771
   66PEG    COC 1749   3.773   6.681   6.180  0.3695  0.2831  0.0144
   66PEG    COC 1750   3.784   6.741   5.878 -0.2510 -0.0930  0.1877
   66PEG    COC 1751   3.984   6.537   5.751  0.4709  0.3105  0.0440
   66PEG    COC 1752   3.961   6.374   5.491  0.1120  0.0559  0.4180
   66PEG    COC 1753   3.769   6.135   5.424  0.3099 -0.2212  0.1911
   66PEG    COC 1754   3.587   6.221   5.207  0.0482 -0.0894 -0.3928
   66PEG    COC 1755   3.653   6.535   5.133 -0.1280  0.0454 -0.2371
   66PEG    COH 1756   3.463   6.658   5.092 -0.0494  0.1013  0.1015
   67PEG    COH 1757   0.424  10.123  15.942 -0.3117  0.0251 -0.1444
   67PEG    COC 1758   0.151  10.130  15.993  0.0040 -0.0018  0.4439
   67PEG    COC 1759  -0.129  10.145  15.819  0.4873  0.1784 -0.1460
   67PEG    COC 1760  -0.230  10.233  15.541  0.6507  0.3330  0.3251
   67PEG    COC 1761  -0.528  10.192  15.422 -0.2843  0.0290 -0.0626
   67PEG    COC 1762  -0.714  10.291  15.653  0.3290  0.1586 -0.1047
   67PEG    COC 1763  -0.594  10.368  15.949 -0.1425 -0.1856  0.5314
   67PEG    COC 1764  -0.685  10.608  16.133  0.4534  0.0314  0.1562
   67PEG    COC 1765  -0.515  10.863  16.233  0.1935  0.2175 -0.4807
   67PEG    COC 1766  -0.261  10.866  16.422  0.1578  0.0517 -0.0342
   67PEG    COC 1767  -0.343  10.846  16.749 -0.1332  0.4970 -0.2713
   67PEG    COC 1768  -0.093  10.942  16.923 -0.0760  0.4025 -0.0076
   67PEG    COC 1769   0.112  11.030  16.692 -0.2943  0.6745 -0.0642
   67PEG    COC 1770   0.351  11.218  16.611  0.0964  0.1351 -0.0014
   67PEG    COC 1771   0.559  11.358  16.790 -0.0238 -0.0675 -0.0793
   67PEG    COC 1772   0.606  11.171  17.007  0.0824  0.1713 -0.1035
   67PEG    COC 1773   0.759  11.031  17.218 -0.1480  0.4085 -0.2312
   67PEG    COC 1774   0.919  10.774  17.101  0.0718 -0.3154  0.3277
   67PEG    COC 1775   0.838  10.522  16.924  0.0209  0.5062 -0.0099
   67PEG    COC 1776   0.976  10.234  16.969 -0.3811  0.0389  0.0501
   67PEG    COC 1777   0.881  10.181  17.220 -0.0679  0.1748  0.0723
   67PEG    COC 1778   0.704   9.943  17.227 -0.2589  0.0382  0.0031
   67PEG    COC 1779   0.655   9.778  17.462 -0.0028 -0.1850  0.0415
   67PEG    COC 1780   0.492   9.838  17.716  0.2324  0.3320 -0.4148
   67PEG    COC 1781   0.485   9.619  17.877  0.1546  0.0450  0.1093
   67PEG    COC 1782   0.454   9.604  18.193 -0.0791 -0.2051 -0.1710
   67PEG    COC 1783   0.403   9.296  18.207  0.1429  0.0148  0.5783
   67PEG    COC 1784   0.700   9.118  18.318  0.0440  0.2756 -0.0904
   67PEG    COC 1785   0.833   8.859  18.349  0.2453 -0.4888  0.1583
   67PEG    COC 1786   1.074   8.667  18.280  0.2153 -0.1125 -0.0269
   67PEG    COC 1787   1.320   8.651  18.491  0.2216  0.0769  0.2294
   67PEG    COC 1788   1.201   8.641  18.763 -0.1389 -0.3128  0.1489
   67PEG    COC 1789   0.898   8.675  18.912 -0.3603 -0.4250  0.2186
   67PEG    COC 1790   0.924   8.912  19.098 -0.0969  0.0142  0.1074
   67PEG    COC 1791   1.192   9.044  19.089 -0.0103 -0.2208 -0.2181
   67PEG    COC 1792   1.281   9.269  19.289  0.0611 -0.1891 -0.0489
   67PEG    COC 1793   1.568   9.454  19.293 -0.1353  0.1685 -0.4446
   67PEG    COC 1794   1.655   9.688  19.444  0.2532  0.0807 -0.3506
   67PEG    COC 1795   1.449   9.756  19.614 -0.2165  0.0575 -0.2089
   67PEG    COC 1796   1.312   9.511  19.761 -0.2305  0.2872 -0.0622
   67PEG    COC 1797   1.397   9.397  20.036  0.0745  0.1513  0.1001
   67PEG    COC 1798   1.399   9.258  20.315  0.1089 -0.2849  0.1905
   67PEG    COC 1799   1.203   9.365  20.481 -0.2613  0.0654  0.5340
   67PEG    COC 1800   0.890   9.295  20.434 -0.3953 -0.1448 -0.1458
   67PEG    COC 1801   0.706   9.027  20.344  0.0690  0.1517 -0.1220
   67PEG    COH 1802   0.874   8.819  20.293  0.0323 -0.0542 -0.1779
   68PEG    COH 1803   5.737   6.726   1.842  0.3953  0.1017 -0.2065
   68PEG    COC 1804   5.511   6.635   1.791 -0.0864 -0.4488  0.0331
   68PEG    COC 1805   5.340   6.396   1.751  0.2734 -0.3327 -0.0468
   68PEG    COC 1806   5.349   6.100   1.926  0.2661  0.3580  0.0464
   68PEG    COC 1807   5.083   5.932   1.921 -0.3468  0.1196  0.2345
   68PEG    COC 1808   5.034   5.790   2.186  0.0932 -0.1019 -0.3035
   68PEG    COC 1809   5.299   5.832   2.334  0.3670  0.0923  0.3392
   68PEG    COC 1810   5.420   5.574   2.439  0.2635  0.4640 -0.0926
   68PEG    COC 1811   5.301   5.404   2.664  0.0419  0.2059 -0.1543
   68PEG    COC 1812   5.053   5.300   2.797  0.0690 -0.2009 -0.2875
   68PEG    COC 1813   4.794   5.193   2.946 -0.1271  0.0643  0.1276
   68PEG    COC 1814   4.569   5.372   2.950 -0.1357 -0.0273 -0.0421
   68PEG    COC 1815   4.488   5.534   2.715  0.0079 -0.3190  0.2043
   68PEG    COC 1816   4.359   5.459   2.465 -0.0184  0.1828  0.0745
   68PEG    COC 1817   4.343   5.154   2.470 -0.2984 -0.3316  0.4876
   68PEG    COC 1818   4.563   4.952   2.339  0.0038 -0.1288 -0.1087
   68PEG    COC 1819   4.685   4.797   2.562  0.2894 -0.1399 -0.6289
   68PEG    COC 1820   4.862   4.827   2.810 -0.1797  0.3611  0.1718
   68PEG    COC 1821   5.147   4.794   2.830  0.0566 -0.1631  0.0166
   68PEG    COC 1822   5.367   4.995   2.769 -0.0515 -0.0848  0.1878
   68PEG    COC 1823   5.497   4.817   2.604 -0.0455 -0.3168  0.4697
   68PEG    COC 1824   5.819   4.847   2.658  0.1391  0.5115  0.2875
   68PEG    COC 1825   5.992   4.731   2.879  0.0148 -0.1175 -0.1822
   68PEG    COC 1826   5.830   4.686   3.108 -0.0523  0.1262  0.1035
   68PEG    COC 1827   5.545   4.855   3.139 -0.3912 -0.0351 -0.5763
   68PEG    COC 1828   5.474   4.907   3.446 -0.2742 -0.2175 -0.4269
   68PEG    COC 1829   5.184   5.053   3.456 -0.0567  0.2026  0.0055
   68PEG    COC 1830   5.160   5.163   3.186  0.2097  0.1743  0.2245
   68PEG    COC 1831   5.384   5.339   3.133 -0.0592  0.1187  0.2415
   68PEG    COC 1832   5.616   5.321   3.019  0.0764  0.1633  0.1122
   68PEG    COC 1833   5.741   5.238   2.770  0.1933 -0.0459  0.2014
   68PEG    COC 1834   5.956   5.417   2.721 -0.0527 -0.2881 -0.4680
   68PEG    COC 1835   5.975   5.729   2.794 -0.1164  0.3293  0.1382
   68PEG    COC 1836   6.231   5.817   2.680  0.2983  0.1239  0.3236
   68PEG    COC 1837   6.209   6.104   2.554 -0.3765 -0.0725  0.0275
   68PEG    COC 1838   6.445   6.281   2.515  0.0043  0.3355 -0.1061
   68PEG    COC 1839   6.485   6.406   2.788 -0.2704  0.1235 -0.2422
   68PEG    COC 1840   6.208   6.346   2.957  0.3238  0.0659 -0.3782
   68PEG    COC 1841   6.012   6.115   2.935  0.1459  0.3969  0.2468
   68PEG    COC 1842   5.740   6.184   2.951  0.1669 -0.0295  0.2612
   68PEG    COC 1843   5.672   6.486   2.929  0.3145 -0.1522 -0.2570
   68PEG    COC 1844   5.537   6.642   2.727 -0.2216  0.6019  0.1828
   68PEG    COC 1845   5.548   6.706   2.403 -0.2542  0.1214  0.2117
   68PEG    COC 1846   5.370   6.804   2.201  0.1614 -0.3178 -0.1466
   68PEG    COC 1847   5.176   6.984   2.370 -0.2240 -0.1950  0.0967
   68PEG    COH 1848   5.209   7.164   2.144  0.1922 -0.1440 -0.9038
   69PEG    COH 1849   7.916   7.732   3.061  0.0434  0.0612  0.3361
   69PEG    COC 1850   8.062   7.569   2.969 -0.2357  0.0710  0.4055
   69PEG    COC 1851   7.899   7.336   2.817 -0.0312  0.2713  0.2625
   69PEG    COC 1852   8.096   7.208   2.617 -0.1442  0.0254  0.0518
   69PEG    COC 1853   8.400   7.184   2.747 -0.0173  0.3510 -0.4444
   69PEG    COC 1854   8.591   7.207   2.542 -0.1403  0.4427 -0.3076
   69PEG    COC 1855   8.713   7.225   2.263 -0.2788 -0.1558 -0.4102
   69PEG    COC 1856   9.044   7.238   2.293  0.2039 -0.0790  0.0715
   69PEG    COC 1857   9.151   7.297   2.058 -0.1869 -0.1068  0.1599
   69PEG    COC 1858   9.039   7.034   1.916 -0.0621 -0.0318  0.4158
   69PEG    COC 1859   9.101   6.837   2.121 -0.2349 -0.1496 -0.1687
   69PEG    COC 1860   9.384   6.922   2.180 -0.2494 -0.2377 -0.2875
   69PEG    COC 1861   9.409   7.016   2.424 -0.0397  0.0429  0.2443
   69PEG    COC 1862   9.693   7.069   2.434  0.4530  0.0267 -0.2502
   69PEG    COC 1863   9.875   6.852   2.464  0.3381  0.2178  0.0526
   69PEG    COC 1864   9.821   6.564   2.483 -0.0848  0.0254 -0.0494
   69PEG    COC 1865   9.948   6.409   2.772  0.1513  0.1494 -0.0143
   69PEG    COC 1866   9.879   6.109   2.807 -0.0729  0.3189 -0.2713
   69PEG    COC 1867   9.707   5.980   3.033 -0.2149 -0.0170  0.4239
   69PEG    COC 1868   9.901   5.823   3.217  0.1194 -0.2672 -0.2230
   69PEG    COC 1869  10.181   5.789   3.084 -0.4125 -0.1637 -0.0417
   69PEG    COC 1870  10.231   5.486   3.140  0.2997 -0.0170  0.1350
   69PEG    COC 1871   9.944   5.406   2.999 -0.0868  0.1427 -0.0575
   69PEG    COC 1872   9.882   5.657   2.804 -0.1653  0.4481 -0.3777
   69PEG    COC 1873   9.831   5.772   2.520 -0.4223  0.1111  0.0901
   69PEG    COC 1874   9.625   5.662   2.326  0.1077  0.0951 -0.3386
   69PEG    COC 1875   9.537   5.577   2.064  0.3168 -0.3303 -0.2500
   69PEG    COC 1876   9.623   5.403   1.827  0.0779  0.2073  0.4079
   69PEG    COC 1877   9.866   5.387   1.694  0.0914  0.1062  0.1858
   69PEG    COC 1878   9.958   5.135   1.602  0.1325  0.2331 -0.5744
   69PEG    COC 1879   9.746   4.929   1.564  0.0077  0.0622 -0.5973
   69PEG    COC 1880   9.816   4.639   1.699 -0.2777  0.1312  0.0011
   69PEG    COC 1881   9.509   4.580   1.674  0.6364 -0.1523  0.0841
   69PEG    COC 1882   9.447   4.306   1.762  0.0304 -0.0498  0.1763
   69PEG    COC 1883   9.346   4.053   1.935  0.4320  0.2370  0.0271
   69PEG    COC 1884   9.024   4.111   1.870  0.3079  0.1752 -0.1036
   69PEG    COC 1885   9.058   3.981   1.591 -0.2263 -0.2929  0.4368
   69PEG    COC 1886   9.217   3.758   1.635 -0.2029 -0.3729 -0.3168
   69PEG    COC 1887   9.080   3.479   1.608 -0.1274  0.2156 -0.1103
   69PEG    COC 1888   8.982   3.330   1.360 -0.0006 -0.2295  0.0759
   69PEG    COC 1889   8.910   3.327   1.063  0.0650  0.2287 -0.0934
   69PEG    COC 1890   8.867   3.565   0.849 -0.0476  0.3536 -0.1916
   69PEG    COC 1891   8.638   3.746   0.834 -0.1757  0.0339 -0.2763
   69PEG    COC 1892   8.576   3.753   0.500 -0.4358 -0.1472 -0.2593
   69PEG    COC 1893   8.286   3.821   0.491  0.2094  0.1632 -0.3075
   69PEG    COH 1894   8.222   3.884   0.742  0.3536  0.2909 -0.3824
   70PEG    COH 1895  14.795  12.140  15.999 -0.5095  0.6914  0.0889
   70PEG    COC 1896  14.703  11.923  16.126 -0.1596  0.2899 -0.1213
   70PEG    COC 1897  14.795  11.637  16.005 -0.1421 -0.0556 -0.0828
   70PEG    COC 1898  14.525  11.505  16.073 -0.1062 -0.3748 -0.3313
   70PEG    COC 1899  14.400  11.529  16.358 -0.5061  0.0220  0.1435
   70PEG    COC 1900  14.364  11.333  16.549  0.0816  0.1250  0.2460
   70PEG    COC 1901  14.619  11.205  16.570 -0.3465 -0.0698  0.0325
   70PEG    COC 1902  14.773  11.114  16.312 -0.0903 -0.0108  0.0922
   70PEG    COC 1903  15.044  11.151  16.238  0.0594 -0.4413 -0.2246
   70PEG    COC 1904  15.172  11.332  16.044  0.3540 -0.4063 -0.0608
   70PEG    COC 1905  15.444  11.258  16.008 -0.0293  0.4492  0.1660
   70PEG    COC 1906  15.555  10.967  16.081  0.3899 -0.3270  0.2229
   70PEG    COC 1907  15.554  10.673  16.061  0.4070  0.2697 -0.2986
   70PEG    COC 1908  15.757  10.578  15.866 -0.3064 -0.0318 -0.0133
   70PEG    COC 1909  15.923  10.704  15.657 -0.1554  0.1140  0.3432
   70PEG    COC 1910  16.200  10.615  15.730 -0.2485 -0.1098 -0.2083
   70PEG    COC 1911  16.466  10.625  15.662  0.1057 -0.5662 -0.0899
   70PEG    COC 1912  16.529  10.772  15.412  0.1431 -0.2750 -0.0630
   70PEG    COC 1913  16.833  10.759  15.350  0.0334  0.1028 -0.2463
   70PEG    COC 1914  16.982  10.809  15.604 -0.6007 -0.1350  0.2066
   70PEG    COC 1915  17.094  11.050  15.743 -0.4007 -0.3297 -0.6312
   70PEG    COC 1916  17.227  11.344  15.786 -0.0697 -0.3332  0.1727
   70PEG    COC 1917  17.025  11.538  15.861 -0.2859 -0.2890  0.1058
   70PEG    COC 1918  16.743  11.623  15.829  0.3405 -0.2205  0.1014
   70PEG    COC 1919  16.629  11.799  16.047  0.4845 -0.1108 -0.0394
   70PEG    COC 1920  16.637  12.106  16.037  0.0747 -0.1901 -0.0200
   70PEG    COC 1921  16.375  12.227  16.082  0.1206 -0.1983  0.0574
   70PEG    COC 1922  16.211  12.358  15.869 -0.0130 -0.1904 -0.1875
   70PEG    COC 1923  16.221  12.663  15.984  0.0853  0.2023  0.0188
   70PEG    COC 1924  16.007  12.831  15.850 -0.4926  0.6164  0.1926
   70PEG    COC 1925  16.096  13.150  15.895  0.0901 -0.2558  0.3426
   70PEG    COC 1926  16.084  13.216  16.209  0.1455 -0.4668  0.1459
   70PEG    COC 1927  16.180  13.422  16.429 -0.1198 -0.0403 -0.3578
   70PEG    COC 1928  16.286  13.726  16.428 -0.0404 -0.2760  0.0395
   70PEG    COC 1929  16.399  13.966  16.530 -0.2272 -0.3935  0.1582
   70PEG    COC 1930  16.262  14.073  16.764  0.0572  0.2352  0.2456
   70PEG    COC 1931  16.334  14.336  16.859 -0.2697 -0.0763  0.0505
   70PEG    COC 1932  16.613  14.408  16.688 -0.0516 -0.1750  0.0523
   70PEG    COC 1933  16.754  14.170  16.552 -0.3743 -0.0025  0.4337
   70PEG    COC 1934  16.730  14.135  16.271 -0.0907  0.1155  0.5018
   70PEG    COC 1935  16.883  14.280  16.019  0.2944  0.2899  0.3627
   70PEG    COC 1936  17.095  14.498  15.956 -0.2892 -0.6773  0.2987
   70PEG    COC 1937  16.939  14.762  15.963  0.2539  0.3521  0.0590
   70PEG    COC 1938  16.648  14.872  16.048  0.2577  0.0784 -0.0851
   70PEG    COC 1939  16.443  15.112  16.062  0.1851 -0.1756 -0.1527
   70PEG    COH 1940  16.578  15.257  15.882 -0.3866  0.4458  0.1929
   71PEG    COH 1941  11.099   4.418  14.709  0.6691 -0.2103 -0.2438
   71PEG    COC 1942  11.049   4.233  14.837 -0.1440 -0.2947 -0.1706
   71PEG    COC 1943  11.151   4.002  14.710  0.1991  0.1850  0.2396
   71PEG    COC 1944  11.453   3.885  14.746 -0.0792  0.4623  0.0795
   71PEG    COC 1945  11.708   3.891  14.888  0.0854 -0.4729 -0.3839
   71PEG    COC 1946  11.885   3.674  14.743 -0.0983  0.1531  0.3643
   71PEG    COC 1947  12.110   3.477  14.925 -0.2444 -0.2332  0.2161
   71PEG    COC 1948  12.199   3.186  14.855 -0.2383  0.1189  0.2565
   71PEG    COC 1949  12.452   3.066  14.867  0.1387  0.0224  0.1228
   71PEG    COC 1950  12.481   2.788  14.870 -0.1894  0.1514  0.0530
   71PEG    COC 1951  12.517   2.544  14.766  0.1103 -0.3456 -0.0907
   71PEG    COC 1952  12.761   2.512  14.610 -0.3145  0.0515 -0.1152
   71PEG    COC 1953  12.920   2.526  14.365 -0.0752  0.3578  0.2229
   71PEG    COC 1954  13.116   2.351  14.193  0.0055 -0.4013 -0.0610
   71PEG    COC 1955  13.304   2.416  13.966  0.1855  0.3048 -0.3190
   71PEG    COC 1956  13.215   2.565  13.705 -0.3353 -0.1642  0.0618
   71PEG    COC 1957  13.253   2.856  13.670 -0.1216 -0.1013 -0.0448
   71PEG    COC 1958  13.027   3.019  13.726  0.2613  0.0815 -0.2780
   71PEG    COC 1959  12.745   3.066  13.593 -0.1237 -0.1469 -0.0513
   71PEG    COC 1960  12.475   2.918  13.463  0.0134 -0.7124 -0.3014
   71PEG    COC 1961  12.267   2.705  13.404 -0.4807 -0.0118  0.1008
   71PEG    COC 1962  12.345   2.509  13.628  0.5126 -0.3500  0.0586
   71PEG    COC 1963  12.331   2.235  13.757  0.3056 -0.3174  0.4951
   71PEG    COC 1964  12.605   2.202  13.838 -0.1764 -0.2434 -0.4199
   71PEG    COC 1965  12.629   2.325  14.133  0.2098 -0.0629  0.0972
   71PEG    COC 1966  12.631   2.174  14.383  0.0737  0.4202 -0.5975
   71PEG    COC 1967  12.506   2.068  14.644  0.0191  0.2222 -0.3292
   71PEG    COC 1968  12.257   1.933  14.634 -0.3877  0.0134 -0.0766
   71PEG    COC 1969  12.017   1.785  14.517 -0.1950  0.0791  0.1459
   71PEG    COC 1970  11.860   1.948  14.307  0.1851  0.1373  0.0474
   71PEG    COC 1971  11.569   2.024  14.281 -0.1882  0.2440 -0.1078
   71PEG    COC 1972  11.394   1.855  14.445 -0.0975  0.0078 -0.3961
   71PEG    COC 1973  11.384   1.582  14.410  0.0535  0.0625 -0.1526
   71PEG    COC 1974  11.267   1.321  14.265  0.2952  0.0741  0.0588
   71PEG    COC 1975  10.929   1.294  14.294  0.1920 -0.1152 -0.1734
   71PEG    COC 1976  10.847   1.551  14.259  0.0946 -0.2023  0.1185
   71PEG    COC 1977  10.644   1.757  14.377 -0.0487 -0.2904 -0.1511
   71PEG    COC 1978  10.431   2.020  14.290 -0.2100 -0.2030  0.0974
   71PEG    COC 1979  10.665   2.166  14.080  0.2243  0.0716 -0.2435
   71PEG    COC 1980  10.848   2.375  14.024 -0.2150 -0.0512 -0.0706
   71PEG    COC 1981  11.037   2.334  13.777 -0.1106  0.1895 -0.1038
   71PEG    COC 1982  10.852   2.281  13.550 -0.2388  0.2688 -0.2882
   71PEG    COC 1983  10.685   2.002  13.552  0.1316  0.0697 -0.2324
   71PEG    COC 1984  10.447   2.100  13.431  0.2385 -0.1929  0.0605
   71PEG    COC 1985  10.340   1.805  13.328  0.3367  0.1106 -0.0091
   71PEG    COH 1986  10.371   1.714  13.589 -0.5180  0.1666 -0.3364
   72PEG    COH 1987  12.479  13.514   3.460 -0.2464  0.1471  0.0223
   72PEG    COC 1988  12.598  13.499   3.663  0.1503 -0.0287  0.1344
   72PEG    COC 1989  12.882  13.580   3.526 -0.2598 -0.0069 -0.2242
   72PEG    COC 1990  12.785  13.597   3.245 -0.0159 -0.1281  0.0472
   72PEG    COC 1991  12.798  13.310   3.105 -0.3307  0.0110 -0.1917
   72PEG    COC 1992  13.026  13.139   3.208 -0.0887  0.0702  0.1993
   72PEG    COC 1993  13.166  12.940   3.061  0.5016  0.1082  0.3170
   72PEG    COC 1994  13.444  13.085   3.081  0.0511 -0.1565 -0.0256
   72PEG    COC 1995  13.693  12.976   2.972  0.3094  0.4209  0.1168
   72PEG    COC 1996  13.963  12.921   2.839 -0.3830 -0.0935  0.1852
   72PEG    COC 1997  14.089  13.090   2.616  0.1290 -0.0578 -0.2583
   72PEG    COC 1998  14.261  13.348   2.574  0.2724 -0.0054  0.2118
   72PEG    COC 1999  14.044  13.518   2.444 -0.0092 -0.0012  0.0217
   72PEG    COC 2000  14.009  13.765   2.566  0.0640 -0.1044 -0.2342
   72PEG    COC 2001  13.986  13.984   2.346  0.2923 -0.3044  0.2630
   72PEG    COC 2002  13.972  14.300   2.310 -0.3026 -0.0975 -0.1305
   72PEG    COC 2003  14.058  14.565   2.194  0.1697  0.8281 -0.3016
   72PEG    COC 2004  13.885  14.732   1.994 -0.0299 -0.3284  0.5322
   72PEG    COC 2005  13.621  14.846   1.956  0.0573 -0.1060 -0.3574
   72PEG    COC 2006  13.419  15.029   1.866  0.3009  0.3673  0.3488
   72PEG    COC 2007  13.455  15.344   1.896  0.2438 -0.0394 -0.2110
   72PEG    COC 2008  13.321  15.449   2.108  0.0491  0.2688  0.1906
   72PEG    COC 2009  13.019  15.382   2.098  0.3614 -0.4691  0.2726
   72PEG    COC 2010  12.773  15.495   2.061 -0.3895  0.0480 -0.1433
   72PEG    COC 2011  12.599  15.469   2.287  0.2884  0.1588  0.5804
   72PEG    COC 2012  12.591  15.131   2.284 -0.3513 -0.0010  0.8936
   72PEG    COC 2013  12.824  14.954   2.113 -0.1378  0.0994 -0.0461
   72PEG    COC 2014  12.862  14.648   2.086  0.2225 -0.4610  0.0487
   72PEG    COC 2015  12.672  14.501   1.837  0.3008 -0.0704 -0.2376
   72PEG    COC 2016  12.904  14.434   1.692 -0.1887 -0.1398 -0.0133
   72PEG    COC 2017  12.976  14.692   1.555 -0.2588 -0.0078 -0.0556
   72PEG    COC 2018  13.158  14.677   1.334  0.0115  0.0101 -0.0050
   72PEG    COC 2019  13.362  14.889   1.361  0.0162 -0.1167  0.3308
   72PEG    COC 2020  13.374  15.215   1.325 -0.3423  0.2250 -0.4177
   72PEG    COC 2021  13.588  15.396   1.495  0.1246 -0.0863 -0.1379
   72PEG    COC 2022  13.680  15.653   1.309  0.2618 -0.2192  0.3617
   72PEG    COC 2023  13.881  15.872   1.382  0.1081 -0.0743  0.0756
   72PEG    COC 2024  13.918  16.085   1.131 -0.2953  0.2215 -0.0453
   72PEG    COC 2025  14.117  16.294   1.058 -0.0601 -0.1748  0.1721
   72PEG    COC 2026  14.157  16.288   0.751  0.1356 -0.1676 -0.0683
   72PEG    COC 2027  14.051  16.006   0.714  0.0962 -0.1938  0.6081
   72PEG    COC 2028  13.890  16.055   0.477  0.0107 -0.0921  0.2608
   72PEG    COC 2029  13.985  16.008   0.216 -0.0357  0.1370  0.1308
   72PEG    COC 2030  14.241  15.897   0.039  0.0911  0.2305 -0.1716
   72PEG    COC 2031  14.257  16.058  -0.235 -0.0982 -0.0077  0.0541
   72PEG    COH 2032  14.533  16.169  -0.282 -0.0519  0.1681 -0.2863
   73PEG    COH 2033  16.670   9.674   7.910 -0.0714 -0.3181  0.1122
   73PEG    COC 2034  16.596   9.812   8.142 -0.2520 -0.0424  0.5178
   73PEG    COC 2035  16.269   9.754   8.144 -0.5895  0.3893  0.2635
   73PEG    COC 2036  16.126   9.590   8.370  0.0605  0.0775  0.1844
   73PEG    COC 2037  15.880   9.688   8.385 -0.1449  0.3887  0.2436
   73PEG    COC 2038  15.610   9.590   8.244  0.0049 -0.2044  0.1251
   73PEG    COC 2039  15.557   9.291   8.166  0.3946  0.3573 -0.0253
   73PEG    COC 2040  15.775   9.263   7.919  0.3209  0.3745 -0.1659
   73PEG    COC 2041  16.016   9.444   7.958  0.1657  0.2837 -0.0623
   73PEG    COC 2042  16.207   9.552   7.740 -0.2865 -0.0390 -0.0393
   73PEG    COC 2043  16.274   9.335   7.539 -0.0109  0.0603  0.2711
   73PEG    COC 2044  16.108   9.061   7.430 -0.2428 -0.1866 -0.1051
   73PEG    COC 2045  16.199   8.916   7.191 -0.4089 -0.0553 -0.2044
   73PEG    COC 2046  16.305   8.670   7.140 -0.5417 -0.0389  0.4380
   73PEG    COC 2047  16.273   8.323   7.177  0.6780 -0.2247  0.0703
   73PEG    COC 2048  16.391   8.156   6.963 -0.2201 -0.0157  0.1247
   73PEG    COC 2049  16.356   8.196   6.692 -0.1032  0.1018 -0.1051
   73PEG    COC 2050  16.350   8.362   6.437  0.0115 -0.1103  0.2251
   73PEG    COC 2051  16.493   8.570   6.246  0.1619  0.1864 -0.1625
   73PEG    COC 2052  16.650   8.775   6.410  0.0753 -0.1642  0.1203
   73PEG    COC 2053  16.944   8.697   6.329 -0.2522  0.2562 -0.2299
   73PEG    COC 2054  16.870   8.502   6.061  0.2397  0.1884 -0.2175
   73PEG    COC 2055  16.719   8.352   5.876  0.0481  0.1797  0.1012
   73PEG    COC 2056  16.481   8.201   5.924 -0.4812  0.3698 -0.2114
   73PEG    COC 2057  16.222   8.138   5.804 -0.3465 -0.0319  0.1671
   73PEG    COC 2058  16.001   7.917   5.875  0.1901 -0.4206  0.1624
   73PEG    COC 2059  16.005   7.693   6.072 -0.0245  0.1838 -0.0987
   73PEG    COC 2060  15.810   7.628   6.315  0.1959  0.5292 -0.0323
   73PEG    COC 2061  15.930   7.767   6.565 -0.0277 -0.3531  0.0557
   73PEG    COC 2062  15.958   8.065   6.488 -0.3632 -0.1235 -0.0610
   73PEG    COC 2063  15.884   8.326   6.591  0.1982 -0.0702 -0.3030
   73PEG    COC 2064  15.683   8.353   6.820 -0.1806  0.4255  0.1111
   73PEG    COC 2065  15.473   8.574   6.822  0.1434 -0.0690 -0.1360
   73PEG    COC 2066  15.307   8.853   6.925  0.0508 -0.0367 -0.2905
   73PEG    COC 2067  15.518   9.006   7.094  0.1560  0.3709  0.1471
   73PEG    COC 2068  15.782   9.137   7.188 -0.0003  0.0925 -0.1545
   73PEG    COC 2069  15.991   9.364   7.184  0.4484 -0.0565 -0.0598
   73PEG    COC 2070  15.915   9.650   7.075  0.0131 -0.3594  0.2439
   73PEG    COC 2071  15.646   9.807   7.221  0.0015 -0.1556 -0.0179
   73PEG    COC 2072  15.433  10.017   7.103 -0.0594 -0.4151 -0.0945
   73PEG    COC 2073  15.299   9.843   6.895  0.2112  0.1046  0.1165
   73PEG    COC 2074  15.469   9.912   6.642  0.3880  0.0411 -0.0617
   73PEG    COC 2075  15.624  10.189   6.580 -0.3116 -0.1581  0.0993
   73PEG    COC 2076  15.586  10.463   6.697 -0.2981  0.2553  0.1463
   73PEG    COC 2077  15.719  10.734   6.739 -0.1324  0.2433 -0.0027
   73PEG    COH 2078  15.536  10.852   6.869  0.3220 -0.1451 -0.7325
   74PEG    COH 2079  11.781  16.788   2.178 -0.3043  0.2726  0.3352
   74PEG    COC 2080  11.592  16.622   2.189  0.3442  0.2530 -0.2468
   74PEG    COC 2081  11.728  16.408   2.036  0.0861  0.3060  0.2782
   74PEG    COC 2082  11.657  16.421   1.723  0.0482  0.0554 -0.1347
   74PEG    COC 2083  11.621  16.138   1.625 -0.0158  0.0394 -0.0635
   74PEG    COC 2084  11.391  15.930   1.673  0.1543 -0.4393 -0.0110
   74PEG    COC 2085  11.159  15.846   1.820 -0.1803  0.1530 -0.0253
   74PEG    COC 2086  11.103  15.557   1.756  0.1121  0.2163 -0.2199
   74PEG    COC 2087  10.895  15.442   1.948 -0.2923 -0.0426 -0.2840
   74PEG    COC 2088  10.812  15.466   2.228 -0.3316  0.0106 -0.2343
   74PEG    COC 2089  11.053  15.547   2.367  0.1580 -0.0901  0.2665
   74PEG    COC 2090  11.249  15.653   2.157 -0.0083  0.0772  0.3071
   74PEG    COC 2091  11.510  15.682   2.023  0.3005  0.2997  0.2728
   74PEG    COC 2092  11.751  15.863   2.026 -0.2168 -0.3339  0.1688
   74PEG    COC 2093  11.832  16.022   2.281 -0.1183  0.1576 -0.3925
   74PEG    COC 2094  11.684  15.947   2.582 -0.0551  0.0592  0.2461
   74PEG    COC 2095  11.397  15.921   2.593  0.4929 -0.3193 -0.1506
   74PEG    COC 2096  11.354  15.628   2.649 -0.2095 -0.0269 -0.1601
   74PEG    COC 2097  11.231  15.577   2.907  0.2896  0.1088 -0.1732
   74PEG    COC 2098  10.935  15.505   2.880  0.0472  0.2934 -0.2662
   74PEG    COC 2099  10.979  15.248   2.738 -0.1559  0.0169  0.3071
   74PEG    COC 2100  11.007  14.956   2.729  0.0167  0.3412 -0.0946
   74PEG    COC 2101  11.269  14.796   2.763  0.2779 -0.4452 -0.1896
   74PEG    COC 2102  11.278  14.550   2.932 -0.0798 -0.2673 -0.1866
   74PEG    COC 2103  11.339  14.729   3.195 -0.1930 -0.1037  0.1213
   74PEG    COC 2104  11.322  14.526   3.409 -0.4604  0.0154 -0.0869
   74PEG    COC 2105  11.294  14.223   3.446 -0.3330  0.2200  0.3404
   74PEG    COC 2106  11.490  14.002   3.334 -0.7131 -0.0108 -0.1849
   74PEG    COC 2107  11.733  14.074   3.512  0.2040 -0.0525  0.1187
   74PEG    COC 2108  11.841  13.927   3.777 -0.2526  0.5972  0.1292
   74PEG    COC 2109  12.143  13.850   3.719 -0.1413  0.1633 -0.3053
   74PEG    COC 2110  12.187  13.564   3.769  0.1581  0.1546  0.2201
   74PEG    COC 2111  12.047  13.295   3.901 -0.3179  0.3771 -0.0120
   74PEG    COC 2112  11.872  13.113   3.757  0.0512 -0.0049  0.1875
   74PEG    COC 2113  11.851  13.241   3.514 -0.1703 -0.2603  0.0368
   74PEG    COC 2114  11.890  13.201   3.227 -0.0107  0.1427  0.2246
   74PEG    COC 2115  11.912  13.416   3.006  0.1740  0.4125  0.0109
   74PEG    COC 2116  11.694  13.581   2.889  0.5413 -0.0319  0.2211
   74PEG    COC 2117  11.438  13.441   2.780 -0.3748  0.0117 -0.0603
   74PEG    COC 2118  11.378  13.297   2.557  0.2765  0.2351 -0.3112
   74PEG    COC 2119  11.493  13.337   2.293  0.2609 -0.3296  0.4537
   74PEG    COC 2120  11.185  13.331   2.188 -0.2693  0.4696  0.2375
   74PEG    COC 2121  10.960  13.304   2.020  0.2380 -0.3031 -0.0392
   74PEG    COC 2122  10.814  13.517   1.922  0.1004 -0.0524  0.3876
   74PEG    COC 2123  10.564  13.599   1.851 -0.0132  0.3550 -0.5804
   74PEG    COH 2124  10.398  13.462   1.695  0.0110  0.1454  0.0382
   75PEG    COH 2125   4.179   7.390   3.786 -0.4694 -0.2384  0.1428
   75PEG    COC 2126   3.982   7.416   3.621  0.1775 -0.1091  0.2016
   75PEG    COC 2127   3.970   7.158   3.397  0.2855 -0.1063 -0.1056
   75PEG    COC 2128   4.121   6.921   3.398 -0.2463 -0.3859  0.0553
   75PEG    COC 2129   3.965   6.703   3.302  0.1875  0.1953  0.2574
   75PEG    COC 2130   3.727   6.673   3.085  0.2715  0.0680  0.1594
   75PEG    COC 2131   3.522   6.821   2.899  0.1390  0.0240  0.2929
   75PEG    COC 2132   3.433   7.075   2.760 -0.2218  0.2274  0.0108
   75PEG    COC 2133   3.686   7.225   2.728 -0.1180  0.0386  0.2499
   75PEG    COC 2134   3.736   7.458   2.553 -0.1425 -0.1202  0.2443
   75PEG    COC 2135   3.529   7.459   2.353  0.0941 -0.1787 -0.1371
   75PEG    COC 2136   3.565   7.466   2.062  0.0396 -0.0593  0.0719
   75PEG    COC 2137   3.367   7.257   1.917  0.0842 -0.0205  0.1769
   75PEG    COC 2138   3.094   7.308   1.793  0.1057 -0.1034 -0.0275
   75PEG    COC 2139   2.972   7.567   1.661 -0.0564 -0.4661  0.2500
   75PEG    COC 2140   3.166   7.676   1.436 -0.2996 -0.1753  0.0488
   75PEG    COC 2141   3.258   7.920   1.277 -0.2238 -0.2760 -0.2358
   75PEG    COC 2142   3.099   8.134   1.442 -0.0752  0.2318 -0.2584
   75PEG    COC 2143   3.212   8.109   1.742  0.2555  0.2046  0.0954
   75PEG    COC 2144   3.126   8.313   1.943 -0.0473  0.1314 -0.2738
   75PEG    COC 2145   2.837   8.353   2.021 -0.1810 -0.3098 -0.0818
   75PEG    COC 2146   2.632   8.512   1.853  0.0917 -0.1190  0.4414
   75PEG    COC 2147   2.467   8.741   1.995  0.1385  0.2431  0.1240
   75PEG    COC 2148   2.275   8.912   1.878  0.6163  0.1733  0.3667
   75PEG    COC 2149   2.299   9.170   2.062 -0.0225 -0.1619  0.1632
   75PEG    COC 2150   2.196   9.207   2.320  0.1723  0.0316 -0.1542
   75PEG    COC 2151   2.269   9.112   2.607 -0.0230  0.0865 -0.6044
   75PEG    COC 2152   2.426   9.048   2.844  0.4136 -0.0735 -0.1449
   75PEG    COC 2153   2.667   9.223   2.847  0.2424  0.0471 -0.2200
   75PEG    COC 2154   2.934   9.076   2.831  0.2063  0.0534 -0.1508
   75PEG    COC 2155   3.242   9.019   2.769 -0.1725 -0.2517  0.3646
   75PEG    COC 2156   3.280   9.115   2.499  0.3309 -0.4058  0.3715
   75PEG    COC 2157   3.052   8.915   2.392  0.3374  0.3890 -0.6062
   75PEG    COC 2158   2.971   8.811   2.111  0.0669 -0.0849 -0.0487
   75PEG    COC 2159   3.288   8.778   2.046 -0.0110 -0.2660 -0.2268
   75PEG    COC 2160   3.563   8.876   2.218 -0.1642 -0.2366  0.2024
   75PEG    COC 2161   3.720   9.115   2.353  0.4729  0.2465  0.1098
   75PEG    COC 2162   3.623   9.398   2.371  0.3367  0.4413 -0.1453
   75PEG    COC 2163   3.800   9.532   2.193  0.1897  0.4469 -0.0848
   75PEG    COC 2164   3.979   9.468   1.991  0.4086 -0.1984  0.0993
   75PEG    COC 2165   4.172   9.307   2.161  0.0740 -0.1542 -0.0439
   75PEG    COC 2166   4.426   9.293   2.011  0.3521  0.1055 -0.1410
   75PEG    COC 2167   4.557   9.045   2.023  0.1839 -0.2693 -0.0296
   75PEG    COC 2168   4.544   8.859   1.766 -0.2610 -0.2656  0.2056
   75PEG    COC 2169   4.339   8.703   1.633  0.0134  0.2234 -0.0521
   75PEG    COH 2170   4.092   8.659   1.701 -0.1704  0.0912  0.4102
   76PEG    COH 2171   4.572   3.891   9.037 -0.4905  0.0450  0.1521
   76PEG    COC 2172   4.699   3.731   8.889  0.3620 -0.2236  0.1853
   76PEG    COC 2173   4.923   3.852   8.687 -0.1545 -0.1347  0.2638
   76PEG    COC 2174   5.223   3.833   8.761 -0.1337  0.2434  0.1694
   76PEG    COC 2175   5.435   4.012   8.881 -0.1140 -0.2156  0.0896
   76PEG    COC 2176   5.417   4.029   9.215 -0.0834  0.3707 -0.2335
   76PEG    COC 2177   5.156   4.141   9.404  0.0281 -0.2373 -0.0190
   76PEG    COC 2178   5.220   4.447   9.367  0.0314  0.1159 -0.1884
   76PEG    COC 2179   5.321   4.617   9.174  0.0577  0.2464  0.3649
   76PEG    COC 2180   5.537   4.411   9.089 -0.1875 -0.1098 -0.0796
   76PEG    COC 2181   5.779   4.342   8.905 -0.1030 -0.0667  0.0273
   76PEG    COC 2182   5.891   4.060   8.878 -0.1865  0.3765 -0.0335
   76PEG    COC 2183   6.083   3.851   8.978 -0.0975  0.0345  0.1893
   76PEG    COC 2184   6.370   3.842   9.135 -0.1141 -0.0257  0.1505
   76PEG    COC 2185   6.491   4.053   9.334 -0.0865 -0.0457 -0.0557
   76PEG    COC 2186   6.737   4.127   9.234 -0.1287  0.2858  0.3623
   76PEG    COC 2187   7.030   3.953   9.221 -0.1058  0.0978 -0.4347
   76PEG    COC 2188   7.253   3.771   9.341  0.0603  0.2371 -0.0942
   76PEG    COC 2189   7.476   3.614   9.137 -0.0905 -0.3163 -0.2374
   76PEG    COC 2190   7.613   3.807   8.974  0.2291  0.0231 -0.1361
   76PEG    COC 2191   7.543   3.915   8.715 -0.2704 -0.3136 -0.3318
   76PEG    COC 2192   7.788   3.788   8.550 -0.3642  0.0005  0.2257
   76PEG    COC 2193   7.818   3.508   8.658  0.3008 -0.1401 -0.2282
   76PEG    COC 2194   7.977   3.558   8.872  0.0750  0.0961 -0.1188
   76PEG    COC 2195   7.920   3.392   9.174 -0.4539 -0.0018 -0.3291
   76PEG    COC 2196   7.819   3.634   9.365  0.1471 -0.0995  0.3649
   76PEG    COC 2197   7.770   3.417   9.598 -0.1871 -0.0317  0.3999
   76PEG    COC 2198   7.508   3.249   9.695 -0.4502  0.1388  0.0223
   76PEG    COC 2199   7.265   3.443   9.714 -0.0137  0.0011  0.1028
   76PEG    COC 2200   6.996   3.361   9.787  0.3337  0.0857  0.0192
   76PEG    COC 2201   6.730   3.481   9.679 -0.0308  0.2815  0.5020
   76PEG    COC 2202   6.562   3.668   9.873 -0.2252 -0.0094 -0.2145
   76PEG    COC 2203   6.676   3.796  10.142 -0.0104 -0.2103  0.5549
   76PEG    COC 2204   6.435   3.886  10.316 -0.1030  0.0098  0.1609
   76PEG    COC 2205   6.495   4.042  10.586 -0.1117 -0.3773  0.2801
   76PEG    COC 2206   6.806   4.174  10.592  0.6135  0.4200 -0.1808
   76PEG    COC 2207   6.894   4.153  10.328 -0.4334  0.0954 -0.3686
   76PEG    COC 2208   6.740   4.226  10.103 -0.0878 -0.1692 -0.2135
   76PEG    COC 2209   6.442   4.193   9.994  0.3797  0.2251 -0.1912
   76PEG    COC 2210   6.325   4.009   9.771 -0.1206  0.2977 -0.2357
   76PEG    COC 2211   5.991   3.995   9.732 -0.0339  0.1073 -0.0782
   76PEG    COC 2212   6.030   3.985   9.411 -0.1269 -0.1120 -0.4153
   76PEG    COC 2213   6.026   4.231   9.228  0.1303 -0.3726 -0.1433
   76PEG    COC 2214   6.093   4.504   9.200 -0.0225  0.0131 -0.1201
   76PEG    COC 2215   6.416   4.485   9.175  0.2413 -0.0985 -0.0051
   76PEG    COH 2216   6.576   4.683   9.225  0.1561  0.2222  0.3683
   77PEG    COH 2217  12.574  15.169   3.641  0.0775  0.2088  0.0540
   77PEG    COC 2218  12.596  15.320   3.829  0.0811  0.1061 -0.0717
   77PEG    COC 2219  12.595  15.290   4.139 -0.1782  0.4322  0.2938
   77PEG    COC 2220  12.802  15.215   4.330  0.0603 -0.4669 -0.2688
   77PEG    COC 2221  12.829  14.927   4.396  0.4713  0.2368  0.1113
   77PEG    COC 2222  12.951  14.716   4.308 -0.3548  0.3167 -0.0829
   77PEG    COC 2223  13.129  14.500   4.417  0.1004  0.3575 -0.2400
   77PEG    COC 2224  13.045  14.290   4.589  0.2639 -0.1544 -0.2952
   77PEG    COC 2225  12.835  14.078   4.411 -0.4930 -0.5403 -0.3070
   77PEG    COC 2226  12.628  14.181   4.634 -0.0718 -0.1904  0.0527
   77PEG    COC 2227  12.731  14.159   4.915  0.2057 -0.5647 -0.3903
   77PEG    COC 2228  12.963  14.285   5.007  0.1374 -0.2060  0.2561
   77PEG    COC 2229  12.956  14.588   5.168 -0.1805 -0.2678  0.1770
   77PEG    COC 2230  12.976  14.870   5.355  0.1459 -0.3779  0.2368
   77PEG    COC 2231  12.978  15.174   5.256 -0.2196  0.1378 -0.1417
   77PEG    COC 2232  12.708  15.224   5.107  0.0434  0.1435 -0.0652
   77PEG    COC 2233  12.779  15.531   5.057 -0.1241  0.2022  0.1235
   77PEG    COC 2234  12.584  15.611   4.805 -0.0985  0.0861 -0.1394
   77PEG    COC 2235  12.592  15.928   4.772  0.2520 -0.3923 -0.3181
   77PEG    COC 2236  12.848  16.035   4.565 -0.0802  0.1899 -0.0787
   77PEG    COC 2237  13.038  15.929   4.366  0.2187 -0.1092  0.3902
   77PEG    COC 2238  12.894  16.060   4.106 -0.3166  0.1475 -0.4064
   77PEG    COC 2239  13.013  16.186   3.890 -0.0660  0.1910 -0.2080
   77PEG    COC 2240  13.223  16.309   3.685 -0.1067  0.0680 -0.0219
   77PEG    COC 2241  13.113  16.530   3.498 -0.1975  0.0777 -0.1357
   77PEG    COC 2242  13.363  16.762   3.503  0.0618  0.1548  0.1374
   77PEG    COC 2243  13.315  17.043   3.620 -0.1640  0.1790  0.2639
   77PEG    COC 2244  13.462  17.236   3.812  0.5157  0.0145  0.0340
   77PEG    COC 2245  13.596  17.536   3.819  0.0673  0.3447  0.0447
   77PEG    COC 2246  13.510  17.823   3.822  0.1883  0.0752  0.1763
   77PEG    COC 2247  13.537  18.030   4.058 -0.2145 -0.2976 -0.1101
   77PEG    COC 2248  13.564  18.322   4.200  0.0393  0.1083  0.0699
   77PEG    COC 2249  13.419  18.558   4.206 -0.0351 -0.0460  0.0237
   77PEG    COC 2250  13.504  18.771   4.351  0.0670  0.0724  0.1839
   77PEG    COC 2251  13.245  18.963   4.484  0.1436  0.4309  0.3967
   77PEG    COC 2252  13.250  18.820   4.762 -0.3956  0.3448 -0.1519
   77PEG    COC 2253  13.537  18.763   4.896  0.3047 -0.0863 -0.3222
   77PEG    COC 2254  13.591  18.500   5.006 -0.1429 -0.1047  0.2074
   77PEG    COC 2255  13.562  18.248   4.874  0.1196 -0.0372  0.0890
   77PEG    COC 2256  13.765  18.065   4.763  0.4327  0.3606  0.2091
   77PEG    COC 2257  13.757  17.797   4.932  0.3725 -0.0370  0.0938
   77PEG    COC 2258  13.559  17.855   5.160 -0.0265  0.0017  0.2095
   77PEG    COC 2259  13.315  17.720   5.255 -0.3559 -0.1693 -0.2399
   77PEG    COC 2260  13.386  17.442   5.322  0.3708 -0.3509 -0.2586
   77PEG    COC 2261  13.280  17.266   5.520  0.4764  0.0975 -0.2683
   77PEG    COH 2262  13.070  17.107   5.481  0.2226  0.3830 -0.0376
   78PEG    COH 2263   3.742   5.543  14.775 -0.4985  0.3924  0.1774
   78PEG    COC 2264   3.523   5.452  14.885  0.2089  0.1979 -0.4399
   78PEG    COC 2265   3.280   5.541  14.688  0.2447  0.3585 -0.1059
   78PEG    COC 2266   3.035   5.349  14.779  0.1058  0.0494  0.2346
   78PEG    COC 2267   2.799   5.410  14.936  0.3059 -0.3026  0.3779
   78PEG    COC 2268   2.539   5.317  15.023  0.1164 -0.1622  0.0767
   78PEG    COC 2269   2.437   5.181  15.277 -0.2270  0.1242 -0.2059
   78PEG    COC 2270   2.596   5.270  15.543  0.2697 -0.0026  0.3787
   78PEG    COC 2271   2.610   5.536  15.631  0.0711  0.3749  0.2395
   78PEG    COC 2272   2.483   5.839  15.654  0.1778  0.1576 -0.0582
   78PEG    COC 2273   2.474   6.085  15.472  0.1563 -0.1572  0.3316
   78PEG    COC 2274   2.268   6.326  15.384  0.0132  0.0872  0.0734
   78PEG    COC 2275   2.037   6.547  15.286 -0.1239  0.1858 -0.2131
   78PEG    COC 2276   1.714   6.528  15.281 -0.2896 -0.0231  0.0904
   78PEG    COC 2277   1.514   6.453  15.492 -0.5000  0.0303 -0.4655
   78PEG    COC 2278   1.684   6.426  15.744 -0.2311 -0.2133 -0.4017
   78PEG    COC 2279   1.990   6.430  15.722  0.2726 -0.3864  0.0073
   78PEG    COC 2280   2.108   6.694  15.836 -0.1894 -0.0542  0.3079
   78PEG    COC 2281   2.127   6.874  15.571 -0.2217  0.0189 -0.2470
   78PEG    COC 2282   1.993   7.127  15.618 -0.1330  0.0196  0.2482
   78PEG    COC 2283   1.853   7.291  15.427 -0.0272  0.1532 -0.0312
   78PEG    COC 2284   1.553   7.233  15.339  0.2292 -0.4932 -0.0741
   78PEG    COC 2285   1.374   7.329  15.576  0.1823  0.0662  0.0690
   78PEG    COC 2286   1.098   7.177  15.638 -0.0451  0.4773  0.1923
   78PEG    COC 2287   1.029   6.911  15.537 -0.2850  0.1949 -0.2077
   78PEG    COC 2288   1.261   6.736  15.687  0.0395  0.1181  0.0515
   78PEG    COC 2289   1.334   6.962  15.904  0.2179 -0.3308 -0.0515
   78PEG    COC 2290   1.237   7.197  16.077 -0.1199  0.0325 -0.3971
   78PEG    COC 2291   1.434   7.221  16.308  0.0835  0.0229 -0.0857
   78PEG    COC 2292   1.629   7.031  16.265  0.1514  0.6845  0.0412
   78PEG    COC 2293   1.675   6.775  16.090  0.0563  0.4170 -0.0643
   78PEG    COC 2294   1.641   6.472  16.145 -0.2232 -0.0968  0.2402
   78PEG    COC 2295   1.824   6.226  16.144 -0.1165  0.1867  0.2023
   78PEG    COC 2296   2.088   6.299  16.329  0.4037 -0.0605 -0.4175
   78PEG    COC 2297   2.311   6.314  16.161 -0.1072  0.0222  0.5234
   78PEG    COC 2298   2.372   6.068  16.024  0.2349  0.0732 -0.0660
   78PEG    COC 2299   2.525   5.856  16.166  0.1622 -0.3510 -0.0212
   78PEG    COC 2300   2.752   5.821  15.980 -0.2420 -0.0224  0.0629
   78PEG    COC 2301   3.015   5.842  16.175  0.0763  0.2689 -0.3748
   78PEG    COC 2302   3.253   5.671  16.113 -0.4183 -0.0239 -0.1837
   78PEG    COC 2303   3.365   5.399  16.140  0.0094 -0.0224  0.0785
   78PEG    COC 2304   3.232   5.207  16.375  0.1605 -0.1485  0.2316
   78PEG    COC 2305   2.979   5.176  16.563 -0.2653  0.0047 -0.3645
   78PEG    COC 2306   2.847   5.023  16.813 -0.3931 -0.1783 -0.1781
   78PEG    COC 2307   2.632   4.788  16.701 -0.4711  0.3609 -0.1126
   78PEG    COH 2308   2.699   4.556  16.550 -0.1076  0.0643  0.5733
   79PEG    COH 2309   0.707   8.490  13.585  0.1039 -0.2697 -0.2200
   79PEG    COC 2310   0.815   8.600  13.797  0.0328 -0.2678 -0.1370
   79PEG    COC 2311   1.121   8.623  13.912  0.3455 -0.1217 -0.1480
   79PEG    COC 2312   1.287   8.625  13.652  0.1896  0.4504 -0.1010
   79PEG    COC 2313   1.551   8.490  13.776  0.3654  0.1858 -0.1156
   79PEG    COC 2314   1.626   8.578  14.055  0.0472 -0.2287 -0.1311
   79PEG    COC 2315   1.912   8.720  14.019  0.6069  0.2267 -0.2630
   79PEG    COC 2316   2.018   8.657  13.716  0.0746 -0.0306 -0.3712
   79PEG    COC 2317   2.314   8.674  13.802 -0.0022  0.1745 -0.3111
   79PEG    COC 2318   2.383   8.943  13.803 -0.0694  0.0816 -0.2086
   79PEG    COC 2319   2.105   9.078  13.817 -0.1834  0.1801  0.4900
   79PEG    COC 2320   2.030   9.404  13.807 -0.0696  0.0499  0.0803
   79PEG    COC 2321   1.728   9.497  13.766  0.2968  0.4801  0.1017
   79PEG    COC 2322   1.617   9.772  13.672 -0.1019 -0.0854 -0.2416
   79PEG    COC 2323   1.364   9.890  13.631  0.2438 -0.3009 -0.1497
   79PEG    COC 2324   1.250  10.030  13.377 -0.0846 -0.1059 -0.1050
   79PEG    COC 2325   0.968   9.968  13.373  0.1634 -0.2353  0.0274
   79PEG    COC 2326   0.748  10.201  13.452  0.1865  0.2635 -0.5228
   79PEG    COC 2327   0.652  10.484  13.494  0.2662 -0.1553  0.1674
   79PEG    COC 2328   0.385  10.582  13.393 -0.3458 -0.0112  0.2965
   79PEG    COC 2329   0.362  10.789  13.576 -0.6166 -0.2239 -0.4080
   79PEG    COC 2330   0.082  10.932  13.517  0.3263  0.1573  0.2944
   79PEG    COC 2331  -0.185  10.869  13.370 -0.1744 -0.1789 -0.1831
   79PEG    COC 2332  -0.030  10.665  13.181  0.2436  0.3154 -0.2726
   79PEG    COC 2333  -0.125  10.390  13.265 -0.1287 -0.0044  0.1429
   79PEG    COC 2334   0.008  10.136  13.389 -0.1156 -0.3747  0.1005
   79PEG    COC 2335   0.283  10.025  13.370  0.2035  0.4032 -0.0730
   79PEG    COC 2336   0.290   9.816  13.619  0.1790 -0.0070  0.0960
   79PEG    COC 2337   0.586   9.755  13.701  0.2515 -0.0762  0.1333
   79PEG    COC 2338   0.787   9.611  13.866  0.4110 -0.0510  0.1538
   79PEG    COC 2339   0.825   9.362  13.997  0.1797  0.0507  0.1656
   79PEG    COC 2340   0.914   9.129  13.810 -0.2155 -0.1558 -0.2424
   79PEG    COC 2341   0.645   9.088  13.693 -0.4282  0.1701 -0.2207
   79PEG    COC 2342   0.562   8.863  13.471 -0.0713  0.3269 -0.1688
   79PEG    COC 2343   0.532   8.729  13.230 -0.2347  0.0217 -0.0690
   79PEG    COC 2344   0.807   8.773  13.062  0.1402  0.1605  0.0519
   79PEG    COC 2345   1.114   8.666  13.040  0.0312 -0.2309  0.1293
   79PEG    COC 2346   1.234   8.489  13.239  0.3315  0.1089  0.1088
   79PEG    COC 2347   1.323   8.261  13.056  0.1596  0.1063 -0.1105
   79PEG    COC 2348   1.636   8.219  13.066  0.0914 -0.2494 -0.0790
   79PEG    COC 2349   1.742   8.457  12.864  0.5751  0.1721  0.5395
   79PEG    COC 2350   1.547   8.607  12.692  0.2774  0.1780 -0.2837
   79PEG    COC 2351   1.577   8.630  12.402 -0.3239 -0.2330 -0.2537
   79PEG    COC 2352   1.828   8.490  12.207  0.0571  0.2228  0.1281
   79PEG    COC 2353   2.007   8.264  12.173 -0.1384 -0.5672 -0.4622
   79PEG    COH 2354   2.292   8.371  12.172 -0.0280  0.3400 -0.0890
   80PEG    COH 2355  13.716  10.862  12.239 -0.0919  0.2822 -0.2108
   80PEG    COC 2356  13.765  11.090  12.129 -0.4701  0.0498  0.3585
   80PEG    COC 2357  13.889  11.231  12.355 -0.1204 -0.2171  0.0431
   80PEG    COC 2358  13.804  11.529  12.447  0.4191  0.1462 -0.1434
   80PEG    COC 2359  13.518  11.596  12.494  0.0642 -0.2158 -0.1950
   80PEG    COC 2360  13.283  11.747  12.273 -0.4473  0.1287  0.1003
   80PEG    COC 2361  13.002  11.662  12.281  0.2450  0.1854  0.3261
   80PEG    COC 2362  12.963  11.382  12.376  0.0604 -0.3907  0.0555
   80PEG    COC 2363  12.894  11.278  12.649  0.3094  0.3200 -0.2283
   80PEG    COC 2364  13.171  11.211  12.867  0.0889  0.1538 -0.0013
   80PEG    COC 2365  13.258  10.966  13.027 -0.4139 -0.1997  0.1251
   80PEG    COC 2366  13.389  10.697  13.093  0.0662 -0.0520  0.0082
   80PEG    COC 2367  13.571  10.434  12.989 -0.0940  0.2407  0.1190
   80PEG    COC 2368  13.330  10.241  12.848 -0.1310  0.1722  0.0282
   80PEG    COC 2369  13.257   9.972  12.747 -0.2510 -0.0314 -0.1154
   80PEG    COC 2370  12.959   9.984  12.621  0.0928  0.2308  0.4988
   80PEG    COC 2371  12.799  10.057  12.875 -0.0431 -0.7830  0.3141
   80PEG    COC 2372  12.528   9.973  12.733  0.0956 -0.0826  0.2028
   80PEG    COC 2373  12.261  10.102  12.857 -0.0590 -0.4238  0.1937
   80PEG    COC 2374  12.098   9.846  12.899  0.3989 -0.2002 -0.0184
   80PEG    COC 2375  12.269   9.631  12.789  0.5676  0.4713  0.1393
   80PEG    COC 2376  12.106   9.388  12.650 -0.0385  0.1364 -0.1128
   80PEG    COC 2377  11.857   9.540  12.551  0.0538 -0.2558 -0.0411
   80PEG    COC 2378  11.608   9.487  12.706  0.0734 -0.0962 -0.0925
   80PEG    COC 2379  11.712   9.464  12.970  0.1442  0.0832 -0.2742
   80PEG    COC 2380  11.659   9.513  13.266 -0.1001  0.4799  0.1057
   80PEG    COC 2381  11.670   9.324  13.465 -0.0103  0.2444  0.1428
   80PEG    COC 2382  11.590   9.267  13.763 -0.0089 -0.0129  0.2464
   80PEG    COC 2383  11.581   9.117  14.020  0.0299 -0.0988 -0.0479
   80PEG    COC 2384  11.813   8.950  14.112  0.1410 -0.3627 -0.0405
   80PEG    COC 2385  12.056   8.775  14.011 -0.0927  0.1231 -0.0683
   80PEG    COC 2386  12.010   8.532  14.160 -0.3636  0.2596 -0.0782
   80PEG    COC 2387  11.875   8.330  14.303  0.3124  0.2200 -0.0341
   80PEG    COC 2388  11.895   8.103  14.498 -0.3386 -0.6943  0.4730
   80PEG    COC 2389  12.134   8.023  14.641 -0.1755 -0.1733  0.1277
   80PEG    COC 2390  12.356   8.119  14.811  0.4261  0.2595  0.3237
   80PEG    COC 2391  12.330   8.371  14.970 -0.0849  0.1014 -0.0819
   80PEG    COC 2392  12.619   8.453  15.068 -0.2343  0.1248  0.1123
   80PEG    COC 2393  12.716   8.647  15.284 -0.0551 -0.2964  0.1552
   80PEG    COC 2394  12.684   8.707  15.587 -0.2981  0.3600 -0.0689
   80PEG    COC 2395  12.740   8.541  15.883 -0.1338  0.1987  0.3372
   80PEG    COC 2396  12.856   8.232  15.875 -0.0905  0.2066  0.2236
   80PEG    COC 2397  13.133   8.232  15.906 -0.0448 -0.4518  0.4280
   80PEG    COC 2398  13.329   8.374  16.087  0.0695 -0.2099  0.0199
   80PEG    COC 2399  13.438   8.199  16.321 -0.1382  0.0421 -0.1286
   80PEG    COH 2400  13.684   8.199  16.363 -0.0403  0.5050 -0.3510
   81PEG    COH 2401  11.660   1.983   3.172 -0.1199  0.1378  0.3805
   81PEG    COC 2402  11.721   1.888   3.407 -0.2382  0.2973  0.1240
   81PEG    COC 2403  11.997   1.933   3.554 -0.4131  0.0013  0.1340
   81PEG    COC 2404  12.074   2.228   3.636  0.1860  0.2156 -0.3756
   81PEG    COC 2405  12.126   2.374   3.885 -0.2578  0.4129 -0.8573
   81PEG    COC 2406  11.853   2.529   3.850 -0.3538  0.0730 -0.0772
   81PEG    COC 2407  11.589   2.487   4.010 -0.0192 -0.0553  0.3007
   81PEG    COC 2408  11.367   2.292   3.985 -0.0395 -0.3030  0.0581
   81PEG    COC 2409  11.352   2.063   3.798 -0.1898 -0.0941  0.4273
   81PEG    COC 2410  11.256   1.919   3.535 -0.1280  0.1687 -0.5753
   81PEG    COC 2411  11.245   2.017   3.231  0.0799  0.4723  0.3397
   81PEG    COC 2412  11.206   2.302   3.167 -0.3414  0.1008  0.1802
   81PEG    COC 2413  10.950   2.456   3.171 -0.1016  0.1859  0.1080
   81PEG    COC 2414  10.679   2.340   3.253 -0.4143  0.2844  0.1019
   81PEG    COC 2415  10.485   2.231   3.036  0.2235 -0.1286  0.1699
   81PEG    COC 2416  10.497   2.389   2.792  0.2097 -0.3091 -0.3441
   81PEG    COC 2417  10.793   2.381   2.723 -0.3802 -0.0085  0.1733
   81PEG    COC 2418  10.920   2.186   2.543 -0.0594 -0.1185  0.0015
   81PEG    COC 2419  11.168   2.042   2.374 -0.6073 -0.1700  0.0070
   81PEG    COC 2420  11.283   1.800   2.567  0.0910  0.3824 -0.1697
   81PEG    COC 2421  11.028   1.705   2.706  0.1008 -0.1117  0.1241
   81PEG    COC 2422  10.976   1.525   2.971  0.4064 -0.2375  0.2045
   81PEG    COC 2423  11.013   1.628   3.250  0.0075 -0.0091 -0.0238
   81PEG    COC 2424  11.243   1.505   3.414  0.0831 -0.1555  0.0265
   81PEG    COC 2425  11.132   1.200   3.513  0.2828 -0.4162 -0.2657
   81PEG    COC 2426  11.324   0.974   3.472  0.4791 -0.3261  0.1507
   81PEG    COC 2427  11.302   0.708   3.688 -0.1435 -0.3818  0.1149
   81PEG    COC 2428  10.993   0.662   3.815  0.1462 -0.4495  0.0809
   81PEG    COC 2429  10.819   0.892   3.962 -0.2427  0.1420 -0.0348
   81PEG    COC 2430  10.937   1.184   3.972 -0.0086 -0.2737  0.4001
   81PEG    COC 2431  11.036   1.305   4.246  0.2144  0.0613  0.4937
   81PEG    COC 2432  10.942   1.175   4.494  0.3584 -0.2130  0.0834
   81PEG    COC 2433  10.897   0.947   4.724 -0.4094  0.0784 -0.4478
   81PEG    COC 2434  10.693   0.793   4.869 -0.2614 -0.0528  0.2930
   81PEG    COC 2435  10.654   0.722   5.174  0.1291 -0.3488  0.0836
   81PEG    COC 2436  10.408   0.867   5.264 -0.3754 -0.1774  0.0706
   81PEG    COC 2437  10.127   0.820   5.099  0.0105  0.3405  0.1046
   81PEG    COC 2438   9.906   0.606   5.023  0.1012  0.1570  0.1712
   81PEG    COC 2439   9.939   0.290   4.964 -0.1996 -0.7277 -0.0027
   81PEG    COC 2440   9.969   0.057   5.171 -0.1487 -0.1414  0.0779
   81PEG    COC 2441   9.700  -0.036   5.236  0.1474  0.1189  0.7761
   81PEG    COC 2442   9.599   0.030   4.928 -0.2138  0.7643  0.0899
   81PEG    COC 2443   9.757   0.102   4.664 -0.1171 -0.0773  0.1263
   81PEG    COC 2444   9.769  -0.152   4.498 -0.2032  0.2014  0.0114
   81PEG    COC 2445   9.594  -0.122   4.265 -0.0473  0.1109  0.1330
   81PEG    COH 2446   9.613  -0.359   4.143  0.3431  0.1989 -0.1464
   82PEG    COH 2447   0.950   1.128  12.152  0.1867 -0.3407 -0.0351
   82PEG    COC 2448   0.699   1.214  12.183 -0.0938 -0.0864 -0.2790
   82PEG    COC 2449   0.641   1.429  12.378 -0.1410  0.1084  0.2048
   82PEG    COC 2450   0.576   1.615  12.163  0.0219  0.1345  0.2710
   82PEG    COC 2451   0.517   1.710  11.873  0.3448  0.2691  0.0248
   82PEG    COC 2452   0.316   1.883  11.687 -0.1791  0.1598 -0.1342
   82PEG    COC 2453   0.034   1.954  11.837  0.1056  0.0416  0.1324
   82PEG    COC 2454  -0.077   1.796  12.104  0.1431 -0.2903  0.5117
   82PEG    COC 2455  -0.281   2.013  12.148 -0.1489  0.1019 -0.0450
   82PEG    COC 2456  -0.339   2.251  11.968  0.0461 -0.0029 -0.0740
   82PEG    COC 2457  -0.203   2.341  11.712  0.3233 -0.0637  0.2731
   82PEG    COC 2458  -0.021   2.220  11.468 -0.1932  0.3044 -0.1426
   82PEG    COC 2459  -0.012   1.958  11.406  0.2809  0.3791  0.0067
   82PEG    COC 2460  -0.285   1.852  11.513 -0.2367  0.8061  0.1613
   82PEG    COC 2461  -0.557   2.035  11.575 -0.0528 -0.0811  0.2999
   82PEG    COC 2462  -0.699   2.261  11.470  0.1333 -0.0693  0.2108
   82PEG    COC 2463  -0.585   2.461  11.196 -0.1418 -0.1714 -0.0963
   82PEG    COC 2464  -0.716   2.725  11.082 -0.2009 -0.1999  0.2570
   82PEG    COC 2465  -0.495   2.962  11.037 -0.0025  0.2237 -0.1134
   82PEG    COC 2466  -0.378   3.222  10.876 -0.1591  0.1634 -0.1439
   82PEG    COC 2467  -0.215   3.457  10.945  0.2331 -0.2962 -0.1260
   82PEG    COC 2468   0.083   3.440  10.889 -0.2120  0.2545 -0.1557
   82PEG    COC 2469   0.286   3.525  10.665 -0.4010  0.0505  0.2991
   82PEG    COC 2470   0.499   3.389  10.575  0.0971  0.1509 -0.1922
   82PEG    COC 2471   0.413   3.117  10.452 -0.1961  0.0197  0.5640
   82PEG    COC 2472   0.249   2.875  10.479  0.1830  0.0667 -0.1456
   82PEG    COC 2473   0.026   2.770  10.255 -0.3348 -0.1126 -0.2275
   82PEG    COC 2474  -0.076   2.839   9.964  0.0399  0.1582  0.2955
   82PEG    COC 2475   0.097   2.890   9.711 -0.2123 -0.1327  0.1824
   82PEG    COC 2476   0.211   2.807   9.498 -0.0210  0.0388 -0.1484
   82PEG    COC 2477   0.240   2.985   9.218 -0.1939 -0.4438 -0.2760
   82PEG    COC 2478   0.151   3.228   9.129  0.1902 -0.0468  0.4115
   82PEG    COC 2479   0.260   3.498   9.191  0.1262  0.1407  0.1440
   82PEG    COC 2480   0.560   3.552   9.109  0.1921  0.4381  0.1118
   82PEG    COC 2481   0.650   3.788   8.924  0.2930  0.0649  0.6378
   82PEG    COC 2482   0.813   3.977   9.071 -0.0302  0.1757 -0.2501
   82PEG    COC 2483   0.850   4.085   9.344 -0.0819 -0.2911 -0.0521
   82PEG    COC 2484   1.051   4.086   9.631 -0.1923  0.4996  0.2281
   82PEG    COC 2485   1.266   3.887   9.778  0.0780  0.2113  0.1596
   82PEG    COC 2486   1.260   3.710  10.056 -0.4210 -0.3865  0.2443
   82PEG    COC 2487   1.313   3.392   9.967  0.0254 -0.0176  0.3465
   82PEG    COC 2488   1.373   3.119  10.059  0.2045  0.2866  0.1105
   82PEG    COC 2489   1.547   2.866   9.991 -0.1719 -0.1289 -0.1691
   82PEG    COC 2490   1.645   2.699   9.759 -0.2034  0.0006  0.0685
   82PEG    COC 2491   1.680   2.389   9.654 -0.0442 -0.4134  0.0134
   82PEG    COH 2492   1.797   2.277   9.436  0.0976 -0.1608  0.1030
   83PEG    COH 2493  11.726  13.619  10.742  0.3484 -0.2010  0.0650
   83PEG    COC 2494  11.890  13.564  10.556 -0.0116  0.3775 -0.3299
   83PEG    COC 2495  11.791  13.636  10.284 -0.2939  0.0057  0.2581
   83PEG    COC 2496  11.836  13.810  10.068 -0.1265  0.1707 -0.2786
   83PEG    COC 2497  12.094  13.866   9.932 -0.1561  0.0458 -0.3201
   83PEG    COC 2498  12.365  13.727   9.848 -0.0583  0.0878  0.2071
   83PEG    COC 2499  12.447  13.459   9.694  0.3442  0.4603  0.1510
   83PEG    COC 2500  12.293  13.205   9.541 -0.1558  0.1530  0.0415
   83PEG    COC 2501  12.333  13.066   9.267  0.1168  0.0223  0.6254
   83PEG    COC 2502  12.191  13.047   9.017 -0.0041 -0.0189  0.2123
   83PEG    COC 2503  12.037  12.806   9.045 -0.0013 -0.0037  0.2261
   83PEG    COC 2504  12.151  12.712   9.309 -0.1056 -0.0384 -0.4248
   83PEG    COC 2505  12.316  12.713   9.556 -0.0215 -0.2216  0.5276
   83PEG    COC 2506  12.242  12.408   9.615  0.0903  0.1320  0.0301
   83PEG    COC 2507  11.939  12.418   9.687 -0.0239 -0.3593  0.1094
   83PEG    COC 2508  11.649  12.372   9.596  0.0879  0.1790  0.2092
   83PEG    COC 2509  11.431  12.498   9.744  0.1994  0.1530  0.4066
   83PEG    COC 2510  11.234  12.586   9.555  0.1876 -0.1997  0.4044
   83PEG    COC 2511  11.249  12.655   9.293  0.1404  0.5396  0.0109
   83PEG    COC 2512  11.289  12.989   9.355  0.0891  0.0243  0.5624
   83PEG    COC 2513  11.418  13.105   9.096  0.4280 -0.2337  0.1001
   83PEG    COC 2514  11.569  12.916   8.946  0.4253 -0.2085  0.2515
   83PEG    COC 2515  11.752  12.851   8.657 -0.3304  0.3578 -0.2260
   83PEG    COC 2516  11.852  12.557   8.541  0.5484  0.2882 -0.0578
   83PEG    COC 2517  12.028  12.701   8.350 -0.0423 -0.1528 -0.0473
   83PEG    COC 2518  12.198  12.599   8.152 -0.1827 -0.0405 -0.1921
   83PEG    COC 2519  12.103  12.419   7.928 -0.1347 -0.0281 -0.0748
   83PEG    COC 2520  12.182  12.525   7.638  0.1141 -0.2539  0.0018
   83PEG    COC 2521  12.162  12.825   7.542 -0.4532 -0.3414 -0.2634
   83PEG    COC 2522  11.894  12.973   7.446 -0.3583  0.1132  0.0562
   83PEG    COC 2523  11.599  12.936   7.485 -0.1031  0.5310 -0.1117
   83PEG    COC 2524  11.501  12.741   7.273  0.1820  0.0414  0.1628
   83PEG    COC 2525  11.581  12.463   7.286 -0.3213  0.0302 -0.8902
   83PEG    COC 2526  11.726  12.244   7.371  0.1875 -0.3329 -0.1342
   83PEG    COC 2527  12.008  12.174   7.473  0.0066 -0.2454 -0.0255
   83PEG    COC 2528  12.180  11.954   7.355 -0.0829  0.0782  0.0681
   83PEG    COC 2529  12.452  12.091   7.261 -0.3545 -0.0974 -0.4928
   83PEG    COC 2530  12.733  12.109   7.367 -0.0406 -0.2056 -0.4914
   83PEG    COC 2531  12.901  12.226   7.597 -0.0964  0.0488 -0.0900
   83PEG    COC 2532  12.939  12.287   7.883 -0.0639  0.2061  0.2903
   83PEG    COC 2533  12.934  12.527   8.044  0.1883 -0.5013 -0.0293
   83PEG    COC 2534  12.906  12.613   8.329 -0.1602 -0.0248 -0.0245
   83PEG    COC 2535  13.086  12.826   8.465 -0.2931  0.0347 -0.0634
   83PEG    COC 2536  12.998  13.019   8.702  0.3233  0.0865 -0.2781
   83PEG    COC 2537  12.748  13.158   8.543 -0.2992  0.0663  0.0573
   83PEG    COH 2538  12.543  13.100   8.645  0.1545 -0.6188 -0.0127
   84PEG    COH 2539   0.686   9.773   0.932 -0.0350 -0.0192  0.0066
   84PEG    COC 2540   0.476   9.753   0.760 -0.3399  0.0865 -0.2040
   84PEG    COC 2541   0.311   9.659   1.002 -0.0239 -0.3749  0.1120
   84PEG    COC 2542   0.429   9.790   1.232  0.0215  0.0203 -0.0404
   84PEG    COC 2543   0.239  10.040   1.239  0.1120  0.1202  0.1887
   84PEG    COC 2544   0.007  10.064   1.024  0.1160  0.2116  0.4152
   84PEG    COC 2545  -0.294   9.970   1.108 -0.1428 -0.0215 -0.2949
   84PEG    COC 2546  -0.571  10.052   1.278 -0.1053  0.4029 -0.0625
   84PEG    COC 2547  -0.669   9.844   1.475  0.2704  0.0106 -0.1913
   84PEG    COC 2548  -0.907   9.709   1.663  0.4188 -0.0574 -0.0728
   84PEG    COC 2549  -0.871   9.757   1.956 -0.0445 -0.3315  0.1628
   84PEG    COC 2550  -1.172   9.746   1.984  0.2457 -0.0625  0.5896
   84PEG    COC 2551  -1.282   9.841   1.677 -0.4562  0.0177 -0.1960
   84PEG    COC 2552  -1.462   9.664   1.447 -0.3551 -0.3902  0.1753
   84PEG    COC 2553  -1.407   9.393   1.289  0.2755  0.1780 -0.3834
   84PEG    COC 2554  -1.672   9.267   1.389 -0.1330  0.2608 -0.0353
   84PEG    COC 2555  -1.875   9.471   1.310  0.1732  0.1259  0.3808
   84PEG    COC 2556  -1.836   9.682   1.092  0.4153 -0.2852  0.3054
   84PEG    COC 2557  -2.040   9.908   0.963  0.1142 -0.0375 -0.1366
   84PEG    COC 2558  -2.175   9.837   0.674 -0.4327  0.4491 -0.0570
   84PEG    COC 2559  -2.179   9.579   0.547 -0.0990 -0.5390  0.1195
   84PEG    COC 2560  -1.913   9.447   0.587  0.2625 -0.0291  0.0612
   84PEG    COC 2561  -1.691   9.706   0.618 -0.0043 -0.1074  0.1645
   84PEG    COC 2562  -1.497   9.867   0.432 -0.1963  0.3264  0.3269
   84PEG    COC 2563  -1.301   9.893   0.201 -0.1720 -0.3184 -0.3475
   84PEG    COC 2564  -1.029   9.959   0.186 -0.1679 -0.0086 -0.2289
   84PEG    COC 2565  -0.917   9.763   0.369 -0.6212  0.0265  0.2570
   84PEG    COC 2566  -0.774   9.550   0.205 -0.0308  0.1040 -0.2573
   84PEG    COC 2567  -0.608   9.486  -0.064  0.0585 -0.1931  0.0206
   84PEG    COC 2568  -0.535   9.179  -0.197  0.0869 -0.0254  0.2608
   84PEG    COC 2569  -0.340   8.971  -0.047 -0.0704  0.0562  0.3648
   84PEG    COC 2570  -0.049   9.047   0.028  0.3807 -0.1471  0.1388
   84PEG    COC 2571   0.068   9.001  -0.230  0.0551  0.3995  0.2439
   84PEG    COC 2572   0.205   8.729  -0.317 -0.5511  0.0158  0.1016
   84PEG    COC 2573   0.154   8.829  -0.577 -0.1463 -0.2650  0.2933
   84PEG    COC 2574   0.096   9.005  -0.794  0.2328  0.3567  0.1041
   84PEG    COC 2575   0.315   9.153  -0.925  0.1281 -0.0249  0.1341
   84PEG    COC 2576   0.231   9.441  -0.779  0.1490 -0.0119  0.0996
   84PEG    COC 2577   0.068   9.506  -0.546  0.1855  0.0158  0.5306
   84PEG    COC 2578  -0.180   9.627  -0.675  0.2137 -0.3079  0.4790
   84PEG    COC 2579  -0.351   9.664  -0.943 -0.0882  0.1156  0.1775
   84PEG    COC 2580  -0.295   9.447  -1.152  0.1811  0.1876 -0.0332
   84PEG    COC 2581  -0.472   9.348  -1.401  0.1539  0.1743  0.0276
   84PEG    COC 2582  -0.654   9.586  -1.393  0.1891 -0.4193  0.1959
   84PEG    COC 2583  -0.841   9.545  -1.672  0.5937  0.3959 -0.2391
   84PEG    COH 2584  -0.952   9.286  -1.672 -0.2153  0.3659 -0.0535
   85PEG    COH 2585   3.432   6.386  12.411 -0.1428 -0.1839  0.0718
   85PEG    COC 2586   3.246   6.458  12.627  0.0010 -0.1640 -0.7382
   85PEG    COC 2587   3.085   6.725  12.568  0.1433 -0.0089 -0.1143
   85PEG    COC 2588   2.935   6.788  12.801  0.0164  0.0501  0.1445
   85PEG    COC 2589   2.627   6.798  12.692  0.0695 -0.0102  0.0072
   85PEG    COC 2590   2.533   6.613  12.484  0.3005  0.0500 -0.1543
   85PEG    COC 2591   2.677   6.578  12.189  0.3055  0.0366  0.2467
   85PEG    COC 2592   2.938   6.564  12.148  0.0103  0.3163 -0.0116
   85PEG    COC 2593   3.213   6.644  12.136  0.2751  0.0097  0.0503
   85PEG    COC 2594   3.366   6.859  12.229  0.0336  0.3555  0.1385
   85PEG    COC 2595   3.577   7.029  12.084 -0.1013  0.3144  0.2369
   85PEG    COC 2596   3.763   7.210  12.220  0.1718 -0.1984 -0.0142
   85PEG    COC 2597   3.887   7.153  12.511 -0.3970 -0.0264  0.0303
   85PEG    COC 2598   3.989   6.961  12.684  0.0108  0.0272 -0.2771
   85PEG    COC 2599   4.094   6.640  12.634  0.2775 -0.3037  0.1634
   85PEG    COC 2600   4.141   6.405  12.870 -0.2195  0.0637  0.1483
   85PEG    COC 2601   3.970   6.514  13.079 -0.0626  0.0030 -0.1248
   85PEG    COC 2602   3.989   6.419  13.375  0.0214  0.4073  0.2269
   85PEG    COC 2603   3.729   6.390  13.530 -0.4091 -0.2477  0.3260
   85PEG    COC 2604   3.581   6.630  13.563 -0.0205 -0.3427 -0.7732
   85PEG    COC 2605   3.327   6.763  13.617  0.3258 -0.5931  0.3644
   85PEG    COC 2606   3.098   6.619  13.467  0.2551  0.4255 -0.0196
   85PEG    COC 2607   2.919   6.420  13.613  0.1418 -0.2296  0.2210
   85PEG    COC 2608   2.680   6.228  13.656 -0.0538  0.2079 -0.1994
   85PEG    COC 2609   2.395   6.345  13.724 -0.0138  0.2855 -0.0009
   85PEG    COC 2610   2.413   6.573  13.935 -0.1827 -0.0557  0.1451
   85PEG    COC 2611   2.307   6.881  13.869  0.0285 -0.0468  0.0293
   85PEG    COC 2612   2.475   7.142  13.834 -0.2487 -0.2116 -0.2306
   85PEG    COC 2613   2.600   7.278  13.626  0.1601  0.2488 -0.0361
   85PEG    COC 2614   2.394   7.330  13.449  0.3520  0.0240  0.2377
   85PEG    COC 2615   2.348   7.202  13.181 -0.0387  0.0710  0.2455
   85PEG    COC 2616   2.611   7.096  13.009 -0.0273 -0.0580 -0.0897
   85PEG    COC 2617   2.847   7.205  13.170 -0.1843  0.0333  0.0938
   85PEG    COC 2618   2.971   7.079  13.409 -0.3739  0.1466 -0.0204
   85PEG    COC 2619   3.171   7.214  13.583 -0.1118  0.3040  0.3190
   85PEG    COC 2620   3.400   7.419  13.663  0.3693 -0.2536 -0.1285
   85PEG    COC 2621   3.184   7.652  13.744  0.3549 -0.1721 -0.0901
   85PEG    COC 2622   3.176   7.814  14.015 -0.0392  0.1749  0.0168
   85PEG    COC 2623   3.401   7.861  14.225  0.1287  0.0766 -0.0825
   85PEG    COC 2624   3.488   7.655  14.419  0.0582 -0.1541 -0.1103
   85PEG    COC 2625   3.771   7.458  14.399  0.4552 -0.0580  0.1396
   85PEG    COC 2626   4.021   7.442  14.565  0.2315 -0.2374 -0.1141
   85PEG    COC 2627   4.097   7.367  14.845  0.2291  0.2264  0.5102
   85PEG    COC 2628   4.064   7.480  15.092 -0.1088 -0.3069 -0.0106
   85PEG    COC 2629   4.250   7.578  15.312  0.1193  0.3105  0.3135
   85PEG    COH 2630   4.392   7.365  15.387  0.1846 -0.7136 -0.2193
   86PEG    COH 2631   5.771   9.669   9.794  0.5204  0.1761 -0.1506
   86PEG    COC 2632   5.898   9.709  10.030 -0.1517  0.4508 -0.4348
   86PEG    COC 2633   5.696   9.642  10.244 -0.1051 -0.1175  0.2033
   86PEG    COC 2634   5.779   9.354  10.350 -0.1577  0.2521 -0.0925
   86PEG    COC 2635   5.714   9.091  10.214 -0.0068  0.2040 -0.0608
   86PEG    COC 2636   5.876   8.930  10.405 -0.1188 -0.1154  0.1196
   86PEG    COC 2637   6.102   8.768  10.368 -0.0306 -0.2729 -0.0688
   86PEG    COC 2638   6.170   8.637  10.110 -0.3331  0.4120 -0.3159
   86PEG    COC 2639   6.255   8.683   9.809 -0.1048 -0.1862  0.0295
   86PEG    COC 2640   6.294   8.941   9.696 -0.1006 -0.3798 -0.1693
   86PEG    COC 2641   6.062   9.173   9.617 -0.1531 -0.0791  0.4016
   86PEG    COC 2642   6.077   9.487   9.701 -0.1080  0.1816 -0.0597
   86PEG    COC 2643   6.351   9.554   9.810 -0.3008  0.5125  0.4367
   86PEG    COC 2644   6.468   9.720   9.577  0.0755 -0.2009 -0.1205
   86PEG    COC 2645   6.535  10.008   9.519  0.0398  0.0775 -0.1779
   86PEG    COC 2646   6.630  10.203   9.675  0.3690  0.0378  0.3416
   86PEG    COC 2647   6.545  10.422   9.831 -0.1431  0.2424  0.1714
   86PEG    COC 2648   6.279  10.537   9.901 -0.1126 -0.0004  0.1515
   86PEG    COC 2649   6.083  10.268   9.936  0.5010  0.0536  0.1228
   86PEG    COC 2650   6.322  10.044   9.951  0.3395 -0.1622  0.1201
   86PEG    COC 2651   6.625  10.009  10.010  0.1458 -0.0242 -0.3938
   86PEG    COC 2652   6.653   9.745  10.121  0.2733  0.3818 -0.1887
   86PEG    COC 2653   6.622   9.596  10.430 -0.0741  0.1388 -0.4171
   86PEG    COC 2654   6.603   9.305  10.301 -0.2635  0.1709  0.3064
   86PEG    COC 2655   6.646   9.281  10.029  0.1555  0.2523  0.0150
   86PEG    COC 2656   6.818   9.484   9.833  0.1381  0.2051 -0.0089
   86PEG    COC 2657   7.040   9.645   9.977  0.1632 -0.0337 -0.0535
   86PEG    COC 2658   7.005   9.563  10.271  0.0064 -0.4466  0.1115
   86PEG    COC 2659   7.198   9.362  10.420  0.4487  0.0409  0.2376
   86PEG    COC 2660   7.260   9.068  10.380 -0.1781  0.4070 -0.1053
   86PEG    COC 2661   7.289   8.796  10.288  0.2498  0.1207 -0.0027
   86PEG    COC 2662   7.583   8.662  10.342  0.0419 -0.0285  0.1233
   86PEG    COC 2663   7.853   8.692  10.181 -0.3184 -0.2828  0.4939
   86PEG    COC 2664   7.938   8.714   9.863 -0.1627 -0.0991  0.0697
   86PEG    COC 2665   8.065   8.479   9.676  0.1037 -0.3119  0.0247
   86PEG    COC 2666   7.950   8.204   9.758  0.2031  0.1720 -0.3223
   86PEG    COC 2667   8.111   7.980   9.714 -0.2870  0.3231 -0.1209
   86PEG    COC 2668   8.383   7.950   9.804 -0.4237 -0.4082  0.0056
   86PEG    COC 2669   8.569   8.135   9.613  0.0764  0.0110  0.0007
   86PEG    COC 2670   8.812   7.992   9.439  0.0361  0.0835 -0.0420
   86PEG    COC 2671   8.948   8.185   9.252 -0.0373  0.0081  0.2132
   86PEG    COC 2672   9.252   8.115   9.329  0.2014 -0.6956 -0.1069
   86PEG    COC 2673   9.448   8.137   9.124 -0.2601  0.3257 -0.5261
   86PEG    COC 2674   9.667   8.300   9.222 -0.0878  0.3056 -0.1679
   86PEG    COC 2675   9.909   8.147   9.312 -0.2057  0.0765 -0.0360
   86PEG    COH 2676  10.021   8.348   9.498  0.1489  0.2203  0.3397
   87PEG    COH 2677   1.834  16.659   7.994 -0.1707 -0.5257  0.0417
   87PEG    COC 2678   1.613  16.780   8.034  0.1577  0.0122 -0.4160
   87PEG    COC 2679   1.552  16.770   8.328  0.2596  0.0280 -0.5405
   87PEG    COC 2680   1.462  16.965   8.547 -0.2269 -0.0995  0.0100
   87PEG    COC 2681   1.207  16.844   8.708  0.5075  0.3999  0.4014
   87PEG    COC 2682   0.936  16.949   8.826 -0.3227  0.0860 -0.4598
   87PEG    COC 2683   0.795  17.201   8.658  0.3010 -0.3244 -0.0654
   87PEG    COC 2684   0.790  17.422   8.484  0.1864 -0.1317  0.3375
   87PEG    COC 2685   0.647  17.343   8.226  0.2048 -0.3720  0.0904
   87PEG    COC 2686   0.690  17.107   8.017 -0.0844  0.0505  0.2345
   87PEG    COC 2687   0.410  16.990   7.985  0.5580  0.0222  0.4081
   87PEG    COC 2688   0.229  17.143   8.168 -0.1992 -0.1386  0.1454
   87PEG    COC 2689   0.109  16.952   8.394  0.1295 -0.3676  0.0616
   87PEG    COC 2690   0.116  16.706   8.200  0.0023 -0.0830 -0.3119
   87PEG    COC 2691  -0.071  16.564   8.014 -0.4348 -0.1307  0.2442
   87PEG    COC 2692  -0.268  16.384   8.081  0.1885 -0.2352 -0.3073
   87PEG    COC 2693  -0.364  16.103   8.049  0.0121 -0.3987  0.1902
   87PEG    COC 2694  -0.211  16.025   7.810 -0.0391  0.3281  0.1531
   87PEG    COC 2695  -0.267  16.153   7.542 -0.0652 -0.4425  0.1554
   87PEG    COC 2696  -0.184  16.416   7.468 -0.2205  0.0690  0.4327
   87PEG    COC 2697  -0.331  16.607   7.382  0.1246 -0.3496  0.2094
   87PEG    COC 2698  -0.242  16.892   7.477  0.0754  0.0727 -0.0524
   87PEG    COC 2699  -0.086  17.071   7.273  0.0470  0.1176  0.0784
   87PEG    COC 2700  -0.154  16.905   7.072 -0.1035  0.0526  0.0293
   87PEG    COC 2701  -0.103  16.650   6.951 -0.1513 -0.5184  0.3472
   87PEG    COC 2702  -0.047  16.373   7.067  0.1770 -0.0649 -0.0056
   87PEG    COC 2703   0.016  16.152   7.226  0.1292  0.3225 -0.1583
   87PEG    COC 2704   0.030  15.861   7.392  0.1576 -0.3570 -0.5254
   87PEG    COC 2705   0.177  15.854   7.685 -0.0855  0.2013  0.0396
   87PEG    COC 2706   0.438  15.958   7.873  0.0605  0.1732 -0.0604
   87PEG    COC 2707   0.562  16.227   7.970 -0.2033 -0.1765  0.0718
   87PEG    COC 2708   0.377  16.486   7.975 -0.1593 -0.1497  0.2806
   87PEG    COC 2709   0.323  16.690   7.750  0.0563 -0.1059 -0.0340
   87PEG    COC 2710   0.550  16.828   7.617 -0.1934  0.0150 -0.4449
   87PEG    COC 2711   0.553  16.839   7.314  0.3016  0.1892 -0.0099
   87PEG    COC 2712   0.748  16.680   7.119 -0.1284  0.3485 -0.3406
   87PEG    COC 2713   0.957  16.519   7.238  0.0823 -0.0403 -0.1691
   87PEG    COC 2714   1.058  16.218   7.086  0.4615  0.1980  0.0158
   87PEG    COC 2715   1.184  16.351   6.844 -0.0838 -0.0417  0.0196
   87PEG    COC 2716   1.157  16.584   6.628 -0.3363 -0.0712  0.0701
   87PEG    COC 2717   1.170  16.390   6.402 -0.3101 -0.5235  0.0911
   87PEG    COC 2718   1.382  16.205   6.297  0.0255 -0.0041 -0.3140
   87PEG    COC 2719   1.647  15.996   6.244  0.1342  0.1093 -0.0303
   87PEG    COC 2720   1.561  15.715   6.183  0.3135 -0.2398  0.0769
   87PEG    COC 2721   1.587  15.560   5.923  0.2397  0.0349  0.0828
   87PEG    COH 2722   1.625  15.504   5.676  0.0961 -0.3208  0.0343
   88PEG    COH 2723   5.007   4.966  12.373 -0.0799  0.1309 -0.1739
   88PEG    COC 2724   5.012   5.042  12.643 -0.1622  0.1523 -0.0873
   88PEG    COC 2725   4.810   5.155  12.819 -0.5161  0.0617  0.0613
   88PEG    COC 2726   4.498   5.214  12.829  0.0650 -0.0713 -0.0727
   88PEG    COC 2727   4.295   5.428  12.775  0.1445 -0.4926  0.5526
   88PEG    COC 2728   4.339   5.692  12.592  0.2796  0.0840  0.1938
   88PEG    COC 2729   4.244   5.703  12.299 -0.1075  0.0181 -0.0337
   88PEG    COC 2730   3.916   5.728  12.213 -0.0161 -0.3615 -0.3279
   88PEG    COC 2731   3.801   5.926  11.997  0.7008 -0.1083 -0.0032
   88PEG    COC 2732   3.876   6.201  12.008 -0.1676  0.1208 -0.0815
   88PEG    COC 2733   3.619   6.353  12.060 -0.2843  0.1365  0.1131
   88PEG    COC 2734   3.509   6.496  11.820 -0.2419  0.1194  0.2359
   88PEG    COC 2735   3.637   6.759  11.759 -0.1988  0.0252 -0.3268
   88PEG    COC 2736   3.961   6.727  11.793 -0.1180 -0.0703  0.0247
   88PEG    COC 2737   4.173   6.887  11.939  0.3944 -0.1570 -0.1355
   88PEG    COC 2738   4.349   6.903  11.702 -0.0125  0.2005 -0.0140
   88PEG    COC 2739   4.475   6.636  11.635 -0.1047 -0.0420 -0.0951
   88PEG    COC 2740   4.808   6.610  11.580  0.1344  0.2372 -0.1746
   88PEG    COC 2741   5.039   6.670  11.779  0.0381  0.1726  0.2791
   88PEG    COC 2742   5.244   6.642  11.953  0.2588  0.2325 -0.1548
   88PEG    COC 2743   5.384   6.837  12.164  0.2596 -0.4891  0.3064
   88PEG    COC 2744   5.189   6.967  12.372 -0.2515  0.3871 -0.1133
   88PEG    COC 2745   4.870   6.987  12.461  0.0903  0.0837  0.3933
   88PEG    COC 2746   4.712   7.183  12.281 -0.0867  0.2960 -0.1765
   88PEG    COC 2747   4.580   7.460  12.392 -0.1830 -0.0326 -0.1653
   88PEG    COC 2748   4.588   7.731  12.185 -0.2084  0.0987 -0.3306
   88PEG    COC 2749   4.696   8.016  12.204  0.0991 -0.3993 -0.1535
   88PEG    COC 2750   4.693   8.221  12.455 -0.0642 -0.0289 -0.0134
   88PEG    COC 2751   4.952   8.417  12.501  0.2434 -0.1884 -0.5376
   88PEG    COC 2752   5.048   8.593  12.258  0.0919  0.1445 -0.0771
   88PEG    COC 2753   4.878   8.746  12.053  0.0528 -0.3010 -0.0867
   88PEG    COC 2754   4.899   8.723  11.776  0.2057 -0.2141  0.1861
   88PEG    COC 2755   5.103   8.822  11.638  0.2458 -0.0447 -0.1760
   88PEG    COC 2756   5.279   8.743  11.425 -0.2542  0.1895 -0.4408
   88PEG    COC 2757   5.455   8.462  11.403  0.1376 -0.2070  0.2464
   88PEG    COC 2758   5.740   8.562  11.412 -0.2311 -0.1413  0.0682
   88PEG    COC 2759   5.854   8.854  11.357  0.0956  0.1303 -0.1876
   88PEG    COC 2760   5.622   9.046  11.313  0.2444 -0.0930 -0.3251
   88PEG    COC 2761   5.500   8.870  11.093  0.2961 -0.5740  0.4375
   88PEG    COC 2762   5.224   8.805  10.980  0.0381  0.1755  0.0077
   88PEG    COC 2763   5.201   9.036  10.746  0.3261 -0.1754 -0.0390
   88PEG    COC 2764   5.485   9.099  10.628 -0.1692 -0.1047  0.0082
   88PEG    COC 2765   5.473   9.365  10.755  0.0748 -0.0973  0.2552
   88PEG    COC 2766   5.515   9.646  10.713  0.0974 -0.0645  0.0571
   88PEG    COC 2767   5.803   9.719  10.802  0.0645  0.3619 -0.1177
   88PEG    COH 2768   5.839   9.784  11.071  0.1215 -0.1697  0.4805
   89PEG    COH 2769  17.572   7.832   2.962 -0.2895 -0.1101 -0.2297
   89PEG    COC 2770  17.583   7.897   3.199 -0.4947  0.2437  0.2060
   89PEG    COC 2771  17.803   8.116   3.226 -0.2533 -0.4795 -0.3840
   89PEG    COC 2772  17.797   8.411   3.139  0.1011  0.0824 -0.3440
   89PEG    COC 2773  17.769   8.519   3.413  0.3492 -0.0631 -0.0735
   89PEG    COC 2774  17.657   8.317   3.613 -0.5096  0.2167 -0.2998
   89PEG    COC 2775  17.467   8.092   3.597 -0.0907 -0.3713 -0.0579
   89PEG    COC 2776  17.225   7.995   3.442  0.1569 -0.0415 -0.1622
   89PEG    COC 2777  17.062   7.768   3.669  0.0398  0.1190  0.3947
   89PEG    COC 2778  16.937   7.600   3.449 -0.0756 -0.1770 -0.2919
   89PEG    COC 2779  16.969   7.304   3.529  0.0739  0.0206  0.4627
   89PEG    COC 2780  17.145   7.211   3.766  0.0676  0.2813  0.2459
   89PEG    COC 2781  17.032   7.288   4.058 -0.5488  0.0249  0.2429
   89PEG    COC 2782  17.246   7.429   4.206  0.5049  0.1535 -0.1643
   89PEG    COC 2783  17.531   7.434   4.184  0.0843  0.0033  0.0844
   89PEG    COC 2784  17.794   7.610   4.133 -0.0538 -0.2401  0.3117
   89PEG    COC 2785  18.030   7.483   4.017  0.0978  0.1263  0.3723
   89PEG    COC 2786  18.338   7.475   4.082 -0.0880  0.4075  0.1890
   89PEG    COC 2787  18.376   7.222   4.219  0.0881 -0.1337 -0.2721
   89PEG    COC 2788  18.297   7.143   4.508 -0.0971 -0.3780  0.3090
   89PEG    COC 2789  18.486   7.307   4.733  0.1302  0.0960  0.3771
   89PEG    COC 2790  18.726   7.367   4.544  0.2296  0.3496 -0.0443
   89PEG    COC 2791  19.002   7.291   4.379 -0.6285 -0.1329 -0.0383
   89PEG    COC 2792  19.169   7.080   4.289 -0.1839  0.2268 -0.2725
   89PEG    COC 2793  19.061   6.800   4.237  0.1076  0.2109  0.0357
   89PEG    COC 2794  18.793   6.646   4.198  0.1100 -0.0706 -0.2604
   89PEG    COC 2795  18.734   6.472   4.406  0.0129  0.2247 -0.6061
   89PEG    COC 2796  18.973   6.516   4.613 -0.2483  0.2353 -0.3136
   89PEG    COC 2797  19.080   6.306   4.852  0.2006 -0.3073  0.2252
   89PEG    COC 2798  19.143   6.045   4.741  0.1717  0.0070 -0.4530
   89PEG    COC 2799  19.195   5.941   4.459 -0.2053 -0.0495  0.1561
   89PEG    COC 2800  19.481   5.830   4.326  0.3756 -0.0832  0.2896
   89PEG    COC 2801  19.348   5.724   4.093  0.0646 -0.0486  0.1870
   89PEG    COC 2802  19.443   5.462   4.014 -0.1037 -0.3911 -0.1791
   89PEG    COC 2803  19.612   5.280   3.810  0.2129 -0.6531 -0.1050
   89PEG    COC 2804  19.851   5.316   3.597  0.2690 -0.1122  0.2082
   89PEG    COC 2805  19.937   5.192   3.337  0.0414 -0.1612  0.0584
   89PEG    COC 2806  19.804   5.131   3.054  0.4825  0.0244 -0.4037
   89PEG    COC 2807  20.000   5.150   2.816  0.1003 -0.1938  0.1668
   89PEG    COC 2808  20.096   5.394   2.641 -0.0585  0.1201 -0.3370
   89PEG    COC 2809  20.137   5.305   2.386  0.0375  0.0306  0.2184
   89PEG    COC 2810  20.384   5.271   2.198  0.1072  0.3334 -0.0494
   89PEG    COC 2811  20.648   5.157   2.282  0.2138  0.2626  0.0726
   89PEG    COC 2812  20.887   5.171   2.468  0.1817 -0.2019  0.1406
   89PEG    COC 2813  21.178   5.036   2.495  0.0370 -0.2574  0.3034
   89PEG    COH 2814  21.087   4.767   2.493  0.4632  0.1149  0.0529
   90PEG    COH 2815   7.771  10.113   9.426  0.5646  0.0801  0.3482
   90PEG    COC 2816   7.521   9.964   9.437  0.1327  0.0643  0.3805
   90PEG    COC 2817   7.649   9.680   9.391  0.1746  0.3292 -0.1881
   90PEG    COC 2818   7.428   9.571   9.209  0.0697 -0.2596  0.5188
   90PEG    COC 2819   7.314   9.266   9.212 -0.0878 -0.1390  0.5617
   90PEG    COC 2820   7.508   9.103   9.409 -0.1076  0.4900  0.1571
   90PEG    COC 2821   7.804   9.078   9.561  0.3023  0.0513 -0.4261
   90PEG    COC 2822   7.865   9.277   9.794 -0.0838  0.2298  0.0424
   90PEG    COC 2823   7.828   9.590   9.802 -0.0617 -0.2745 -0.0705
   90PEG    COC 2824   8.020   9.819   9.962 -0.1406  0.2437  0.0530
   90PEG    COC 2825   8.084  10.103   9.876  0.2970 -0.1230 -0.3226
   90PEG    COC 2826   8.160  10.253   9.589  0.2075 -0.6511  0.0357
   90PEG    COC 2827   8.377  10.455   9.586  0.1279  0.2778  0.1110
   90PEG    COC 2828   8.658  10.324   9.586  0.2328  0.0989 -0.2692
   90PEG    COC 2829   8.816  10.195   9.790  0.3778  0.0297 -0.2916
   90PEG    COC 2830   8.818   9.911   9.804  0.0035  0.1458 -0.0100
   90PEG    COC 2831   8.812   9.790   9.573 -0.1103  0.0887  0.3274
   90PEG    COC 2832   8.641   9.965   9.403  0.1924  0.3716  0.0077
   90PEG    COC 2833   8.653  10.014   9.108 -0.0559 -0.0183 -0.0019
   90PEG    COC 2834   8.967   9.999   9.116 -0.0710 -0.0477 -0.1308
   90PEG    COC 2835   9.067   9.869   8.886  0.5499 -0.6033 -0.2464
   90PEG    COC 2836   8.847   9.835   8.644  0.1247  0.0240  0.1440
   90PEG    COC 2837   8.577   9.730   8.724 -0.1426 -0.2773  0.1905
   90PEG    COC 2838   8.350   9.850   8.854  0.0746  0.1877  0.0214
   90PEG    COC 2839   8.183  10.103   8.965  0.1265  0.1948 -0.0437
   90PEG    COC 2840   8.157  10.334   9.147  0.1535 -0.2243  0.0643
   90PEG    COC 2841   8.442  10.447   9.205 -0.1564  0.1658 -0.0436
   90PEG    COC 2842   8.534  10.413   8.922 -0.0437 -0.1928  0.0798
   90PEG    COC 2843   8.825  10.374   8.863 -0.3336  0.1375  0.3590
   90PEG    COC 2844   8.938  10.314   8.585 -0.2817 -0.1105  0.5126
   90PEG    COC 2845   8.828  10.288   8.280  0.3512  0.3009  0.0697
   90PEG    COC 2846   8.572  10.369   8.138 -0.0261 -0.0386  0.1563
   90PEG    COC 2847   8.438  10.249   7.873 -0.1644 -0.0128  0.3491
   90PEG    COC 2848   8.433   9.987   7.748 -0.0715 -0.2550  0.0195
   90PEG    COC 2849   8.369   9.706   7.847  0.2889  0.1949  0.0174
   90PEG    COC 2850   8.089   9.668   7.773  0.1035  0.0329 -0.2032
   90PEG    COC 2851   7.983   9.471   8.006  0.1780 -0.0341 -0.2024
   90PEG    COC 2852   7.762   9.599   8.172 -0.5454  0.0603 -0.3970
   90PEG    COC 2853   7.619   9.422   8.358 -0.1053  0.0635 -0.1575
   90PEG    COC 2854   7.571   9.553   8.685  0.2914 -0.0024 -0.2710
   90PEG    COC 2855   7.448   9.851   8.678 -0.0230  0.1201 -0.3766
   90PEG    COC 2856   7.177   9.981   8.618  0.0674 -0.1174  0.0240
   90PEG    COC 2857   6.947  10.184   8.667 -0.2778  0.0321 -0.0057
   90PEG    COC 2858   6.870  10.235   8.951 -0.3668  0.2042 -0.1585
   90PEG    COC 2859   6.970  10.075   9.214  0.3177 -0.1116 -0.0120
   90PEG    COH 2860   7.202   9.958   9.277 -0.1070  0.0013 -0.4728
   91PEG    COH 2861   1.241   7.554  17.989  0.0685 -0.6970  0.0969
   91PEG    COC 2862   1.429   7.643  18.123  0.0253 -0.0900  0.1210
   91PEG    COC 2863   1.440   7.934  18.189 -0.6951 -0.1756 -0.0147
   91PEG    COC 2864   1.196   8.170  18.188  0.1558 -0.4231 -0.1819
   91PEG    COC 2865   0.905   8.230  18.239 -0.3755 -0.2112 -0.0032
   91PEG    COC 2866   0.747   8.074  18.504  0.1941 -0.3019 -0.4753
   91PEG    COC 2867   0.463   8.071  18.623 -0.2909  0.3077  0.1916
   91PEG    COC 2868   0.200   8.261  18.690  0.0572 -0.1005  0.2500
   91PEG    COC 2869  -0.109   8.282  18.726 -0.2662  0.4053 -0.1813
   91PEG    COC 2870  -0.243   8.029  18.792  0.0205 -0.2104 -0.1040
   91PEG    COC 2871  -0.205   7.758  18.759  0.1351  0.0123  0.1351
   91PEG    COC 2872  -0.512   7.654  18.765 -0.2138  0.2235 -0.1225
   91PEG    COC 2873  -0.575   7.332  18.836  0.0945 -0.0197 -0.1452
   91PEG    COC 2874  -0.709   7.279  18.603  0.2525 -0.2203 -0.1131
   91PEG    COC 2875  -1.001   7.226  18.513  0.1046  0.4905  0.2058
   91PEG    COC 2876  -1.227   7.270  18.337  0.0088 -0.6030  0.0966
   91PEG    COC 2877  -1.208   7.050  18.076 -0.3004  0.1461  0.1136
   91PEG    COC 2878  -1.182   7.099  17.771 -0.2337  0.0914  0.1177
   91PEG    COC 2879  -1.504   7.192  17.749  0.0210  0.0991 -0.0345
   91PEG    COC 2880  -1.652   7.471  17.735 -0.1048  0.3461  0.2834
   91PEG    COC 2881  -1.508   7.660  17.502 -0.2526  0.0526 -0.0270
   91PEG    COC 2882  -1.652   7.862  17.323  0.0619  0.2146 -0.2310
   91PEG    COC 2883  -1.619   8.134  17.411 -0.1517  0.0708  0.3979
   91PEG    COC 2884  -1.353   8.183  17.454  0.1498 -0.3535 -0.0856
   91PEG    COC 2885  -1.407   8.439  17.656 -0.0225 -0.1538  0.0357
   91PEG    COC 2886  -1.434   8.590  17.419 -0.2090 -0.0314  0.5597
   91PEG    COC 2887  -1.578   8.852  17.394  0.0684 -0.0008  0.1701
   91PEG    COC 2888  -1.433   9.088  17.356 -0.3224  0.0835  0.0180
   91PEG    COC 2889  -1.188   9.156  17.180 -0.1635  0.1827  0.0497
   91PEG    COC 2890  -0.968   9.139  16.963 -0.2015 -0.3104  0.0178
   91PEG    COC 2891  -0.705   9.073  17.147 -0.0897  0.3286  0.0899
   91PEG    COC 2892  -0.537   9.119  17.370 -0.2126 -0.5706  0.0526
   91PEG    COC 2893  -0.746   9.194  17.582  0.1249 -0.4290  0.0904
   91PEG    COC 2894  -0.648   9.464  17.712  0.3838  0.1211 -0.2220
   91PEG    COC 2895  -0.855   9.634  17.818  0.2667 -0.2747 -0.0119
   91PEG    COC 2896  -0.735   9.879  17.723  0.3259  0.0862  0.0408
   91PEG    COC 2897  -0.445   9.931  17.799 -0.4357 -0.0101 -0.1208
   91PEG    COC 2898  -0.352  10.200  17.874 -0.1023 -0.1963 -0.2017
   91PEG    COC 2899  -0.577  10.402  17.797  0.1275  0.3391 -0.0223
   91PEG    COC 2900  -0.905  10.420  17.707 -0.2061  0.4551  0.3314
   91PEG    COC 2901  -1.088  10.221  17.597  0.1792  0.1082  0.0446
   91PEG    COC 2902  -1.394  10.310  17.560  0.0722 -0.0777  0.1152
   91PEG    COC 2903  -1.595  10.170  17.396  0.0373  0.3210 -0.1729
   91PEG    COC 2904  -1.863  10.293  17.268  0.0622 -0.2721 -0.2203
   91PEG    COC 2905  -1.893  10.581  17.251  0.0272  0.2243  0.0479
   91PEG    COH 2906  -2.119  10.735  17.250 -0.0543 -0.1959 -0.0927
   92PEG    COH 2907  13.002  14.183   3.594 -0.5578 -0.6293  0.5073
   92PEG    COC 2908  13.226  14.129   3.463 -0.4250 -0.1629 -0.2658
   92PEG    COC 2909  13.424  14.123   3.689 -0.1995 -0.2368  0.0396
   92PEG    COC 2910  13.716  13.989   3.616  0.2279  0.2128  0.1626
   92PEG    COC 2911  13.942  13.920   3.433 -0.1688 -0.0527 -0.3560
   92PEG    COC 2912  13.931  13.685   3.227 -0.1216  0.1954  0.0359
   92PEG    COC 2913  13.703  13.444   3.289  0.2931 -0.4305 -0.3924
   92PEG    COC 2914  13.709  13.170   3.415  0.3947 -0.2828  0.1914
   92PEG    COC 2915  13.891  12.938   3.336 -0.0576  0.4716 -0.0931
   92PEG    COC 2916  14.199  12.859   3.280  0.0006 -0.2814 -0.1469
   92PEG    COC 2917  14.433  13.099   3.224  0.2240  0.2309  0.0624
   92PEG    COC 2918  14.727  12.997   3.208  0.2230 -0.1218 -0.1184
   92PEG    COC 2919  14.939  13.011   3.404 -0.2356  0.5804 -0.3915
   92PEG    COC 2920  14.935  13.043   3.730 -0.2513 -0.2607  0.0685
   92PEG    COC 2921  14.696  13.225   3.702  0.4088 -0.3066  0.1306
   92PEG    COC 2922  14.790  13.521   3.712 -0.2458  0.3351  0.2610
   92PEG    COC 2923  14.862  13.737   3.496 -0.1515 -0.1019  0.0968
   92PEG    COC 2924  15.137  13.772   3.397  0.0372  0.1467 -0.2146
   92PEG    COC 2925  15.281  13.959   3.584 -0.3280 -0.2356  0.1428
   92PEG    COC 2926  15.078  14.104   3.764 -0.3329  0.0005 -0.3098
   92PEG    COC 2927  15.119  14.374   3.790  0.0845 -0.0976  0.4673
   92PEG    COC 2928  15.400  14.468   3.689  0.1214 -0.3284  0.0240
   92PEG    COC 2929  15.569  14.619   3.915  0.2577 -0.0387  0.2100
   92PEG    COC 2930  15.838  14.589   3.824 -0.0634 -0.0649  0.0214
   92PEG    COC 2931  15.908  14.336   3.941 -0.0455  0.1028 -0.4622
   92PEG    COC 2932  16.193  14.437   4.047 -0.3074  0.3918 -0.1282
   92PEG    COC 2933  16.267  14.211   4.211 -0.1982 -0.0614  0.4017
   92PEG    COC 2934  16.164  14.015   4.456  0.0930 -0.1035 -0.2202
   92PEG    COC 2935  15.928  14.064   4.660  0.3219  0.1284 -0.3055
   92PEG    COC 2936  15.975  14.064   4.975  0.0675 -0.0839  0.0546
   92PEG    COC 2937  16.029  13.770   5.105  0.4254  0.0601  0.0940
   92PEG    COC 2938  16.303  13.748   5.331 -0.0524  0.0741 -0.4527
   92PEG    COC 2939  16.207  13.525   5.551  0.4570  0.0602  0.3433
   92PEG    COC 2940  15.963  13.328   5.529 -0.1074 -0.3761  0.1218
   92PEG    COC 2941  15.673  13.414   5.501  0.2167  0.1312  0.1908
   92PEG    COC 2942  15.634  13.569   5.780  0.2115  0.0388  0.6174
   92PEG    COC 2943  15.379  13.664   5.930 -0.1727 -0.3778  0.1072
   92PEG    COC 2944  15.418  13.497   6.208 -0.0582  0.0966 -0.2958
   92PEG    COC 2945  15.582  13.252   6.260 -0.2855 -0.0451 -0.0295
   92PEG    COC 2946  15.808  13.107   6.448  0.4873 -0.0002  0.2618
   92PEG    COC 2947  15.815  13.043   6.740  0.3508 -0.0062  0.0400
   92PEG    COC 2948  15.829  12.836   6.932 -0.0143  0.1056 -0.1672
   92PEG    COC 2949  15.788  12.899   7.230  0.2042 -0.0722 -0.0484
   92PEG    COC 2950  15.842  13.076   7.492  0.1026  0.1093 -0.2751
   92PEG    COC 2951  16.113  13.080   7.572  0.0946  0.0917 -0.2318
   92PEG    COH 2952  16.323  13.113   7.408  0.3644  0.2639  0.0867
   93PEG    COH 2953   6.721   4.642  14.754  0.1560  0.6004  0.2212
   93PEG    COC 2954   6.775   4.412  14.731  0.0830 -0.1215  0.0246
   93PEG    COC 2955   6.555   4.319  14.910  0.1130 -0.0459  0.0713
   93PEG    COC 2956   6.527   4.487  15.181  0.0569 -0.3090 -0.0356
   93PEG    COC 2957   6.714   4.738  15.138 -0.2044 -0.4712 -0.3747
   93PEG    COC 2958   6.778   4.810  15.449 -0.0064  0.7749 -0.4522
   93PEG    COC 2959   6.574   4.676  15.597 -0.3293  0.2064  0.2743
   93PEG    COC 2960   6.562   4.336  15.595  0.0522  0.3279  0.3193
   93PEG    COC 2961   6.325   4.227  15.714  0.3225  0.7749  0.0835
   93PEG    COC 2962   6.070   4.133  15.603 -0.1505  0.0157 -0.3701
   93PEG    COC 2963   5.893   3.985  15.810 -0.2585 -0.1373 -0.3910
   93PEG    COC 2964   5.634   3.796  15.710 -0.0681 -0.1010 -0.1351
   93PEG    COC 2965   5.378   3.707  15.552  0.0876 -0.0163 -0.0580
   93PEG    COC 2966   5.260   3.990  15.460  0.0772 -0.3273 -0.2891
   93PEG    COC 2967   5.286   4.157  15.748  0.3321  0.1134  0.2968
   93PEG    COC 2968   5.517   4.236  15.890 -0.2027 -0.1208  0.2777
   93PEG    COC 2969   5.603   4.360  16.185  0.3597  0.1879  0.0384
   93PEG    COC 2970   5.422   4.594  16.323 -0.0883 -0.0307 -0.1153
   93PEG    COC 2971   5.467   4.796  16.569 -0.0871 -0.0139  0.1362
   93PEG    COC 2972   5.465   5.093  16.574 -0.3673  0.3450 -0.0784
   93PEG    COC 2973   5.452   5.183  16.875 -0.0107  0.1203  0.0557
   93PEG    COC 2974   5.570   5.406  17.035 -0.3005  0.2462  0.2499
   93PEG    COC 2975   5.582   5.320  17.342  0.2205  0.0100  0.0045
   93PEG    COC 2976   5.333   5.281  17.479 -0.0088  0.4302 -0.3538
   93PEG    COC 2977   5.166   5.188  17.239  0.1516  0.2631 -0.1763
   93PEG    COC 2978   5.110   5.379  16.984 -0.0840  0.0025  0.2552
   93PEG    COC 2979   5.196   5.579  16.818  0.3124  0.0233  0.4864
   93PEG    COC 2980   5.285   5.844  16.817  0.1516  0.1766 -0.1230
   93PEG    COC 2981   5.163   6.062  17.053  0.0706 -0.1208  0.1249
   93PEG    COC 2982   5.033   6.090  17.327 -0.4322 -0.1006 -0.0523
   93PEG    COC 2983   4.864   6.329  17.417 -0.0129 -0.2773 -0.0888
   93PEG    COC 2984   4.842   6.522  17.174 -0.0516 -0.0092  0.1844
   93PEG    COC 2985   4.853   6.732  16.976 -0.1983 -0.1279  0.0769
   93PEG    COC 2986   5.047   6.833  16.738  0.0583 -0.0046  0.1302
   93PEG    COC 2987   5.334   6.787  16.736 -0.3688  0.0658  0.0881
   93PEG    COC 2988   5.607   6.704  16.868 -0.2603 -0.0814  0.0423
   93PEG    COC 2989   5.744   6.960  17.044 -0.1206 -0.2498  0.5300
   93PEG    COC 2990   5.992   7.111  17.001  0.1642 -0.0124  0.1732
   93PEG    COC 2991   5.989   7.411  16.850 -0.2418 -0.3693 -0.2107
   93PEG    COC 2992   5.768   7.420  16.691 -0.0757 -0.0314 -0.0789
   93PEG    COC 2993   5.558   7.241  16.716 -0.1702  0.1943  0.0434
   93PEG    COC 2994   5.286   7.420  16.756 -0.0554  0.1306 -0.0549
   93PEG    COC 2995   5.078   7.570  16.680  0.0166 -0.4297  0.0212
   93PEG    COC 2996   4.791   7.466  16.637 -0.1439 -0.1772  0.1484
   93PEG    COC 2997   4.764   7.184  16.559 -0.3197  0.5048  0.0308
   93PEG    COH 2998   5.038   7.171  16.577  0.2213  0.0993  0.1838
   94PEG    COH 2999   4.772  14.736   3.508 -0.0788 -0.2712  0.4154
   94PEG    COC 3000   4.664  14.673   3.731  0.3307  0.2761 -0.1849
   94PEG    COC 3001   4.788  14.447   3.878  0.0593 -0.0697  0.3159
   94PEG    COC 3002   4.748  14.166   3.794  0.0773 -0.0818  0.1531
   94PEG    COC 3003   4.439  14.177   3.753  0.0323 -0.2782 -0.0932
   94PEG    COC 3004   4.330  14.094   3.488  0.1973 -0.3358  0.1085
   94PEG    COC 3005   4.034  14.140   3.465 -0.0052 -0.0392 -0.0980
   94PEG    COC 3006   3.878  14.374   3.572 -0.0792 -0.1190  0.1087
   94PEG    COC 3007   4.043  14.319   3.860 -0.0742 -0.0028 -0.2956
   94PEG    COC 3008   3.973  14.571   4.017 -0.3272  0.1815 -0.3677
   94PEG    COC 3009   4.169  14.790   3.912 -0.3476 -0.0461  0.0186
   94PEG    COC 3010   4.386  14.898   4.061  0.0494  0.0257  0.0028
   94PEG    COC 3011   4.365  15.225   4.001  0.4387  0.0138  0.0543
   94PEG    COC 3012   4.200  15.405   4.163  0.0634 -0.1650  0.1117
   94PEG    COC 3013   4.026  15.631   4.066 -0.3646  0.0871 -0.0384
   94PEG    COC 3014   3.798  15.478   3.917 -0.0652 -0.3746 -0.0431
   94PEG    COC 3015   3.536  15.487   3.761 -0.2730 -0.3585  0.0540
   94PEG    COC 3016   3.417  15.469   3.475  0.4369  0.2858  0.4465
   94PEG    COC 3017   3.718  15.412   3.356 -0.1880  0.3865 -0.1025
   94PEG    COC 3018   3.871  15.647   3.482  0.0530 -0.0362  0.3357
   94PEG    COC 3019   3.742  15.914   3.464 -0.4364 -0.2585 -0.2587
   94PEG    COC 3020   3.934  16.084   3.293 -0.2306  0.3059  0.0210
   94PEG    COC 3021   3.975  16.368   3.442  0.0922 -0.2246  0.2786
   94PEG    COC 3022   4.125  16.364   3.713 -0.0688  0.2454 -0.4517
   94PEG    COC 3023   4.362  16.395   3.892  0.1715  0.0650  0.0538
   94PEG    COC 3024   4.581  16.572   3.831 -0.2248  0.2149  0.1507
   94PEG    COC 3025   4.482  16.727   3.615  0.0025  0.4439 -0.0851
   94PEG    COC 3026   4.424  16.557   3.415  0.1054  0.2390  0.1549
   94PEG    COC 3027   4.558  16.290   3.248  0.4775 -0.2390  0.2445
   94PEG    COC 3028   4.458  16.026   3.329  0.2113 -0.0480 -0.2995
   94PEG    COC 3029   4.538  15.763   3.190 -0.0266  0.5470  0.0070
   94PEG    COC 3030   4.271  15.529   3.157 -0.0444 -0.1879  0.1513
   94PEG    COC 3031   4.200  15.266   3.238 -0.0687  0.3961 -0.0207
   94PEG    COC 3032   4.307  15.007   3.101 -0.3143 -0.0071 -0.1934
   94PEG    COC 3033   4.596  14.916   3.144  0.1577  0.3582 -0.4002
   94PEG    COC 3034   4.697  14.718   2.970  0.1166  0.1026 -0.4187
   94PEG    COC 3035   4.824  14.641   2.719  0.0791  0.0909  0.3970
   94PEG    COC 3036   4.869  14.749   2.452 -0.0052 -0.1421  0.2653
   94PEG    COC 3037   4.720  14.991   2.402 -0.0333  0.0019  0.0413
   94PEG    COC 3038   4.880  15.114   2.174  0.1137 -0.1171 -0.1874
   94PEG    COC 3039   4.980  14.902   2.012 -0.0383  0.0591  0.1272
   94PEG    COC 3040   4.961  14.589   2.018 -0.1188 -0.1801  0.2225
   94PEG    COC 3041   5.198  14.396   2.094 -0.1938  0.2736  0.2913
   94PEG    COC 3042   5.466  14.508   2.056  0.3413 -0.1037 -0.4178
   94PEG    COC 3043   5.602  14.750   2.039  0.2561  0.1116 -0.2091
   94PEG    COH 3044   5.440  14.882   2.208  0.2862  0.4473 -0.2154
   95PEG    COH 3045  14.674   8.189   9.565  0.0156 -0.4423  0.4664
   95PEG    COC 3046  14.872   8.331   9.455  0.0550  0.0138 -0.1825
   95PEG    COC 3047  14.930   8.205   9.172  0.7925  0.1694 -0.1537
   95PEG    COC 3048  14.934   7.912   9.160  0.2048  0.0373 -0.0314
   95PEG    COC 3049  14.900   7.787   8.893  0.2722 -0.4094  0.0752
   95PEG    COC 3050  15.145   7.840   8.739 -0.1444  0.3565 -0.3245
   95PEG    COC 3051  15.191   7.691   8.513  0.1403 -0.1391 -0.5943
   95PEG    COC 3052  14.980   7.613   8.310 -0.0160 -0.0112  0.0361
   95PEG    COC 3053  15.142   7.664   8.051 -0.1457  0.0525  0.3370
   95PEG    COC 3054  14.947   7.678   7.819 -0.2686  0.1517 -0.5639
   95PEG    COC 3055  14.707   7.488   7.799  0.2502  0.0447 -0.5340
   95PEG    COC 3056  14.656   7.447   7.514 -0.1486 -0.0176 -0.1537
   95PEG    COC 3057  14.857   7.250   7.406 -0.1998 -0.3561 -0.0636
   95PEG    COC 3058  15.116   7.158   7.275  0.0260 -0.5147  0.5241
   95PEG    COC 3059  15.160   6.847   7.152  0.0886  0.5812  0.0392
   95PEG    COC 3060  14.841   6.732   7.147 -0.2841  0.0809  0.0058
   95PEG    COC 3061  14.694   6.423   7.186  0.0667  0.2987 -0.3255
   95PEG    COC 3062  14.927   6.244   7.090  0.1450 -0.1483 -0.1758
   95PEG    COC 3063  15.128   6.402   7.241  0.5252 -0.2671  0.2185
   95PEG    COC 3064  15.361   6.209   7.168 -0.3352 -0.0870 -0.0615
   95PEG    COC 3065  15.554   6.025   7.043  0.2342  0.1000 -0.1939
   95PEG    COC 3066  15.445   5.824   6.791  0.0189  0.3266 -0.2135
   95PEG    COC 3067  15.624   5.809   6.596  0.1636  0.4489  0.0754
   95PEG    COC 3068  15.729   6.070   6.528 -0.1814  0.3504 -0.3414
   95PEG    COC 3069  15.942   6.206   6.350  0.0289  0.0356  0.1229
   95PEG    COC 3070  15.847   6.475   6.292  0.2183  0.1334 -0.0774
   95PEG    COC 3071  15.835   6.734   6.481  0.2531  0.0416 -0.5133
   95PEG    COC 3072  15.785   7.030   6.453 -0.1252 -0.1841  0.0372
   95PEG    COC 3073  15.961   7.232   6.551 -0.1309  0.1890 -0.3497
   95PEG    COC 3074  15.867   7.412   6.800  0.3234  0.2732  0.1825
   95PEG    COC 3075  15.651   7.666   6.847 -0.0428  0.3478  0.2436
   95PEG    COC 3076  15.321   7.639   6.906 -0.2057  0.1505 -0.1840
   95PEG    COC 3077  15.288   7.594   7.208 -0.3022  0.0004  0.3823
   95PEG    COC 3078  15.571   7.660   7.254 -0.0132 -0.0380 -0.2232
   95PEG    COC 3079  15.628   7.527   7.497  0.1834 -0.1477  0.0151
   95PEG    COC 3080  15.800   7.725   7.673 -0.4266 -0.2131  0.0351
   95PEG    COC 3081  15.967   7.754   7.926  0.5921 -0.1401 -0.1204
   95PEG    COC 3082  15.821   7.882   8.182  0.1649 -0.2776 -0.3424
   95PEG    COC 3083  15.503   7.879   8.103 -0.1337 -0.1336 -0.0361
   95PEG    COC 3084  15.294   8.041   8.272 -0.2269  0.1845 -0.2149
   95PEG    COC 3085  15.360   8.240   8.502 -0.3832  0.2197 -0.0340
   95PEG    COC 3086  15.474   8.516   8.609  0.3084 -0.2182 -0.1454
   95PEG    COC 3087  15.308   8.761   8.534 -0.1021  0.2090  0.0492
   95PEG    COC 3088  15.533   8.849   8.301  0.1470  0.3105  0.0598
   95PEG    COC 3089  15.405   8.912   8.042  0.1843 -0.1288  0.2363
   95PEG    COH 3090  15.256   8.776   7.854  0.4051 -0.4551  0.3560
   96PEG    COH 3091  15.197  14.394  16.401 -0.1670  0.3167  0.1418
   96PEG    COC 3092  15.150  14.284  16.677  0.1853 -0.3061  0.0896
   96PEG    COC 3093  15.139  14.193  16.947  0.0812  0.1178  0.0478
   96PEG    COC 3094  14.870  14.188  17.017  0.0693 -0.1999 -0.0394
   96PEG    COC 3095  14.625  14.187  16.815  0.2297 -0.1557 -0.2225
   96PEG    COC 3096  14.355  14.148  16.933 -0.0364 -0.2285  0.0638
   96PEG    COC 3097  14.144  13.916  16.822 -0.0242  0.3745 -0.0568
   96PEG    COC 3098  13.882  14.067  16.885  0.1266  0.0665  0.0660
   96PEG    COC 3099  13.974  14.320  16.714  0.2718 -0.2326  0.0441
   96PEG    COC 3100  14.030  14.403  16.449  0.1149  0.1288 -0.2397
   96PEG    COC 3101  13.883  14.268  16.255  0.3060 -0.1887  0.5630
   96PEG    COC 3102  14.040  14.047  16.099 -0.0920 -0.0485 -0.0315
   96PEG    COC 3103  13.950  13.756  16.071  0.0650 -0.0319  0.4123
   96PEG    COC 3104  13.906  13.694  15.767 -0.1789  0.2033 -0.3454
   96PEG    COC 3105  13.636  13.688  15.609  0.1249 -0.2654 -0.2024
   96PEG    COC 3106  13.656  13.539  15.318 -0.4547  0.4552  0.0638
   96PEG    COC 3107  13.573  13.679  15.096 -0.2040  0.0117  0.2524
   96PEG    COC 3108  13.355  13.824  14.916 -0.2482 -0.2466  0.0646
   96PEG    COC 3109  13.150  14.041  15.043  0.1623  0.0181 -0.0799
   96PEG    COC 3110  13.100  14.248  15.278 -0.3093  0.4205  0.0354
   96PEG    COC 3111  13.248  14.360  15.504 -0.2632  0.4052  0.0863
   96PEG    COC 3112  13.102  14.500  15.729 -0.0713 -0.2320  0.3958
   96PEG    COC 3113  13.043  14.340  15.985 -0.2063 -0.5987  0.2052
   96PEG    COC 3114  13.047  14.087  16.106 -0.3242  0.5282 -0.3158
   96PEG    COC 3115  12.824  13.942  16.009  0.0365  0.1786  0.2107
   96PEG    COC 3116  12.526  14.026  15.939 -0.2461 -0.0126 -0.0271
   96PEG    COC 3117  12.491  14.322  15.961 -0.0382 -0.5326  0.3249
   96PEG    COC 3118  12.606  14.499  15.717  0.4819 -0.2477  0.0147
   96PEG    COC 3119  12.354  14.668  15.630 -0.0068  0.1311  0.0071
   96PEG    COC 3120  12.354  14.836  15.873 -0.0185  0.0135 -0.1898
   96PEG    COC 3121  12.158  15.052  15.950 -0.0992 -0.1258 -0.1436
   96PEG    COC 3122  12.407  15.209  16.026  0.2614 -0.3625 -0.1952
   96PEG    COC 3123  12.690  15.219  16.183 -0.0627 -0.1400 -0.3355
   96PEG    COC 3124  12.808  14.939  16.246  0.1651 -0.1130  0.1105
   96PEG    COC 3125  12.750  14.641  16.107  0.2456 -0.0480 -0.3147
   96PEG    COC 3126  12.674  14.447  16.319  0.1397  0.1165 -0.0601
   96PEG    COC 3127  12.696  14.574  16.565  0.4690 -0.0340 -0.6176
   96PEG    COC 3128  12.551  14.830  16.616 -0.4128 -0.1560 -0.0943
   96PEG    COC 3129  12.457  15.005  16.427  0.2938  0.1667 -0.0738
   96PEG    COC 3130  12.165  15.038  16.407  0.0293 -0.2065 -0.0370
   96PEG    COC 3131  12.208  15.348  16.383  0.1913 -0.2284 -0.0115
   96PEG    COC 3132  12.084  15.463  16.134 -0.1022  0.2857  0.1363
   96PEG    COC 3133  11.780  15.426  16.118  0.0926 -0.3904  0.0959
   96PEG    COC 3134  11.785  15.129  16.150 -0.1186 -0.4496  0.0092
   96PEG    COC 3135  11.801  14.812  16.137 -0.1688 -0.0233 -0.0088
   96PEG    COH 3136  11.523  14.833  16.163  0.1831 -0.2402 -0.4438
   97PEG    COH 3137   9.178  14.881   1.289 -0.3485 -0.0201 -0.3653
   97PEG    COC 3138   9.010  15.038   1.191  0.3027 -0.4111  0.1367
   97PEG    COC 3139   8.928  15.328   1.315 -0.2554  0.2309  0.6627
   97PEG    COC 3140   9.019  15.525   1.142 -0.2952  0.1063  0.2384
   97PEG    COC 3141   8.874  15.637   0.870 -0.0671  0.3648  0.4935
   97PEG    COC 3142   8.751  15.374   0.746 -0.1599 -0.0652 -0.2325
   97PEG    COC 3143   8.889  15.103   0.787  0.2628 -0.3388 -0.1725
   97PEG    COC 3144   8.881  14.794   0.772 -0.0850  0.2753 -0.0690
   97PEG    COC 3145   8.648  14.613   0.892  0.3843  0.0351 -0.0571
   97PEG    COC 3146   8.425  14.420   0.781 -0.3512 -0.5607  0.2279
   97PEG    COC 3147   8.242  14.187   0.849 -0.2261 -0.0286  0.2167
   97PEG    COC 3148   7.994  14.296   0.825 -0.1121  0.5333 -0.2112
   97PEG    COC 3149   7.798  14.501   0.948  0.2869 -0.1516  0.3644
   97PEG    COC 3150   7.594  14.439   1.194 -0.2291 -0.2017  0.0588
   97PEG    COC 3151   7.384  14.560   1.321 -0.1345 -0.3205  0.1344
   97PEG    COC 3152   7.116  14.701   1.322 -0.1703 -0.2030  0.0456
   97PEG    COC 3153   6.919  14.491   1.250 -0.3216 -0.0534  0.0713
   97PEG    COC 3154   6.725  14.293   1.155  0.1349  0.0515  0.2611
   97PEG    COC 3155   6.898  14.030   1.208 -0.0224 -0.2014  0.1026
   97PEG    COC 3156   7.140  13.924   1.049 -0.0553 -0.0809  0.0813
   97PEG    COC 3157   7.334  14.101   0.892 -0.0501 -0.0618 -0.3820
   97PEG    COC 3158   7.619  13.982   0.788  0.2451 -0.0894 -0.1613
   97PEG    COC 3159   7.563  14.183   0.552  0.0511  0.1515  0.0017
   97PEG    COC 3160   7.749  14.128   0.321 -0.2525 -0.1269 -0.1732
   97PEG    COC 3161   7.881  13.874   0.223  0.1375  0.0565  0.0536
   97PEG    COC 3162   7.974  13.951  -0.060 -0.4376  0.1183 -0.3566
   97PEG    COC 3163   7.723  14.015  -0.211  0.1507  0.1448 -0.1797
   97PEG    COC 3164   7.588  14.267  -0.049 -0.1285  0.0531  0.1941
   97PEG    COC 3165   7.491  14.502  -0.212  0.0809 -0.1354  0.1197
   97PEG    COC 3166   7.488  14.733  -0.408 -0.0259 -0.1731 -0.1580
   97PEG    COC 3167   7.746  14.879  -0.470  0.0348 -0.0426 -0.0953
   97PEG    COC 3168   7.727  15.179  -0.505  0.0078 -0.1181  0.2726
   97PEG    COC 3169   7.539  15.381  -0.482 -0.0648  0.2639  0.2353
   97PEG    COC 3170   7.429  15.504  -0.760 -0.6078 -0.0602  0.3049
   97PEG    COC 3171   7.431  15.788  -0.760 -0.2075 -0.3420 -0.2305
   97PEG    COC 3172   7.469  16.066  -0.649 -0.0409 -0.1877 -0.0918
   97PEG    COC 3173   7.690  16.254  -0.657 -0.0006  0.1117  0.1570
   97PEG    COC 3174   7.883  16.309  -0.412  0.0750 -0.2577 -0.3055
   97PEG    COC 3175   7.884  16.614  -0.268 -0.5356 -0.1509 -0.1107
   97PEG    COC 3176   8.133  16.725  -0.106 -0.2710 -0.0394  0.1348
   97PEG    COC 3177   8.435  16.737  -0.065  0.0056 -0.1190  0.4280
   97PEG    COC 3178   8.620  16.924   0.072 -0.0458 -0.0571  0.0990
   97PEG    COC 3179   8.688  17.153   0.246 -0.0921  0.1713 -0.2302
   97PEG    COC 3180   8.907  17.034   0.397 -0.1278 -0.3972  0.3433
   97PEG    COC 3181   8.994  16.733   0.449 -0.1281 -0.2310  0.0733
   97PEG    COH 3182   9.048  16.732   0.714  0.1841  0.4112  0.3310
   98PEG    COH 3183  15.789   8.957  17.363  0.3868  0.4157 -0.0539
   98PEG    COC 3184  15.990   9.056  17.522 -0.1761 -0.1228 -0.1705
   98PEG    COC 3185  16.261   8.962  17.660 -0.0487 -0.0087 -0.3389
   98PEG    COC 3186  16.304   8.980  17.964  0.2009  0.0475 -0.1152
   98PEG    COC 3187  16.339   9.251  18.096 -0.1399  0.0688  0.0994
   98PEG    COC 3188  16.636   9.295  18.060 -0.5416 -0.3437 -0.3601
   98PEG    COC 3189  16.868   9.210  18.263  0.0030 -0.1536 -0.0527
   98PEG    COC 3190  17.078   9.443  18.293  0.0066  0.1675  0.2569
   98PEG    COC 3191  16.973   9.594  18.057  0.0334 -0.0723 -0.0057
   98PEG    COC 3192  17.097   9.871  17.980  0.1573  0.0723  0.1656
   98PEG    COC 3193  16.923   9.919  17.732 -0.3347 -0.1564 -0.3657
   98PEG    COC 3194  16.658   9.755  17.706 -0.1759  0.3552 -0.2768
   98PEG    COC 3195  16.459   9.677  17.922 -0.1107  0.2308  0.0246
   98PEG    COC 3196  16.218   9.505  17.766  0.0632 -0.2553 -0.0402
   98PEG    COC 3197  15.920   9.619  17.678 -0.0609  0.0503  0.3016
   98PEG    COC 3198  15.828   9.878  17.855  0.1263 -0.2330 -0.3094
   98PEG    COC 3199  15.858  10.187  17.739  0.1071  0.0955 -0.0054
   98PEG    COC 3200  15.654  10.412  17.716 -0.1743  0.3085 -0.0970
   98PEG    COC 3201  15.459  10.338  17.940  0.2851 -0.3353  0.2860
   98PEG    COC 3202  15.341  10.585  18.026  0.2231  0.0643 -0.2229
   98PEG    COC 3203  15.558  10.665  18.216  0.2796  0.1206 -0.6989
   98PEG    COC 3204  15.622  10.972  18.232 -0.1423 -0.2771 -0.2234
   98PEG    COC 3205  15.634  11.167  18.466  0.4605 -0.2904  0.3357
   98PEG    COC 3206  15.800  11.435  18.558  0.2383 -0.1872  0.3072
   98PEG    COC 3207  15.651  11.633  18.711  0.3532  0.0694  0.0725
   98PEG    COC 3208  15.393  11.581  18.911 -0.1705  0.2847 -0.0741
   98PEG    COC 3209  15.122  11.716  18.839  0.1304  0.1827  0.2156
   98PEG    COC 3210  14.956  11.766  19.123 -0.2503 -0.0032  0.0856
   98PEG    COC 3211  14.940  11.507  19.303  0.0910 -0.3773  0.3758
   98PEG    COC 3212  15.209  11.374  19.421 -0.0169  0.3498  0.4559
   98PEG    COC 3213  15.480  11.340  19.288  0.3440  0.3581  0.1315
   98PEG    COC 3214  15.718  11.534  19.297 -0.1281  0.0410 -0.0150
   98PEG    COC 3215  15.847  11.807  19.184  0.0948 -0.0522  0.0622
   98PEG    COC 3216  16.159  11.910  19.243 -0.1111 -0.3765 -0.2815
   98PEG    COC 3217  16.333  11.636  19.262 -0.0146  0.0906 -0.1214
   98PEG    COC 3218  16.182  11.400  19.164 -0.0994  0.2841  0.0032
   98PEG    COC 3219  16.073  11.434  18.893 -0.0842  0.0863  0.0874
   98PEG    COC 3220  16.186  11.196  18.716  0.0287  0.4596  0.2830
   98PEG    COC 3221  16.005  10.953  18.695 -0.0369 -0.0603  0.0609
   98PEG    COC 3222  16.000  10.794  18.436  0.0781  0.3357 -0.1114
   98PEG    COC 3223  15.839  10.516  18.507  0.0606 -0.1781  0.7151
   98PEG    COC 3224  15.607  10.614  18.697 -0.0512  0.3824 -0.1098
   98PEG    COC 3225  15.579  10.548  19.006 -0.0221  0.1984 -0.2504
   98PEG    COC 3226  15.709  10.729  19.225  0.2345 -0.0919  0.0276
   98PEG    COC 3227  15.932  10.647  19.439  0.0330  0.2807  0.1090
   98PEG    COH 3228  15.785  10.632  19.642  0.0721  0.6209 -0.5194
   99PEG    COH 3229   4.990   6.693   4.998  0.5699 -0.1834 -0.2778
   99PEG    COC 3230   5.000   6.853   4.783  0.0933  0.1797  0.0322
   99PEG    COC 3231   4.768   6.892   4.602 -0.6307 -0.1022  0.1691
   99PEG    COC 3232   4.512   7.053   4.739 -0.0712  0.0093  0.2543
   99PEG    COC 3233   4.476   7.098   4.994  0.0662  0.1757  0.0907
   99PEG    COC 3234   4.622   6.962   5.242 -0.2141 -0.3061  0.4807
   99PEG    COC 3235   4.944   7.011   5.235 -0.2887  0.2058  0.0774
   99PEG    COC 3236   5.112   7.207   5.392  0.3497 -0.1302 -0.0392
   99PEG    COC 3237   5.395   7.319   5.340 -0.1309 -0.2790 -0.0644
   99PEG    COC 3238   5.545   7.446   5.585  0.0302  0.1058 -0.2361
   99PEG    COC 3239   5.613   7.295   5.867  0.3354 -0.5730  0.0591
   99PEG    COC 3240   5.376   7.399   6.109 -0.2253 -0.2236 -0.1621
   99PEG    COC 3241   5.443   7.327   6.412  0.1922 -0.1005  0.0360
   99PEG    COC 3242   5.293   7.382   6.650  0.3151 -0.0516  0.0687
   99PEG    COC 3243   5.020   7.466   6.749 -0.1433  0.2823  0.2355
   99PEG    COC 3244   4.978   7.492   7.040 -0.2289 -0.1046  0.0172
   99PEG    COC 3245   4.692   7.351   7.096 -0.1694  0.0594 -0.2848
   99PEG    COC 3246   4.548   7.097   7.049  0.0439  0.2100  0.2437
   99PEG    COC 3247   4.465   7.007   7.332 -0.4736 -0.2903 -0.1792
   99PEG    COC 3248   4.714   6.981   7.475  0.0633  0.0593 -0.3872
   99PEG    COC 3249   4.774   6.637   7.582 -0.0196  0.0188  0.0706
   99PEG    COC 3250   4.589   6.516   7.810  0.1155  0.2255  0.0355
   99PEG    COC 3251   4.539   6.208   7.901  0.2097 -0.0603 -0.0289
   99PEG    COC 3252   4.437   6.111   8.197 -0.0838 -0.0477  0.1618
   99PEG    COC 3253   4.118   6.139   8.240 -0.0520  0.1156 -0.4744
   99PEG    COC 3254   3.992   6.164   7.972  0.2335 -0.0457 -0.4538
   99PEG    COC 3255   3.702   6.246   7.938  0.1177 -0.1277  0.0382
   99PEG    COC 3256   3.594   5.979   7.986 -0.0169 -0.2742 -0.2732
   99PEG    COC 3257   3.719   5.739   7.910  0.2234  0.2814  0.1083
   99PEG    COC 3258   3.956   5.644   7.896 -0.4342 -0.3557  0.2977
   99PEG    COC 3259   4.059   5.423   8.046  0.1116  0.2578  0.4354
   99PEG    COC 3260   3.881   5.417   8.328 -0.1973 -0.1301 -0.3103
   99PEG    COC 3261   3.842   5.760   8.335  0.1675 -0.1183  0.1688
   99PEG    COC 3262   3.614   5.913   8.465  0.3544 -0.5427  0.1722
   99PEG    COC 3263   3.308   5.948   8.419  0.2440 -0.5253  0.1196
   99PEG    COC 3264   3.223   6.221   8.295 -0.4026  0.2350 -0.2404
   99PEG    COC 3265   3.394   6.444   8.166 -0.0152  0.3301  0.3252
   99PEG    COC 3266   3.518   6.657   8.357  0.7421  0.0960 -0.1592
   99PEG    COC 3267   3.285   6.886   8.372  0.3827 -0.2490  0.0360
   99PEG    COC 3268   3.038   6.852   8.573 -0.4033 -0.0393  0.2544
   99PEG    COC 3269   2.800   6.991   8.497  0.0969  0.0060 -0.2451
   99PEG    COC 3270   2.633   7.203   8.658  0.3805 -0.3263  0.4025
   99PEG    COC 3271   2.470   7.416   8.551  0.1662  0.2201 -0.4027
   99PEG    COC 3272   2.190   7.478   8.596 -0.4980  0.4215 -0.0475
   99PEG    COC 3273   2.048   7.581   8.857 -0.0882 -0.2008  0.0401
   99PEG    COH 3274   1.838   7.750   8.790 -0.4025  0.4404 -0.0843
  100PEG    COH 3275  17.961   3.868  12.476 -0.1362  0.2411  0.3941
  100PEG    COC 3276  18.045   3.886  12.708  0.0723 -0.0844 -0.0614
  100PEG    COC 3277  18.350   3.879  12.750 -0.1053 -0.1868  0.2170
  100PEG    COC 3278  18.572   3.610  12.738 -0.3479 -0.2375  0.0291
  100PEG    COC 3279  18.512   3.539  12.980  0.4312  0.3073 -0.2230
  100PEG    COC 3280  18.345   3.641  13.164  0.0673  0.1154  0.0970
  100PEG    COC 3281  18.087   3.660  13.072  0.0914  0.2863  0.1292
  100PEG    COC 3282  17.867   3.691  13.269  0.0503 -0.2997  0.0103
  100PEG    COC 3283  17.836   3.465  13.510 -0.1427  0.2699 -0.0835
  100PEG    COC 3284  17.587   3.328  13.388 -0.0186  0.0839  0.3204
  100PEG    COC 3285  17.689   3.369  13.099  0.1875 -0.1146  0.0533
  100PEG    COC 3286  17.945   3.257  12.964  0.3100 -0.0438  0.0064
  100PEG    COC 3287  17.853   2.999  13.086 -0.0344 -0.0145  0.0706
  100PEG    COC 3288  17.662   2.768  12.927 -0.0693 -0.0489 -0.3577
  100PEG    COC 3289  17.479   2.534  12.953  0.0978 -0.2144  0.2665
  100PEG    COC 3290  17.395   2.372  12.728  0.1218  0.0409  0.1028
  100PEG    COC 3291  17.369   2.105  12.885 -0.4983  0.1068  0.2937
  100PEG    COC 3292  17.364   2.175  13.177 -0.3423 -0.1067 -0.3149
  100PEG    COC 3293  17.145   2.397  13.172  0.2824  0.3140 -0.4041
  100PEG    COC 3294  16.967   2.313  12.926 -0.0613 -0.0950 -0.2836
  100PEG    COC 3295  16.762   2.100  12.898  0.0005 -0.0488 -0.1695
  100PEG    COC 3296  16.552   2.028  13.105 -0.0280 -0.1470  0.0928
  100PEG    COC 3297  16.277   1.967  13.063 -0.1618  0.2020  0.2163
  100PEG    COC 3298  16.030   1.850  13.165  0.0301  0.0690  0.1663
  100PEG    COC 3299  15.935   2.037  13.347 -0.2025 -0.0464  0.2825
  100PEG    COC 3300  15.617   2.024  13.256  0.2788 -0.2500  0.0051
  100PEG    COC 3301  15.429   2.288  13.221 -0.0136 -0.4548 -0.0674
  100PEG    COC 3302  15.136   2.344  13.123 -0.2295  0.0628  0.6868
  100PEG    COC 3303  14.929   2.310  13.355 -0.1568  0.1226  0.3124
  100PEG    COC 3304  14.626   2.267  13.356 -0.2877 -0.1577  0.2689
  100PEG    COC 3305  14.471   2.475  13.180  0.1808 -0.1004 -0.0151
  100PEG    COC 3306  14.686   2.552  12.957 -0.4884  0.1642  0.3383
  100PEG    COC 3307  14.655   2.760  12.694 -0.4567 -0.0052 -0.1479
  100PEG    COC 3308  14.521   2.547  12.521  0.0191  0.3299 -0.0505
  100PEG    COC 3309  14.656   2.275  12.496 -0.2262  0.0267 -0.0233
  100PEG    COC 3310  14.517   2.101  12.288 -0.2069  0.4039 -0.0106
  100PEG    COC 3311  14.583   1.980  12.058 -0.0073  0.1044  0.0552
  100PEG    COC 3312  14.864   2.082  11.950  0.3082  0.1580 -0.4466
  100PEG    COC 3313  15.076   2.025  11.814 -0.1362  0.4053  0.0940
  100PEG    COC 3314  14.991   1.825  11.618  0.0835  0.3567 -0.1694
  100PEG    COC 3315  15.071   1.524  11.582 -0.2668  0.2837  0.3127
  100PEG    COC 3316  15.070   1.401  11.277 -0.0941 -0.0669 -0.1866
  100PEG    COC 3317  15.086   1.111  11.134  0.1474  0.5152  0.1924
  100PEG    COC 3318  15.377   0.978  11.052 -0.2339 -0.1062  0.0003
  100PEG    COC 3319  15.564   0.936  11.269  0.0965  0.0572 -0.1767
  100PEG    COH 3320  15.840   0.932  11.300 -0.0583  0.1208  0.4590
  101W        W 3321  18.198   2.309   8.557  0.1478 -0.1091 -0.3986
  102W        W 3322   8.733   1.573   2.111  0.1355 -0.1655  0.3406
  103W        W 3323   5.208   3.756  11.258  0.2546 -0.0588 -0.1563
  104W        W 3324   6.527   7.898  17.349  0.1355 -0.0640 -0.0831
  105W        W 3325   0.134  13.487   3.565 -0.2100 -0.1892 -0.2314
  106W        W 3326  16.896  10.589   0.774  0.2747  0.1430 -0.1486
  107W        W 3327   2.366   3.664  16.034 -0.0519 -0.0211  0.4096
  108W        W 3328   0.772   1.512  14.762  0.2310 -0.0454 -0.0545
  109W        W 3329  17.949   5.406   7.285 -0.2134 -0.0169  0.1403
  110W        W 3330  10.626   9.845   2.144  0.1983  0.1850  0.0243
  111W        W 3331   6.457   0.451   5.652  0.1030 -0.0316 -0.2078
  112W        W 3332   4.077  15.977  17.019 -0.4523  0.0990 -0.2273
  113W        W 3333   2.826   3.162   5.145  0.1052  0.0678 -0.1807
  114W        W 3334   5.644   8.718   4.425  0.4411 -0.1918  0.1192
  115W        W 3335   1.393   0.345  15.646  0.0036  0.0752 -0.4093
  116W        W 3336   4.187  11.518   7.767  0.1088  0.2315  0.1002
  117W        W 3337   0.739   4.615   6.903 -0.0080 -0.1783 -0.0402
  118W        W 3338  13.193   8.251  14.731 -0.3496  0.2781 -0.0952
  119W        W 3339   9.967   6.802   5.686  0.0026  0.1704  0.0812
  120W        W 3340  15.459   6.089  18.227  0.0769  0.0462 -0.1334
  121W        W 3341   4.460   5.369  14.656 -0.0589  0.1778  0.1362
  122W        W 3342  16.342   3.453   0.316  0.2559  0.0463 -0.1577
  123W        W 3343  11.451  11.368  15.526  0.0506 -0.3507  0.3304
  124W        W 3344   1.496   3.065  16.572  0.2491 -0.1018  0.0481
  125W        W 3345   3.405   0.369   3.572 -0.0332 -0.1607 -0.0308
  126W        W 3346   1.997   5.440  10.128 -0.0091 -0.0576  0.1255
  127W        W 3347  18.090  13.699  16.071  0.0511 -0.1910  0.2792
  128W        W 3348  16.523   6.109  15.446  0.0609  0.1741  0.1402
  129W        W 3349   7.823  15.474   1.138 -0.0811  0.2392  0.0340
  130W        W 3350  17.433  12.033   5.715 -0.2859  0.0673 -0.1106
  131W        W 3351  16.410  17.752   3.430 -0.0516 -0.0071  0.2656
  132W        W 3352  17.219  12.266   8.177 -0.1072  0.0373  0.1020
  133W        W 3353   5.967   1.336   1.904  0.0081 -0.0247 -0.0460
  134W        W 3354  17.765  15.530   3.638  0.0810 -0.2734  0.0311
  135W        W 3355   7.958  15.596  12.369 -0.0205  0.1507  0.1313
  136W        W 3356   2.726   8.839  13.488  0.0524 -0.3419  0.2270
  137W        W 3357   2.109   2.317  15.244 -0.2063 -0.0604 -0.0536
  138W        W 3358  18.209   7.499   2.490 -0.2334  0.1530  0.2955
  139W        W 3359   2.913  17.678   3.166 -0.0547  0.1490  0.1924
  140W        W 3360   3.190   3.687   3.304 -0.1858  0.2367 -0.1062
  141W        W 3361  15.980   4.244   5.258 -0.0934 -0.1441 -0.0910
  142W        W 3362  17.544   0.251   3.947  0.0917 -0.0021 -0.1669
  143W        W 3363   4.060   3.497  16.195  0.0299  0.1793 -0.0371
  144W        W 3364  16.577   3.642  17.462 -0.0043  0.0975 -0.0030
  145W        W 3365  17.775   4.540  18.263  0.0227 -0.0537  0.0350
  146W        W 3366  12.982   4.144  16.826 -0.0742 -0.1445  0.1939
  147W        W 3367   7.244  10.666  18.016  0.1265  0.0212  0.0359
  148W        W 3368   3.378  12.923   7.040 -0.1110 -0.1886  0.0128
  149W        W 3369  18.260   8.046   2.533 -0.1003 -0.0887 -0.2832
  150W        W 3370   2.376   2.885  17.578  0.0755  0.0994  0.2518
  151W        W 3371   3.675  14.297   5.038 -0.3284  0.5419 -0.0202
  152W        W 3372  12.457  17.528   0.040  0.2389 -0.1338  0.0103
  153W        W 3373   7.836   1.390   1.485  0.1180  0.1472 -0.1045
  154W        W 3374  16.966  10.843   0.049 -0.0738  0.1191  0.1526
  155W        W 3375   2.507   0.037   0.997 -0.0210 -0.2377  0.0062
  156W        W 3376  14.718   5.924   6.312  0.2070 -0.4071 -0.0722
  157W        W 3377  16.698   8.405   4.959  0.2441 -0.0361 -0.1543
  158W        W 3378   1.873   0.524   0.016  0.1350 -0.1278  0.1789
  159W        W 3379  17.798   8.235  17.874 -0.0193 -0.0562  0.1780
  160W        W 3380   3.484  14.614  17.111  0.0573 -0.0132  0.3083
  161W        W 3381   5.577  18.085   0.409  0.2307  0.0429  0.3866
  162W        W 3382  14.000   5.052   0.116  0.1329 -0.0698  0.1161
  163W        W 3383  15.926   3.313   0.905 -0.0816 -0.0019  0.0085
  164W        W 3384  12.124   2.470   8.451  0.0027 -0.2906 -0.1011
  165W        W 3385   1.296  10.941   5.998 -0.3934 -0.1081 -0.2216
  166W        W 3386   8.069   0.525  16.658 -0.1938  0.0882  0.2767
  167W        W 3387  15.470   5.440   3.511  0.0795 -0.0974  0.0865
  168W        W 3388   2.629  14.965  17.152 -0.1126  0.0469  0.2801
  169W        W 3389  15.283   7.245  16.000  0.1250  0.2141  0.2331
  170W        W 3390   1.098   4.203   5.774  0.0978 -0.0742 -0.1639
  171W        W 3391   2.014   3.414  16.683 -0.0560  0.1884 -0.0638
  172W        W 3392   3.165   4.332   0.142  0.1531 -0.1986  0.1537
  173W        W 3393   4.529  14.445  14.215 -0.0388 -0.1189  0.3323
  174W        W 3394  17.729  17.367   1.125 -0.2111  0.0051 -0.1879
  175W        W 3395   1.421   3.392   3.016  0.1826  0.3500  0.0537
  176W        W 3396   1.864   4.455   5.452  0.3071 -0.2230  0.4291
  177W        W 3397  12.911   4.190  12.460  0.1124  0.0566 -0.4465
  178W        W 3398   2.560   1.421   7.261 -0.2732  0.0407 -0.0819
  179W        W 3399   3.437  15.037  18.182  0.1379 -0.0410  0.1424
  180W        W 3400   9.938  17.110  15.760 -0.1021  0.2287  0.0414
  181W        W 3401  10.972  12.729  16.853  0.1095  0.0796 -0.2242
  182W        W 3402  16.962  16.821   4.369 -0.0501  0.0748  0.1181
  183W        W 3403   1.754   1.762  11.286 -0.3932 -0.0087 -0.1890
  184W        W 3404  13.022   4.390   5.749 -0.2270  0.0756 -0.1563
  185W        W 3405   1.453   4.162   0.872  0.0051 -0.2253  0.1750
  186W        W 3406  17.166   1.515   1.261 -0.1135  0.0699 -0.2182
  187W        W 3407   3.385   2.067   4.871 -0.0685 -0.3286  0.0259
  188W        W 3408   0.894  15.914   4.592  0.0401  0.0669  0.2263
  189W        W 3409   3.419   0.068   0.560 -0.2621  0.0348  0.1556
  190W        W 3410   5.013  18.011   1.846 -0.1083  0.1343  0.0843
  191W        W 3411   3.324   4.367  13.434  0.0555 -0.2691  0.1882
  192W        W 3412   3.311  11.725  17.112 -0.1503 -0.1298 -0.0230
  193W        W 3413   0.908   5.885  13.727 -0.2662 -0.0681  0.0306
  194W        W 3414   0.496  17.933  14.943 -0.0670 -0.0742  0.1584
  195W        W 3415  16.410   1.820   7.024  0.0811  0.4283  0.0956
  196W        W 3416   5.593  16.386   0.398  0.0855  0.1017 -0.3904
  197W        W 3417   8.340   5.126   2.451  0.1757 -0.4438  0.0185
  198W        W 3418  15.704   1.560   0.187  0.3083  0.0767  0.1078
  199W        W 3419   3.475   5.886   5.846  0.0061  0.0254  0.0313
  200W        W 3420   0.742  18.220   0.470 -0.1084 -0.0013  0.1155
  201W        W 3421  13.236   3.419   3.085 -0.0162  0.2218  0.1324
  202W        W 3422   0.644   0.854   0.960  0.2117 -0.3329 -0.1657
  203W        W 3423  15.597   4.696   3.011  0.1746 -0.0544  0.1833
  204W        W 3424   8.906   0.178   2.100  0.0891  0.0619  0.2357
  205W        W 3425   4.213  14.665   3.413  0.1366  0.0265  0.1606
  206W        W 3426   6.421   5.815  14.767  0.0205 -0.1360 -0.1335
  207W        W 3427  17.988  15.288   1.883  0.1543 -0.0952 -0.1525
  208W        W 3428   7.717  15.479  10.144 -0.0688 -0.0449 -0.0776
  209W        W 3429   2.850   4.676   0.386 -0.4563  0.0739 -0.0120
  210W        W 3430  15.637   4.807   2.057  0.0356 -0.1809  0.2232
  211W        W 3431   1.081   1.877  16.908 -0.2058  0.1728  0.2339
  212W        W 3432  10.807   3.890   8.470  0.2547  0.0261 -0.1025
  213W        W 3433  15.806   4.812   1.184  0.1750  0.0713 -0.2889
  214W        W 3434   3.681   3.813  15.766  0.0290 -0.4427  0.0319
  215W        W 3435  10.935  18.212   3.423 -0.2477 -0.1938 -0.0360
  216W        W 3436   9.082  16.934  16.514  0.0782 -0.1508 -0.3352
  217W        W 3437  17.928  14.876  18.233  0.1709  0.2154 -0.2803
  218W        W 3438  14.864   5.115  10.579  0.3268 -0.0031  0.0961
  219W        W 3439   4.297   2.543  17.331 -0.0501 -0.0257  0.4131
  220W        W 3440   5.386  17.094   1.686  0.3095  0.0911 -0.1094
  221W        W 3441  17.170   1.984  16.591  0.2082 -0.0435  0.2347
  222W        W 3442   1.578   0.721   7.320 -0.0387  0.3297  0.0612
  223W        W 3443   6.918  18.054   7.649 -0.1671 -0.3081 -0.4027
  224W        W 3444   0.837   5.684  18.167 -0.2811  0.1162  0.1057
  225W        W 3445   1.013   0.290   1.584  0.1224  0.0807 -0.0184
  226W        W 3446   6.061   4.876   0.444  0.0441 -0.0850  0.1422
  227W        W 3447   0.323  17.948   0.496  0.0590  0.1507  0.0093
  228W        W 3448   3.645   2.845  17.031 -0.0078  0.2924 -0.0890
  229W        W 3449   3.650   2.280   2.000  0.0795  0.3035  0.1159
  230W        W 3450   4.423  17.727   5.949  0.2494  0.0614  0.0790
  231W        W 3451   6.721  16.876   2.703 -0.0318  0.3168  0.4645
  232W        W 3452  13.464   0.820   0.678  0.3263  0.0074  0.2243
  233W        W 3453   5.781   1.925   4.152 -0.2412 -0.1481 -0.0412
  234W        W 3454   2.651   5.708  17.412 -0.0695 -0.2327  0.2233
  235W        W 3455  16.762   7.148  14.946  0.0254 -0.3545 -0.2053
  236W        W 3456   0.120  14.949  18.019  0.1104  0.1245 -0.0500
  237W        W 3457   0.848  17.473   3.899  0.0869  0.0289  0.2867
  238W        W 3458   2.124   2.415  17.563  0.4532 -0.3654 -0.2979
  239W        W 3459  11.353   9.845  17.434 -0.1868 -0.1346  0.3684
  240W        W 3460   0.689   4.164  17.417 -0.1502 -0.1025 -0.2776
  241W        W 3461   3.466   3.512   2.400 -0.0720  0.1165  0.3245
  242W        W 3462   6.609   9.858   0.597 -0.0897 -0.3342 -0.1250
  243W        W 3463   5.739   6.241   4.430  0.0072  0.1843 -0.2701
  244W        W 3464  16.569   4.332   3.923 -0.2975 -0.2107 -0.3419
  245W        W 3465   3.591   5.633   2.381  0.2505  0.0636  0.0996
  246W        W 3466   6.419   2.184  13.667 -0.1756 -0.0330 -0.1032
  247W        W 3467  18.173  13.194   2.503 -0.1196 -0.0695 -0.1118
  248W        W 3468  17.688  10.431   1.470  0.0176 -0.0865 -0.2587
  249W        W 3469  10.763  17.850  12.452  0.0530 -0.2083 -0.1278
  250W        W 3470   2.820   8.599   6.036 -0.1046 -0.1383 -0.3879
  251W        W 3471  16.158  11.490   2.743 -0.1267 -0.1114 -0.0576
  252W        W 3472   2.827   1.269  13.536  0.2143 -0.1921  0.3210
  253W        W 3473  15.036  17.844   3.641  0.0645  0.1340 -0.0028
  254W        W 3474   1.817  15.713  11.709 -0.0698  0.2318  0.0142
  255W        W 3475   5.863   5.255   1.216 -0.2473  0.0759 -0.0501
  256W        W 3476   7.751   4.601   4.179  0.3550  0.0529  0.3695
  257W        W 3477  14.316   6.619   2.307  0.0082 -0.0820  0.0043
  258W        W 3478   1.046   1.159  17.540 -0.3438 -0.1345 -0.2670
  259W        W 3479   2.679  17.333  15.089  0.0127 -0.1728  0.0868
  260W        W 3480   2.481   8.781  16.982 -0.2512 -0.0834  0.2032
  261W        W 3481   8.922  14.666  17.842 -0.3085 -0.0133 -0.2621
  262W        W 3482   5.901   4.972  13.915 -0.0959  0.1833 -0.4083
  263W        W 3483  15.029  17.875   9.168 -0.1667 -0.1081 -0.3153
  264W        W 3484   4.791  16.814  10.071 -0.5037  0.0945 -0.0451
  265W        W 3485  15.846   1.492  16.031 -0.1157  0.0174 -0.2433
  266W        W 3486   6.167   1.221   3.950 -0.0916 -0.1950 -0.1717
  267W        W 3487   1.793   2.237  16.668 -0.0150 -0.1324  0.1198
  268W        W 3488  17.142   0.080   1.798  0.1519 -0.1596  0.2243
  269W        W 3489   2.636   4.635   3.919  0.1843 -0.0416 -0.0744
  270W        W 3490  16.434   1.082   5.175 -0.0940 -0.1718 -0.1438
  271W        W 3491   5.255  17.288   3.767  0.2041  0.2972  0.0593
  272W        W 3492  15.688   2.147  17.825 -0.0820 -0.2478  0.0457
  273W        W 3493  17.455   3.970  14.556 -0.2625  0.1797 -0.3251
  274W        W 3494   5.400  16.868  17.190  0.1266  0.0737  0.3040
  275W        W 3495   5.099  17.522  15.896  0.1396  0.3991  0.0055
  276W        W 3496   5.492   0.905   1.517  0.0629 -0.0060  0.0685
  277W        W 3497  17.516   7.554  13.759 -0.1390  0.0399  0.0807
  278W        W 3498   2.562  16.216  16.928  0.1927 -0.0577  0.2979
  279W        W 3499  15.983   9.257   0.207  0.1317 -0.0697  0.0237
  280W        W 3500  18.200   3.508   3.505  0.2143  0.0457 -0.0191
  281W        W 3501  18.063  12.939  17.853  0.2549  0.0856  0.1672
  282W        W 3502   9.441   4.680   7.366  0.2421 -0.1580  0.2084
  283W        W 3503  16.161   0.745   5.850 -0.0466  0.1086 -0.0162
  284W        W 3504  15.974   4.301  18.197 -0.2549 -0.2102  0.1833
  285W        W 3505  16.753   0.403  16.826 -0.1062  0.0258 -0.2302
  286W        W 3506   2.090   5.274   5.458  0.1631  0.2892  0.2236
  287W        W 3507   8.636   1.660  13.444  0.1885 -0.2397  0.0318
  288W        W 3508   7.675  11.187  10.678  0.0279 -0.2847  0.2793
  289W        W 3509   0.947   7.954   4.259  0.0011  0.0269 -0.1044
  290W        W 3510  13.920  17.613  13.448  0.1128 -0.1395  0.2173
  291W        W 3511  11.197   5.014   2.017 -0.0516  0.1922  0.0465
  292W        W 3512   9.707  15.461   4.738  0.0336 -0.0095 -0.0646
  293W        W 3513  16.951  17.583   7.515 -0.1206  0.0037 -0.1191
  294W        W 3514   4.064  15.666   2.053 -0.0439 -0.0705  0.1003
  295W        W 3515   2.738   3.583   4.219 -0.0945 -0.0930 -0.1381
  296W        W 3516  16.319  17.582   1.168 -0.0037  0.0736 -0.0256
  297W        W 3517   0.354  10.803   4.538 -0.2022  0.2289 -0.0140
  298W        W 3518  11.091   5.908  16.801 -0.0249  0.1142 -0.0056
  299W        W 3519   0.066  13.965   3.829 -0.0994  0.0805 -0.0087
  300W        W 3520  18.153   1.412   0.617 -0.2128 -0.0040  0.1169
  301W        W 3521   2.860   4.868  16.272 -0.1391 -0.0907 -0.2647
  302W        W 3522   7.158  14.553  16.971 -0.2107 -0.0913  0.0211
  303W        W 3523   5.544  16.649  18.123 -0.2283  0.4380  0.2174
  304W        W 3524   4.057  12.184   9.763  0.0443  0.1248 -0.1481
  305W        W 3525   7.403   2.838  16.293  0.0790 -0.3070 -0.1562
  306W        W 3526   5.705  17.075   0.692  0.3582 -0.0183  0.1822
  307W        W 3527   2.954   4.528   8.771  0.0377  0.1639 -0.0383
  308W        W 3528  16.971   5.131   0.914  0.1833  0.3323 -0.1929
  309W        W 3529  14.717   2.606  16.065  0.0931  0.2351 -0.3020
  310W        W 3530  12.833   2.970   1.163 -0.2112  0.3375 -0.2608
  311W        W 3531  10.550  14.996   3.537 -0.0378  0.1773 -0.3810
  312W        W 3532  17.692   4.449   5.384  0.1608  0.0545 -0.2176
  313W        W 3533   4.991  15.107   2.733 -0.3359 -0.0825  0.1931
  314W        W 3534  17.261   4.776   0.715  0.0693 -0.0906  0.3652
  315W        W 3535   4.769   3.714  17.951  0.2483  0.2166 -0.0868
  316W        W 3536   0.518   2.592   0.067  0.2799  0.2217  0.3715
  317W        W 3537  17.263  10.719   1.582 -0.2279  0.1226 -0.2669
  318W        W 3538   7.272   2.814   3.833  0.2471  0.0301 -0.0791
  319W        W 3539  16.855   8.029   0.344  0.2036 -0.0386 -0.0512
  320W        W 3540   0.721   0.107   3.850 -0.0742 -0.0767  0.1120
  321W        W 3541   4.098   3.215   6.272 -0.0169 -0.0619 -0.1694
  322W        W 3542   2.585   1.331   3.158 -0.1105 -0.2885 -0.0428
  323W        W 3543  15.247   4.118  12.547 -0.1663  0.3422  0.2778
  324W        W 3544   3.246   1.720   2.302  0.0797  0.1541  0.3793
  325W        W 3545  16.409  17.766   4.174  0.1796  0.2377 -0.2599
  326W        W 3546   3.484   1.784  18.184  0.0212  0.0781 -0.2883
  327W        W 3547   8.017   7.440   5.333  0.0161  0.0951 -0.1881
  328W        W 3548   8.487   2.040  16.518 -0.0547  0.1021 -0.3159
  329W        W 3549   5.470   3.563   4.426 -0.0508 -0.2853 -0.4938
  330W        W 3550  13.177  14.544   3.243 -0.1655  0.0839  0.1085
  331W        W 3551  17.444   2.444   4.157  0.0725  0.0941 -0.4234
  332W        W 3552  14.773   1.729  17.065  0.0844 -0.0351 -0.2330
  333W        W 3553   4.298  11.519   2.726 -0.0905 -0.2846  0.0740
  334W        W 3554   2.748   1.059   3.540  0.0802 -0.1184 -0.0261
  335W        W 3555  13.315  18.131   2.020  0.0290 -0.2681 -0.0365
  336W        W 3556   0.038  17.415  14.078 -0.0410  0.0139 -0.4073
  337W        W 3557   0.995  13.213   1.368  0.1574 -0.1370 -0.1912
  338W        W 3558   3.627   5.495  17.465  0.0339 -0.1343  0.0282
  339W        W 3559  17.131   4.137  13.090 -0.2681 -0.3514  0.4267
  340W        W 3560   3.561   0.494  17.866 -0.0004  0.1039  0.1416
  341W        W 3561  16.640   2.783   1.436  0.2041 -0.2034  0.3130
  342W        W 3562   1.838   8.487   4.065 -0.1169 -0.0060  0.1942
  343W        W 3563   4.417   2.534   3.509 -0.3152 -0.0876 -0.1727
  344W        W 3564   0.327   4.003   2.553 -0.2252  0.1482 -0.0021
  345W        W 3565  13.415   4.448   4.090  0.1342  0.0596 -0.2242
  346W        W 3566   5.851   8.046   2.730  0.3004  0.0748  0.0612
  347W        W 3567   0.545   7.956   8.169  0.3348 -0.0981 -0.0180
  348W        W 3568   0.210   0.599   1.857 -0.2706 -0.1599  0.0944
  349W        W 3569   2.055   2.013  16.175  0.0202  0.1679  0.0039
  350W        W 3570   3.965   0.551   4.495 -0.1276 -0.4059  0.0150
  351W        W 3571  14.391   4.794  17.865  0.1645 -0.2328 -0.1100
  352W        W 3572   7.131  17.359  17.609 -0.1444  0.3586  0.1372
  353W        W 3573  10.896   5.092   2.934 -0.0088 -0.1687 -0.0243
  354W        W 3574   2.928   2.943   4.606 -0.1760 -0.1306  0.1392
  355W        W 3575   0.723   1.090  16.541 -0.1716  0.0422 -0.0029
  356W        W 3576   1.927   7.009   2.342 -0.3643 -0.2156 -0.0730
  357W        W 3577  14.507   4.344   2.401 -0.0865  0.0355  0.0648
  358W        W 3578  14.242   3.515  16.031 -0.1271  0.0001  0.0623
  359W        W 3579   6.414   4.671  17.301 -0.1540 -0.0893  0.1974
  360W        W 3580   1.863   4.900   8.879  0.1277 -0.0661  0.1956
  361W        W 3581  11.099  16.139   6.376  0.0251  0.0108 -0.0154
  362W        W 3582  16.857  11.648   6.418  0.1721 -0.0622  0.0560
  363W        W 3583  16.009  14.861   1.071 -0.0421  0.0275  0.3056
  364W        W 3584   5.480  17.777   7.526  0.1278  0.4377 -0.0945
  365W        W 3585  10.921   6.392  15.331  0.0165 -0.1559 -0.0316
  366W        W 3586  17.638  15.875  11.466 -0.1585 -0.0486  0.1285
  367W        W 3587   4.266   2.349   4.196 -0.1972 -0.0980  0.0801
  368W        W 3588   3.361   1.480   6.457  0.1003  0.0860 -0.2929
  369W        W 3589   1.459   3.056   1.578 -0.0984 -0.1041 -0.1496
  370W        W 3590   2.808   2.954   1.295  0.1686 -0.0505 -0.2037
  371W        W 3591  14.138  14.807   6.396 -0.1778 -0.3927  0.0193
  372W        W 3592   6.756  15.600  15.401  0.0881 -0.1456 -0.1914
  373W        W 3593   2.316  11.203   3.766  0.1504 -0.0446  0.1433
  374W        W 3594   3.651  14.800   8.221  0.0760  0.0736  0.0757
  375W        W 3595  14.382  15.091   5.962  0.1286  0.0555  0.0486
  376W        W 3596  16.453  17.216   1.892 -0.1342  0.1628  0.1215
  377W        W 3597   2.871   6.367  14.182 -0.1359  0.1100  0.0033
  378W        W 3598   5.956   3.505   2.464  0.0443 -0.1125  0.4447
  379W        W 3599   4.711   5.597   0.719  0.3257 -0.1344  0.1566
  380W        W 3600   4.097   2.104  17.290 -0.1811 -0.0440 -0.0905
  381W        W 3601  17.414   5.366   2.204 -0.0941 -0.0469  0.0337
  382W        W 3602  17.038   7.590   0.409 -0.0414 -0.0770  0.2041
  383W        W 3603   1.889  15.516   1.964 -0.3694 -0.1882  0.0933
  384W        W 3604   7.853   3.728  16.388 -0.1846  0.1617  0.1873
  385W        W 3605   8.495   4.181  16.853 -0.2439 -0.0664  0.0219
  386W        W 3606   4.294   2.907   1.694 -0.1778  0.0500 -0.0046
  387W        W 3607   3.877   3.545  12.396 -0.0976 -0.1325  0.1908
  388W        W 3608   4.916  17.023   3.493 -0.0789  0.2552 -0.0586
  389W        W 3609  11.586  17.158  13.175 -0.1707 -0.1455  0.0743
  390W        W 3610   2.474   0.398  13.807 -0.0975 -0.0110 -0.2361
  391W        W 3611   5.115  16.059  16.090  0.0425  0.1814 -0.0158
  392W        W 3612   5.402   0.155  17.362  0.1084  0.0647  0.4995
  393W        W 3613   3.637  11.873  16.565  0.1311 -0.2143  0.2915
  394W        W 3614   3.271  15.057  11.450 -0.3704  0.3692 -0.1013
  395W        W 3615   4.082   1.067  17.883 -0.1489  0.2143 -0.2324
  396W        W 3616   6.465   1.601  17.001  0.0115 -0.4458  0.1865
  397W        W 3617   3.223  16.689   1.623  0.0297 -0.2383 -0.2442
  398W        W 3618  15.676  10.802   2.232  0.2939 -0.0830  0.0179
  399W        W 3619  18.151   2.930  16.297 -0.0557  0.2103  0.2997
  400W        W 3620   0.626  10.102   5.026  0.0806 -0.3095  0.2635
  401W        W 3621   6.612   5.843   9.879 -0.2669  0.1604  0.3555
  402W        W 3622  18.156   5.880   4.690  0.0308 -0.4009  0.3878
  403W        W 3623   3.402  11.046   3.261 -0.2112 -0.1651 -0.1544
  404W        W 3624  16.237   3.397   5.717  0.4856  0.0800 -0.0422
  405W        W 3625  16.911  15.444  13.591  0.1480 -0.1608  0.1723
  406W        W 3626  15.117   4.553   5.602  0.3183 -0.2619 -0.1349
  407W        W 3627   2.748   2.703   0.294 -0.0609 -0.0374 -0.1051
  408W        W 3628   2.759   1.645  17.548  0.0648  0.1801 -0.1170
  409W        W 3629   2.442   0.688   3.579  0.0317  0.2680  0.2748
  410W        W 3630  17.156   4.687  17.652  0.1564  0.0590  0.1382
  411W        W 3631  17.993   8.034   5.919 -0.1052  0.0904 -0.1694
  412W        W 3632  17.698   0.439  14.461 -0.0259 -0.0085  0.0586
  413W        W 3633   6.005   0.644   0.452  0.2449  0.1154  0.0735
  414W        W 3634   5.818  11.649  11.998  0.0034 -0.4317 -0.0852
  415W        W 3635  16.796   4.095   0.937 -0.0282 -0.0770 -0.0737
  416W        W 3636  17.967   2.200  15.438  0.0697 -0.0487  0.1355
  417W        W 3637   1.524   3.837   1.329 -0.2383 -0.2128 -0.1451
  418W        W 3638   9.178  16.391   9.544  0.1823 -0.1690  0.0038
  419W        W 3639  14.764   0.091  15.505  0.0707 -0.2435 -0.0932
  420W        W 3640   3.989   4.244   1.426 -0.1059  0.0574  0.0462
  421W        W 3641   5.012   1.956   4.875  0.2246  0.1611 -0.0665
  422W        W 3642   7.313   3.597  17.829  0.3059 -0.1567  0.1412
  423W        W 3643   6.032   4.698  12.290 -0.2451 -0.0358  0.0574
  424W        W 3644  10.172   5.378   1.326 -0.0187 -0.2286 -0.0874
  425W        W 3645   0.465   2.769   0.542 -0.1219  0.1591 -0.1067
  426W        W 3646   1.085   1.950   6.823 -0.1224 -0.1619 -0.0221
  427W        W 3647   5.758   1.841   8.872  0.2261 -0.2549  0.1644
  428W        W 3648   4.067   7.437   0.784 -0.2426  0.2883 -0.2365
  429W        W 3649   1.041   2.388   1.796 -0.3198 -0.1100  0.0623
  430W        W 3650   2.191   1.354   2.489 -0.0194 -0.2744  0.3445
  431W        W 3651   5.528   9.189   3.553 -0.0907 -0.3109  0.2181
  432W        W 3652   3.612  16.100   5.273  0.0577  0.0013 -0.2850
  433W        W 3653   9.872  10.700  13.535  0.0024  0.0307 -0.1679
  434W        W 3654  17.725   3.463   4.129  0.1589 -0.1776 -0.0552
  435W        W 3655   4.407   1.100   7.080 -0.1367  0.0191  0.2752
  436W        W 3656  15.463   8.205   0.067 -0.0347 -0.2802  0.0935
  437W        W 3657  15.862   1.025   4.311 -0.0190  0.0973 -0.2358
  438W        W 3658   4.348  17.216  12.745  0.0336  0.1845  0.0676
  439W        W 3659   3.150   3.631  17.038  0.1006  0.0540  0.0799
  440W        W 3660   1.288   3.052  17.663 -0.2637 -0.0156  0.0074
  441W        W 3661  13.790   3.618   0.756  0.0982 -0.0518 -0.2259
  442W        W 3662   5.197  14.603   0.766  0.0118  0.1465  0.3773
  443W        W 3663  11.411   4.726  17.213 -0.2454 -0.1139 -0.2088
  444W        W 3664  15.521   2.894  17.477  0.1087  0.1224 -0.2355
  445W        W 3665   8.269  15.019  10.786 -0.3433  0.0355  0.1678
  446W        W 3666   6.246   4.653   3.264 -0.2246 -0.0486  0.5416
  447W        W 3667   9.564   6.394   3.017  0.2013  0.1689 -0.1800
  448W        W 3668   4.218  17.591   0.288  0.1345 -0.2841  0.3588
  449W        W 3669  15.332  17.413   7.022 -0.0822  0.3538  0.0457
  450W        W 3670   0.240  17.715   1.058  0.0898  0.2121 -0.2215
  451W        W 3671  16.588   2.453   3.263  0.0135  0.0638  0.1332
  452W        W 3672   6.014   1.441   0.434 -0.0865  0.0041  0.0872
  453W        W 3673   0.422  12.832  11.211 -0.0458 -0.0064  0.1110
  454W        W 3674  16.607   1.953  14.699  0.0622  0.2696  0.0047
  455W        W 3675  16.158  17.414   3.706 -0.0729  0.0652 -0.2626
  456W        W 3676   5.822  16.268   1.396  0.2110  0.1703 -0.1384
  457W        W 3677   7.580  15.963   2.629 -0.1722 -0.2338 -0.1221
  458W        W 3678   8.530  15.938  13.975 -0.1466 -0.0996 -0.3389
  459W        W 3679  17.592  11.989   7.721  0.1310 -0.1175  0.3906
  460W        W 3680  18.183   3.865   4.533  0.2371 -0.1412 -0.1298
  461W        W 3681  13.208   5.398   4.586  0.0201  0.0145  0.0978
  462W        W 3682   4.603  17.821   1.996  0.1234 -0.1914  0.1452
  463W        W 3683  10.475   3.243   1.959 -0.2165 -0.2973  0.0314
  464W        W 3684   3.077  15.456  18.266  0.2384  0.1360  0.2244
  465W        W 3685   0.176   6.845   0.340 -0.2669  0.3231 -0.1453
  466W        W 3686  14.855  18.074  17.303  0.0858 -0.1243  0.3079
  467W        W 3687   8.073   5.014   2.904  0.1148 -0.0421 -0.2013
  468W        W 3688   5.509   7.331   0.184 -0.1128 -0.0228 -0.1950
  469W        W 3689  15.331   2.259   2.394 -0.1212  0.0750  0.1802
  470W        W 3690  14.094   1.792  17.772 -0.0240  0.1282  0.0643
  471W        W 3691   3.496   4.629  16.908  0.3355  0.0973 -0.0691
  472W        W 3692   9.373  16.565  17.956 -0.1092  0.0759  0.1550
  473W        W 3693   9.723   0.388   4.231  0.3355  0.1605  0.2573
  474W        W 3694   6.577  14.748  13.600 -0.1422 -0.0761  0.0798
  475W        W 3695   1.219   5.201  15.889 -0.2280 -0.0688 -0.0884
  476W        W 3696   0.493  17.629   1.559  0.1124  0.1132  0.0265
  477W        W 3697   2.801   6.675   4.487 -0.2020  0.1958  0.2052
  478W        W 3698   0.750   2.132   1.481  0.0597  0.2202  0.2638
  479W        W 3699   3.177   2.730   2.210  0.0113  0.0310 -0.0669
  480W        W 3700   9.502  15.701   0.970  0.0581 -0.2158 -0.4499
  481W        W 3701   3.515  18.002  18.082 -0.0775 -0.0185 -0.1722
  482W        W 3702   0.325  10.286   6.583 -0.2290  0.2368  0.0475
  483W        W 3703   1.269   3.787   5.357 -0.0598  0.0576  0.0968
  484W        W 3704   7.699   5.050   2.378  0.0401  0.3972  0.2591
  485W        W 3705   0.056  13.342  17.936  0.1367  0.0103  0.1614
  486W        W 3706  14.977  14.042  15.943  0.0487  0.2609  0.3678
  487W        W 3707  14.616   0.727   5.819 -0.1312  0.0013 -0.0001
  488W        W 3708   4.681   3.294   4.098  0.0564 -0.1253 -0.0127
  489W        W 3709   2.850   1.049  14.032  0.1205 -0.2982 -0.1440
  490W        W 3710  16.936   1.438   4.300  0.3025  0.0909 -0.1898
  491W        W 3711  15.808  16.879   0.345 -0.1088 -0.0090 -0.1378
  492W        W 3712  15.996   5.866   1.247 -0.1196  0.1606 -0.1542
  493W        W 3713   4.078   2.428   1.719 -0.0591 -0.3278 -0.1872
  494W        W 3714   5.143   2.987  10.661  0.3839  0.2409  0.2662
  495W        W 3715   1.407   4.282   5.366  0.1420 -0.0785  0.0712
  496W        W 3716   6.551  17.785   8.086  0.2177  0.1130 -0.1411
  497W        W 3717   2.997   5.198  10.486 -0.2668 -0.1174 -0.2472
  498W        W 3718   3.021  15.983   2.260 -0.1186  0.1363 -0.0632
  499W        W 3719  16.453  17.070   2.859 -0.1148  0.4307 -0.1195
  500W        W 3720   4.618   5.461  15.679 -0.0063 -0.1308 -0.1470
  501W        W 3721   3.038  13.240   4.596  0.1597 -0.0272  0.1179
  502W        W 3722   4.560   3.336   6.737 -0.0864 -0.1026 -0.0240
  503W        W 3723  15.157  14.810   8.578 -0.0952 -0.0739 -0.1858
  504W        W 3724  15.831   1.074   4.888  0.0561 -0.3431  0.1331
  505W        W 3725   4.651  17.933   6.487 -0.3586  0.1944  0.2839
  506W        W 3726   3.550   0.090  17.088 -0.0587  0.2496 -0.0569
  507W        W 3727   3.481   4.531  11.209  0.0778 -0.2833  0.1769
  508W        W 3728  14.434   5.920  17.103  0.1646  0.2290 -0.4504
  509W        W 3729  14.050   2.929   4.959  0.1522 -0.0533 -0.0555
  510W        W 3730   7.141   7.076   1.255  0.1230 -0.2769 -0.1995
  511W        W 3731  17.107   2.748   2.341  0.3514 -0.0279 -0.2009
  512W        W 3732  16.508  14.746  10.626 -0.1664 -0.0830  0.4450
  513W        W 3733   4.190  17.365   6.312 -0.0323  0.2217  0.0612
  514W        W 3734   3.654   4.591   6.908  0.0368  0.0693 -0.0975
  515W        W 3735  18.125   4.133   2.819 -0.1567  0.1918  0.2221
  516W        W 3736   7.917   7.574   5.916  0.3368 -0.2133  0.0040
  517W        W 3737   1.019   3.899   0.135  0.0957 -0.0048  0.0260
  518W        W 3738   6.928  17.732  13.254 -0.2987  0.2071  0.1413
  519W        W 3739   0.932   0.088   4.872  0.3039  0.1532  0.1154
  520W        W 3740   5.967  16.457  10.798 -0.0371 -0.1516  0.2385
  521W        W 3741   8.822  18.192   4.755 -0.0749 -0.1029 -0.0505
  522W        W 3742  18.249  10.782   6.688  0.1218  0.0466 -0.2701
  523W        W 3743   1.191   4.558  11.443 -0.1823 -0.0159  0.2856
  524W        W 3744   0.368   5.575   6.555  0.0823  0.1770  0.2655
  525W        W 3745  15.916   9.439   3.932 -0.1018 -0.0817  0.2597
  526W        W 3746   4.374  13.016   4.109  0.0318 -0.0426 -0.1291
  527W        W 3747  17.765   8.051   2.077  0.0915  0.0626  0.2922
  528W        W 3748   1.163   4.211  18.008  0.1164  0.2087  0.0893
  529W        W 3749   7.081  15.744   2.245 -0.2578 -0.0679  0.0952
  530W        W 3750   3.157  17.203   4.201  0.3596  0.1328 -0.3379
  531W        W 3751   5.948  17.708   5.256 -0.0641  0.2109  0.2843
  532W        W 3752   7.752  16.441  16.867 -0.3173  0.1033  0.1222
  533W        W 3753   7.498   3.038   4.639 -0.0661  0.4886 -0.0875
  534W        W 3754   5.270  15.664  16.396  0.1081 -0.1677 -0.0899
  535W        W 3755   5.121  18.153   4.028  0.1756  0.3068  0.2538
  536W        W 3756  13.401   2.203   5.280  0.1050 -0.0523 -0.1661
  537W        W 3757   2.155   4.078   9.009 -0.0206  0.2433 -0.3607
  538W        W 3758  17.630   3.187   3.647  0.0658  0.0366 -0.0729
  539W        W 3759   6.799   6.982   6.386  0.1853 -0.0953 -0.0551
  540W        W 3760   1.151   4.421   3.654 -0.2356  0.3705  0.2280
  541W        W 3761   0.786   5.352   5.510 -0.2037  0.0225  0.0283
  542W        W 3762  17.261   3.656  12.257  0.1282  0.1039 -0.2375
  543W        W 3763  18.177   1.837   0.273  0.0156  0.0895 -0.1894
  544W        W 3764   3.897   4.445   8.274  0.4154  0.0861 -0.1227
  545W        W 3765  14.339  11.786  17.834  0.2655 -0.2659 -0.1784
  546W        W 3766   6.784   8.939   0.921  0.1612 -0.1584 -0.2730
  547W        W 3767  16.888   8.304   3.306  0.0643  0.1052 -0.0247
  548W        W 3768   0.905   8.220   0.616  0.0134  0.0079  0.1585
  549W        W 3769  16.310  14.178   5.352 -0.0972 -0.2549 -0.0515
  550W        W 3770   0.495   4.695   2.158  0.0578 -0.0305  0.2805
  551W        W 3771   0.953   3.815   4.883  0.1611  0.0209  0.2666
  552W        W 3772  14.820   2.009   0.213  0.1682  0.0807 -0.1312
  553W        W 3773   0.830   2.517   4.791 -0.1477 -0.3640  0.0121
  554W        W 3774   5.125   0.719   1.113 -0.4129 -0.2076 -0.1322
  555W        W 3775   3.739   0.927   4.868 -0.3363  0.2914  0.0717
  556W        W 3776  17.709   8.828   6.962 -0.1078 -0.2462  0.1122
  557W        W 3777   4.637   3.432   0.112  0.1542 -0.0643  0.1474
  558W        W 3778  17.476  15.510  10.553 -0.0380  0.0093  0.2844
  559W        W 3779   3.575   8.819   3.668 -0.0039  0.2557 -0.2306
  560W        W 3780  18.184   4.752   5.708  0.0164  0.2338 -0.0405
  561W        W 3781  18.265  17.363   2.325  0.0568 -0.0345  0.4674
  562W        W 3782   3.977   4.471   9.143  0.0890  0.1316  0.0343
  563W        W 3783  13.809   4.481   6.755  0.0300 -0.1545 -0.1118
  564W        W 3784   8.666   3.029   5.955  0.2675  0.4282 -0.1650
  565W        W 3785   4.706  15.324   4.893  0.1621  0.0490  0.1606
  566W        W 3786   5.523   0.989  11.302  0.2098  0.1896 -0.1644
  567W        W 3787   5.171   0.893  10.360 -0.0840  0.0206  0.0843
  568W        W 3788   1.892   1.732   2.255  0.0152 -0.1545 -0.0675
  569W        W 3789   4.716   0.727  18.136 -0.1950  0.0720  0.0286
  570W        W 3790   0.878   6.355   8.676  0.2716  0.0228  0.0616
  571W        W 3791   0.200  13.851   9.651  0.2296  0.2089  0.0027
  572W        W 3792  14.250  16.040   5.186  0.1021 -0.2064 -0.0821
  573W        W 3793  12.557  17.824   2.085 -0.2406  0.1507 -0.0346
  574W        W 3794   3.803  16.947   8.138  0.0574  0.0147  0.2217
  575W        W 3795   5.477   2.811  11.900 -0.3049 -0.2057 -0.1069
  576W        W 3796   1.023   5.436   6.494  0.0252 -0.0664 -0.3075
  577W        W 3797  17.210   3.447   6.451 -0.1366 -0.1497 -0.1625
  578W        W 3798  15.118   0.181   3.675  0.0136  0.5103 -0.2510
  579W        W 3799   1.831   1.840   4.556  0.2711 -0.0857 -0.0629
  580W        W 3800  18.080   0.343   4.786 -0.2187 -0.0270  0.0735
  581W        W 3801  16.039  17.707   8.123 -0.0359  0.0820 -0.0909
  582W        W 3802   3.291   0.719   9.777  0.0805  0.0453 -0.1649
  583W        W 3803   6.199   3.658  15.670 -0.1073 -0.0191  0.3612
  584W        W 3804   5.833   2.656   7.453  0.1152  0.0993 -0.0190
  585W        W 3805  17.411  10.629   0.629 -0.1737  0.3421 -0.0806
  586W        W 3806  15.657   5.506   2.652  0.0472 -0.1181  0.3475
  587W        W 3807   2.904  16.637   6.326  0.1505  0.0814 -0.3087
  588W        W 3808  18.161   0.197  18.164  0.2918 -0.1086  0.0249
  589W        W 3809   7.908   1.042   9.258  0.2520  0.0034  0.2251
  590W        W 3810  13.559   1.379   6.439  0.0209 -0.2659  0.0088
  591W        W 3811  16.188   3.777   0.750 -0.2982 -0.0887 -0.3211
  592W        W 3812   7.015   4.909   4.874 -0.0311 -0.0019 -0.0571
  593W        W 3813   7.536  17.749   2.320 -0.0453 -0.0892  0.3334
  594W        W 3814  15.186  16.059  17.956  0.0753 -0.3198  0.1773
  595W        W 3815  15.160   1.567   5.879 -0.1572  0.0432  0.1125
  596W        W 3816  17.811   4.644  17.183  0.0065 -0.0972  0.0619
  597W        W 3817   8.356  17.345   0.550 -0.0758  0.0243 -0.1288
  598W        W 3818   5.243   7.012   5.846 -0.1008  0.1421  0.1803
  599W        W 3819  14.772   4.718  16.311 -0.1852 -0.0127  0.3437
  600W        W 3820  13.680  16.198   8.894  0.0981 -0.0921 -0.0382
  601W        W 3821   7.205  17.706   9.076 -0.1390 -0.1164 -0.0586
  602W        W 3822  16.516   1.225   2.276  0.0036  0.5585  0.2823
  603W        W 3823   3.086  11.988   4.570  0.0993  0.1080  0.1646
  604W        W 3824   1.692   6.092   5.253  0.2984  0.0931  0.1320
  605W        W 3825   8.247   3.226   6.923 -0.1311 -0.1425  0.1695
  606W        W 3826  18.140   1.318   8.780  0.0804  0.2278  0.1689
  607W        W 3827  16.337   3.404   1.276  0.1952  0.2437  0.0779
  608W        W 3828   1.661  17.271   5.076  0.1379 -0.0360  0.2032
  609W        W 3829   0.369   6.411   0.094  0.1379 -0.3011 -0.0257
  610W        W 3830   2.877   4.149   8.294  0.1332  0.0633  0.2047
  611W        W 3831  10.774  17.247   6.845  0.0297 -0.3547  0.0779
  612W        W 3832   1.912  16.531  18.158 -0.0505  0.1428  0.1501
  613W        W 3833  10.284   5.777  16.514  0.1059 -0.1556  0.4747
  614W        W 3834   4.358  10.635   3.563 -0.0708 -0.1760 -0.0209
  615W        W 3835   2.076  17.507   5.209  0.1525 -0.0314  0.1429
  616W        W 3836  12.316   0.399   9.495  0.0046  0.2363 -0.0304
  617W        W 3837  15.717   3.830   6.225  0.1153 -0.3644 -0.3038
  618W        W 3838   7.384   6.748   5.172  0.1675  0.0600  0.1796
  619W        W 3839   6.868   3.271   7.314  0.0016  0.3442  0.0364
  620W        W 3840   8.296   4.018  12.623 -0.0042 -0.1321  0.1019
  621W        W 3841   2.395   4.979   7.360 -0.1297  0.0669 -0.1710
  622W        W 3842   0.661   9.712   6.577  0.1802  0.2257 -0.1922
  623W        W 3843   4.425   8.056   7.638  0.0916  0.2142  0.1392
  624W        W 3844   4.337  17.001   1.619 -0.0194  0.0501  0.2380
  625W        W 3845  16.895   7.954  16.407  0.1895  0.0144 -0.3791
  626W        W 3846   0.335   4.156   5.596 -0.1422 -0.0460  0.0049
  627W        W 3847   9.563   5.372   1.000 -0.2925  0.1100 -0.1158
  628W        W 3848   1.108   2.122   7.448  0.0467 -0.4013 -0.1719
  629W        W 3849   0.604   3.137   5.595 -0.0990 -0.2528  0.1466
  630W        W 3850  14.329  17.355   8.681 -0.1691  0.3532 -0.1865
  631W        W 3851  16.488  16.602   1.467 -0.2027  0.0425 -0.0256
  632W        W 3852   7.943   2.971   7.185  0.1530  0.0780 -0.1509
  633W        W 3853  17.192   7.842   6.452 -0.2089 -0.1587 -0.0080
  634W        W 3854   3.713   3.343   0.819 -0.2043  0.1458  0.2168
  635W        W 3855  15.071   1.174  17.294 -0.0040  0.0667  0.1617
  636W        W 3856   1.640  11.717   4.781  0.0401 -0.0823  0.1147
  637W        W 3857  15.247  14.391   0.281 -0.1979  0.4457 -0.3006
  638W        W 3858   1.249   4.759   5.146 -0.1049  0.0754  0.0438
  639W        W 3859   1.303   9.682   7.099  0.0500 -0.0091 -0.2910
  640W        W 3860   3.922   5.037   8.597  0.0093 -0.2333  0.0813
  641W        W 3861  13.647   7.357   9.136 -0.3149 -0.3158  0.3802
  642W        W 3862  11.585   5.712  17.032  0.3762 -0.1318 -0.3219
  643W        W 3863   0.751  15.606   3.190 -0.3645 -0.1237 -0.0305
  644W        W 3864   4.015   5.694   0.380 -0.1296 -0.3317  0.2948
  645W        W 3865   2.879   0.163   7.303 -0.0756  0.1481 -0.2391
  646W        W 3866   5.220  15.637   7.316  0.0045 -0.0096  0.0336
  647W        W 3867   3.544   1.182   4.019  0.0786  0.4007  0.1926
  648W        W 3868   7.343  17.170   1.317  0.1726 -0.0186  0.0047
  649W        W 3869   0.968   1.012   4.104 -0.1462  0.0691 -0.1819
  650W        W 3870   5.609  14.611   9.563 -0.3236  0.3160 -0.1395
  651W        W 3871   7.157  14.284   1.576  0.3469  0.0979 -0.2330
  652W        W 3872  17.698  12.346   3.014  0.1558 -0.1472 -0.2059
  653W        W 3873  17.650   7.565   1.968 -0.0874  0.0532  0.2336
  654W        W 3874   7.642   4.250   8.452  0.0248  0.1253 -0.1346
  655W        W 3875   8.853   6.247   6.442 -0.1965  0.1981 -0.1574
  656W        W 3876  10.182   3.857   7.942  0.0944 -0.1085 -0.1793
  657W        W 3877   7.669   0.361   7.920  0.0508 -0.3366 -0.1001
  658W        W 3878   1.386   6.292   1.862 -0.1875 -0.2097 -0.0297
  659W        W 3879   0.903  16.863   1.786  0.1112 -0.2611  0.1257
  660W        W 3880   1.403   4.872   2.192 -0.1505  0.1323  0.2449
  661W        W 3881  17.265  16.583   7.056  0.2745 -0.1707  0.1569
  662W        W 3882   3.745  15.065  11.197  0.1903  0.0935 -0.2431
  663W        W 3883   2.270   1.178   1.491 -0.1350 -0.0102  0.0655
  664W        W 3884   0.879   4.251   8.666  0.1823  0.0253  0.1812
  665W        W 3885  18.202   1.157   6.756  0.2506 -0.3564  0.0785
  666W        W 3886   5.615  15.429   4.415 -0.1211  0.1584  0.1671
  667W        W 3887  17.970   6.143   5.620 -0.2226  0.2410  0.0947
  668W        W 3888  11.951   7.397   2.557  0.0865  0.0147  0.0521
  669W        W 3889  11.819   3.068   0.094 -0.0588  0.0937 -0.1037
  670W        W 3890   7.487  16.547  17.881  0.2369  0.1076 -0.0772
  671W        W 3891   1.329  12.381   6.471 -0.1318 -0.1572  0.1250
  672W        W 3892   2.380   0.009   7.264 -0.2452 -0.1403 -0.1711
  673W        W 3893  18.056   4.030   8.607  0.0409  0.0870  0.1940
  674W        W 3894   0.257   4.517  17.626  0.0803 -0.1050  0.0646
  675W        W 3895   5.734  16.978   5.510  0.0083  0.2276 -0.1532
  676W        W 3896   4.256  16.409   9.478  0.1846  0.0363 -0.0577
  677W        W 3897  16.318   5.463   3.279 -0.0164 -0.0272  0.1028
  678W        W 3898   7.810  15.383   5.904  0.0321 -0.2216  0.3080
  679W        W 3899  14.971   0.978   7.081 -0.1753 -0.1120 -0.0578
  680W        W 3900   3.497   1.450   8.234 -0.1086  0.0446 -0.1378
  681W        W 3901   6.377   2.319  12.114 -0.2812  0.0081 -0.3246
  682W        W 3902  15.208  16.335   1.736 -0.0871 -0.1035  0.0265
  683W        W 3903  15.857   6.289   7.421 -0.1126  0.3773  0.0732
  684W        W 3904   4.262   1.637   5.474  0.2712 -0.2510  0.1825
  685W        W 3905   0.376  13.228   8.814 -0.2717 -0.3707  0.0731
  686W        W 3906   3.608  18.000   4.332 -0.1661  0.1967 -0.0824
  687W        W 3907   8.147   1.707   6.092 -0.0161  0.0254 -0.1837
  688W        W 3908   8.567   2.213  17.140  0.0901  0.1771 -0.2312
  689W        W 3909  17.833   6.087   1.425 -0.2922 -0.0268 -0.2337
  690W        W 3910  11.633  11.780   5.020 -0.1682 -0.2029  0.1913
  691W        W 3911   7.433   0.260   9.295 -0.1692  0.1941 -0.0829
  692W        W 3912   9.464  17.021   8.451 -0.0013  0.1026  0.2708
  693W        W 3913   5.686   5.487   5.870 -0.1552  0.4557 -0.0207
  694W        W 3914   0.246  15.413   3.177  0.1199  0.1223  0.1806
  695W        W 3915  18.038   0.037   8.256  0.2077 -0.2337 -0.2207
  696W        W 3916  17.530   4.309   9.971 -0.0192  0.0130  0.1424
  697W        W 3917  17.111  16.678   0.619 -0.1576  0.0516 -0.0674
  698W        W 3918   2.157   4.477   2.946  0.0656  0.1784 -0.3182
  699W        W 3919   2.007   2.067  12.676  0.2305  0.3315  0.0113
  700W        W 3920   4.377   1.402   7.880 -0.0787 -0.0827 -0.0412
  701W        W 3921   9.862  15.257   8.333  0.2745  0.0321  0.1878
  702W        W 3922   3.313  15.044   3.280  0.1867  0.1756 -0.0590
  703W        W 3923   2.611   2.977  13.314  0.1230 -0.0766  0.0518
  704W        W 3924   5.312  15.721   9.478 -0.3543 -0.0253 -0.2098
  705W        W 3925  16.179   2.263   8.609 -0.0466  0.1982 -0.0517
  706W        W 3926   1.409   6.909   5.733  0.3314  0.4257 -0.0879
  707W        W 3927   0.949  15.044   4.727  0.0864 -0.2911 -0.2465
  708W        W 3928   4.306   9.048   4.170  0.1029  0.0758  0.0071
  709W        W 3929   2.495  14.388   1.802  0.0384  0.1981  0.0507
  710W        W 3930   7.461  14.094   4.639  0.2473 -0.1741  0.0698
  711W        W 3931   2.402  17.984  10.033  0.0119  0.1719 -0.0299
  712W        W 3932  17.426  16.676  12.964 -0.0846 -0.0134 -0.1325
  713W        W 3933   6.015   1.925   0.573 -0.1144  0.0537 -0.1382
  714W        W 3934   3.004   2.475   4.756  0.1250 -0.1292 -0.0788
  715W        W 3935   1.779   4.900   5.324  0.3371 -0.1432  0.1065
  716W        W 3936  15.331   1.917   9.501 -0.0343 -0.0252 -0.4265
  717W        W 3937   3.956   5.119  16.247  0.0378 -0.0189 -0.0446
  718W        W 3938   4.748   4.000   6.297  0.0634 -0.0104 -0.4022
  719W        W 3939   7.049  18.228   6.153  0.2003  0.1564  0.0170
  720W        W 3940   2.244  17.366   7.140  0.0354 -0.0330 -0.1821
  721W        W 3941   2.306  17.473   3.749 -0.1661  0.0780 -0.0528
  722W        W 3942  17.585   6.573   0.556 -0.1651  0.1489  0.0086
  723W        W 3943   4.858   2.490  18.144  0.0190 -0.0665  0.1751
  724W        W 3944  14.225   4.119   6.537  0.1480  0.1433 -0.0906
  725W        W 3945   3.798  14.459  17.835  0.4073  0.4245  0.0457
  726W        W 3946  16.506   0.306   7.611  0.3209  0.1153 -0.0742
  727W        W 3947  13.139  13.982   8.954  0.3499 -0.0018  0.1102
  728W        W 3948   2.842   0.867   5.278 -0.2692 -0.2567  0.0988
  729W        W 3949  11.705  14.025   5.739  0.2861  0.1805 -0.0098
  730W        W 3950   7.171   4.142  17.870  0.2680  0.2265  0.1516
  731W        W 3951   3.372   4.817   7.770 -0.0265 -0.1001 -0.1641
  732W        W 3952   4.397   5.513   8.446  0.1837 -0.2596  0.1592
  733W        W 3953   2.324  16.200   3.409 -0.0555 -0.1837 -0.2853
  734W        W 3954   6.105   3.325   9.020  0.1385  0.1537  0.1137
  735W        W 3955  12.896  10.659  16.313  0.1357 -0.0878  0.1016
  736W        W 3956   5.357  15.710  10.707 -0.0041 -0.2353 -0.1990
  737W        W 3957   6.769  18.191   8.719 -0.2428  0.1325  0.0744
  738W        W 3958  17.676  11.462   5.984 -0.2830  0.0428  0.1605
  739W        W 3959   0.351  13.455   1.675  0.1412  0.0500 -0.0539
  740W        W 3960  16.012   1.363   0.572 -0.2579 -0.2904 -0.6285
  741W        W 3961   2.208   4.002   4.399  0.2780  0.1439 -0.4976
  742W        W 3962   0.443   4.021  12.509  0.1551 -0.0571 -0.0267
  743W        W 3963   3.101   4.380   2.543 -0.1448  0.2224 -0.0270
  744W        W 3964  15.411   2.629   3.147 -0.1480  0.1124  0.0746
  745W        W 3965  12.978   4.267   0.613 -0.1147  0.0619 -0.1255
  746W        W 3966   2.029  10.489   2.292  0.1221 -0.1156 -0.1749
  747W        W 3967   3.474  14.490   7.084  0.1324  0.3381 -0.0104
  748W        W 3968   5.111   3.383  16.432 -0.0522 -0.1891 -0.1061
  749W        W 3969   4.063   7.079   2.961  0.0849 -0.0577 -0.1606
  750W        W 3970   2.185  12.342   8.935 -0.1447  0.1897  0.0029
  751W        W 3971   3.080  14.451   1.984  0.0111 -0.1255 -0.1668
  752W        W 3972   3.094  16.697  10.517 -0.3889  0.0897 -0.1543
  753W        W 3973   1.441   0.738   2.446 -0.0238  0.0562 -0.1438
  754W        W 3974  12.521   7.424   4.114 -0.1346 -0.1869 -0.0534
  755W        W 3975  18.247  15.752   2.840  0.0908  0.2967  0.2379
  756W        W 3976   6.233   6.627  14.725 -0.0056 -0.0485 -0.0499
  757W        W 3977   1.590   5.982   5.734  0.1780 -0.4224 -0.1774
  758W        W 3978   9.676  14.846   4.918  0.1457 -0.1317 -0.0042
  759W        W 3979   3.138  17.201   6.014 -0.0513  0.0577  0.4089
  760W        W 3980   5.834  17.391   5.807 -0.0363  0.0985 -0.0767
  761W        W 3981   0.802  17.344   5.675  0.0814 -0.2196 -0.5548
  762W        W 3982  17.065   1.697   9.703  0.0282  0.0380  0.1596
  763W        W 3983   4.420  16.338   6.419  0.0565 -0.1121  0.0817
  764W        W 3984   3.566  16.294  10.243 -0.1856  0.2203  0.0134
  765W        W 3985   3.763   3.599  13.837  0.1353  0.1301 -0.1754
  766W        W 3986  16.176   1.249   5.654  0.1453 -0.1625  0.0022
  767W        W 3987   5.630  14.501  16.659  0.1729  0.1105 -0.0173
  768W        W 3988   6.468  10.553   5.644  0.1632 -0.1554 -0.0251
  769W        W 3989   4.789   5.008   5.984 -0.0542  0.0099  0.2025
  770W        W 3990  18.135  16.423  18.245  0.0963  0.2071 -0.0821
  771W        W 3991   3.888   0.492  16.526 -0.1878  0.0385  0.3637
  772W        W 3992   4.964   1.686   3.826 -0.1283 -0.4583 -0.2847
  773W        W 3993  18.124   1.048   2.192 -0.0509 -0.1516  0.1473
  774W        W 3994  10.050  15.967   3.402  0.0034  0.0274  0.2118
  775W        W 3995  17.440   0.739   8.464  0.3169  0.0459  0.3151
  776W        W 3996  18.039  17.124   9.407 -0.1670  0.0291 -0.0646
  777W        W 3997   3.813  17.558   0.649  0.2410  0.0572 -0.0261
  778W        W 3998   4.410   4.161   2.564  0.2612  0.1171  0.0811
  779W        W 3999  18.119  17.986  17.902  0.3125  0.2138 -0.0529
  780W        W 4000   6.081   4.211  14.888  0.1537  0.2383 -0.1225
  781W        W 4001  16.803  16.742   7.218  0.2922  0.1179  0.1278
  782W        W 4002   4.905  11.351   0.782 -0.0257  0.1155  0.0734
  783W        W 4003   2.745   6.713  13.219 -0.2130  0.1967 -0.0421
  784W        W 4004   5.822   0.081  18.264 -0.0161 -0.3198  0.0435
  785W        W 4005   1.434  17.936   7.222  0.1819 -0.0231  0.1521
  786W        W 4006   2.427   1.285   3.872  0.2070  0.1500  0.0728
  787W        W 4007   5.565   1.885   3.068 -0.1063 -0.0373 -0.2135
  788W        W 4008   9.097   4.220  17.690  0.3540  0.0961 -0.0761
  789W        W 4009   1.813   3.879   5.527  0.2617 -0.2236  0.3010
  790W        W 4010   0.778  18.089   9.638  0.0095  0.1094 -0.2066
  791W        W 4011   1.311  11.230   6.576 -0.0429  0.0271  0.2909
  792W        W 4012  16.813   6.184   4.952 -0.0927  0.3492  0.3954
  793W        W 4013   5.219  16.563  16.728 -0.0355 -0.0806  0.0653
  794W        W 4014   0.132  17.849   2.089 -0.1159  0.1796 -0.2197
  795W        W 4015   7.008  17.910  16.123 -0.1510  0.1505  0.1659
  796W        W 4016  14.256   1.744  12.632  0.2352  0.2907  0.1979
  797W        W 4017   3.591  16.984   3.933  0.0728  0.0303 -0.3776
  798W        W 4018  17.719  17.798  18.269  0.0365 -0.0803  0.0654
  799W        W 4019  11.663   0.387   0.050  0.2077 -0.0874 -0.3799
  800W        W 4020  13.701   0.484  11.245  0.0506 -0.0303 -0.1371
  801W        W 4021   2.107  17.331   2.339  0.0465  0.2514 -0.0609
  802W        W 4022  10.440   1.868  10.921  0.1061  0.2281  0.1070
  803W        W 4023   1.621  13.682  16.075 -0.3134 -0.1921  0.0362
  804W        W 4024   0.055   2.258  14.003  0.0686 -0.0267 -0.2066
  805W        W 4025  17.141   2.755   3.175 -0.1731  0.2332 -0.2508
  806W        W 4026   2.985   6.422   3.934  0.2198  0.0683  0.3412
  807W        W 4027   5.079   8.748   2.860  0.2459 -0.0463 -0.1114
  808W        W 4028   0.701   0.712   0.352 -0.1144 -0.2702 -0.2321
  809W        W 4029   4.419   0.806   9.524 -0.2473  0.0832 -0.3451
  810W        W 4030  16.163   2.339   2.434  0.0038 -0.2886 -0.0529
  811W        W 4031   5.455   2.302   8.989  0.0327  0.4271 -0.1771
  812W        W 4032  11.764   7.431   1.624 -0.0446  0.0523 -0.1295
  813W        W 4033   8.301   2.702   0.608  0.0426  0.3409 -0.1446
  814W        W 4034  13.358  16.041   4.857  0.2203  0.0371 -0.2682
  815W        W 4035   3.614   1.342   4.541 -0.3323  0.1807  0.3512
  816W        W 4036  17.581  15.592  18.042  0.3101 -0.2239  0.2464
  817W        W 4037  14.462   2.635   3.366 -0.1369 -0.1652  0.0606
  818W        W 4038   7.531   9.316   5.638 -0.1409 -0.4196 -0.0173
  819W        W 4039   1.562  12.868  17.424  0.0598  0.1173  0.1583
  820W        W 4040   6.608   2.963   8.543  0.2167  0.1633 -0.0832
  821W        W 4041   2.652   7.274   1.712  0.0268  0.2948 -0.1576
  822W        W 4042   7.284   8.303  13.123  0.0534 -0.1277  0.3211
  823W        W 4043  14.492  11.637  10.590 -0.2672 -0.2943 -0.2604
  824W        W 4044   5.842   0.919   4.196  0.1494  0.1018  0.1121
  825W        W 4045   1.941   1.863   1.062 -0.2576  0.1485  0.2374
  826W        W 4046  15.330   4.081  17.473  0.1121 -0.1034 -0.1825
  827W        W 4047   2.423  16.084   0.456  0.0108  0.0595 -0.0586
  828W        W 4048   1.843   7.685   6.078  0.0529  0.1791  0.0493
  829W        W 4049   9.158   3.343   9.334  0.0539  0.0061 -0.3208
  830W        W 4050  14.796   1.043  13.085  0.2264  0.0028  0.0437
  831W        W 4051  15.041  17.754   2.330  0.1067 -0.2141 -0.1078
  832W        W 4052   2.655   3.815   2.923 -0.2850 -0.2569 -0.0395
  833W        W 4053  18.089   8.856  14.136  0.0435 -0.3688 -0.1338
  834W        W 4054  15.605   3.158   1.340 -0.0354  0.1770 -0.4259
  835W        W 4055  17.755   0.296   1.315 -0.0043  0.2184  0.0960
  836W        W 4056   1.601   9.504   6.673 -0.2772  0.0089  0.0439
  837W        W 4057   0.892   0.135   0.970  0.0428  0.1170 -0.0973
  838W        W 4058   0.816   4.385   0.026 -0.1812  0.0948  0.0262
  839W        W 4059  17.830   4.435   5.898  0.0066 -0.1392 -0.0849
  840W        W 4060  10.531  15.442  10.069 -0.1634 -0.1021  0.3647
  841W        W 4061   4.807  10.544   4.979 -0.1755 -0.2245  0.1956
  842W        W 4062   0.059   4.321   3.981 -0.1783 -0.3259  0.0935
  843W        W 4063  17.262   0.432   0.126 -0.0940  0.0223 -0.2234
  844W        W 4064  16.767   2.444   6.284  0.0693 -0.1226  0.1115
  845W        W 4065  15.876   8.567  17.293 -0.2242  0.0950 -0.0351
  846W        W 4066  16.047   0.818   3.821 -0.1032  0.1738  0.1727
  847W        W 4067  12.946  16.395   2.943 -0.0566 -0.0545 -0.0585
  848W        W 4068   2.915   4.133   7.637 -0.4775  0.0860  0.1056
  849W        W 4069   0.396   3.508   3.335 -0.0463 -0.0681  0.1452
  850W        W 4070  15.449   6.318   7.672  0.0507  0.0763  0.4885
  851W        W 4071   2.675   2.691   5.617  0.0323  0.0279  0.2597
  852W        W 4072   7.588   0.636   5.962 -0.0834 -0.1277 -0.2756
  853W        W 4073   0.956   3.355   5.114  0.1407 -0.1671 -0.0214
  854W        W 4074   6.533   3.283  13.489  0.0923  0.1375 -0.1135
  855W        W 4075   0.161   7.617  10.584 -0.2872 -0.0438 -0.1927
  856W        W 4076   7.120  16.504  16.146 -0.0687  0.0133 -0.1101
  857W        W 4077   1.729   0.559   4.216  0.2492 -0.1602 -0.0189
  858W        W 4078   4.186  16.320  16.627 -0.0558  0.2800 -0.0593
  859W        W 4079  10.984  11.541  11.290 -0.1334  0.1052 -0.2552
  860W        W 4080   7.480   0.677   0.493 -0.1796 -0.0660  0.0917
  861W        W 4081  15.818   2.949  10.246 -0.0905 -0.1915 -0.1633
  862W        W 4082  17.280   3.712   5.622 -0.0780 -0.0513 -0.0004
  863W        W 4083   3.571  17.440   1.772  0.1536 -0.1060 -0.0595
  864W        W 4084   1.739   2.847   7.173  0.0361 -0.4197  0.1956
  865W        W 4085  14.678   1.258  12.613  0.2565  0.0434  0.0649
  866W        W 4086   1.568   1.349   6.148  0.2114 -0.0640 -0.0730
  867W        W 4087  14.790   5.885   8.295 -0.2533  0.0091  0.1248
  868W        W 4088   4.425  17.483   1.341  0.1545  0.0516  0.0659
  869W        W 4089   9.919   4.751   0.168 -0.1037 -0.0479  0.2511
  870W        W 4090  10.065   3.983   7.425 -0.2944 -0.1258  0.0397
  871W        W 4091  12.922   1.701   3.911  0.0030  0.1655 -0.0286
  872W        W 4092   1.271   0.312   7.522 -0.0736  0.0827 -0.1105
  873W        W 4093   6.885   3.081   5.464  0.1504 -0.0852 -0.0915
  874W        W 4094   1.497  17.011  13.387  0.0569 -0.3480 -0.0230
  875W        W 4095   3.263  17.867  15.663  0.0961  0.2570 -0.2274
  876W        W 4096   0.445   8.289   9.446 -0.0937  0.0065  0.0979
  877W        W 4097  13.694   1.311   4.516 -0.0213 -0.0174 -0.2032
  878W        W 4098  13.766   2.494   3.339 -0.1745  0.1112  0.0095
  879W        W 4099   0.710  17.109   6.932  0.2435  0.0672  0.3047
  880W        W 4100   1.708   1.789   0.603 -0.1465  0.0597 -0.1046
  881W        W 4101   0.394   2.929   2.920 -0.0405 -0.2074 -0.2481
  882W        W 4102   2.251   4.630   3.481  0.2828 -0.2253 -0.3105
  883W        W 4103   6.743   4.776   6.610 -0.0768  0.0724  0.2376
  884W        W 4104   4.204  15.894  15.561 -0.0118 -0.5355  0.2242
  885W        W 4105  13.766  15.170  18.188 -0.2689 -0.4150  0.1531
  886W        W 4106   1.215   0.666  17.380  0.1188  0.0596 -0.1915
  887W        W 4107  12.649   3.662  12.638 -0.0628 -0.0576 -0.2407
  888W        W 4108   4.693   5.336   9.808  0.1196  0.1475  0.0154
  889W        W 4109   5.760  15.649  10.396  0.1624 -0.0138 -0.0120
  890W        W 4110  14.585   2.758  14.493 -0.1335  0.0302  0.0327
  891W        W 4111   4.156   4.850  12.813 -0.1157 -0.3703  0.1202
  892W        W 4112   1.353   1.285   8.179  0.1499  0.1272 -0.1304
  893W        W 4113  18.093   5.077  10.944 -0.4016 -0.2156  0.0497
  894W        W 4114   1.537  16.359   4.769  0.0629  0.0722  0.0249
  895W        W 4115   0.415   1.045  12.514 -0.1421  0.0046 -0.2423
  896W        W 4116   2.593   1.853  11.908 -0.3671 -0.0044  0.0978
  897W        W 4117  15.655   2.208   8.414 -0.0474  0.0277  0.2340
  898W        W 4118   5.639   7.810  15.923  0.1457  0.1085 -0.0574
  899W        W 4119  16.674   4.649  14.585  0.4233 -0.0441  0.1913
  900W        W 4120  15.439  14.295   7.339 -0.0707  0.1640  0.1103
  901W        W 4121  15.656  10.863  11.930  0.1902 -0.1470 -0.1568
  902W        W 4122   0.517   0.072  11.463 -0.1266 -0.2899  0.1615
  903W        W 4123  13.552   4.094   9.485  0.1637 -0.3059 -0.2289
  904W        W 4124   2.202  12.520  10.503  0.3891  0.0458 -0.0933
  905W        W 4125  10.350   0.564   1.849 -0.0273  0.2150 -0.2191
  906W        W 4126   8.114  17.438   5.289 -0.0150  0.2520  0.0204
  907W        W 4127  12.988  18.070   5.554 -0.2731  0.0630  0.0925
  908W        W 4128  15.622  14.448  12.322  0.0825 -0.0572  0.0675
  909W        W 4129   1.036   2.597   3.112  0.2270  0.0422 -0.0307
  910W        W 4130  16.504   0.125   4.065  0.2584  0.0827 -0.2836
  911W        W 4131   1.130  17.165   6.683 -0.0035  0.0227 -0.0951
  912W        W 4132   2.773   5.253   0.883 -0.0338  0.0080  0.1629
  913W        W 4133  14.849   7.877   5.939 -0.0877  0.0396 -0.3075
  914W        W 4134  18.034   1.342   1.558 -0.0904  0.1479  0.1916
  915W        W 4135  15.829   4.238  13.122 -0.0935  0.2341 -0.0686
  916W        W 4136   4.502   7.084  11.286  0.1105  0.1194  0.1737
  917W        W 4137  15.452   2.055   1.374 -0.0632  0.0297  0.2698
  918W        W 4138   2.887  11.433  10.929 -0.0012 -0.6034 -0.0132
  919W        W 4139   1.408  13.951  10.268  0.2580  0.2096  0.0940
  920W        W 4140   3.479   3.930   1.000  0.1958  0.2228  0.1096
  921W        W 4141   2.985   1.155   5.645 -0.0387 -0.2466  0.1303
  922W        W 4142   7.417   9.867   8.157  0.0234  0.3579 -0.0981
  923W        W 4143   7.204  18.208  10.469 -0.0425 -0.3656  0.2161
  924W        W 4144   4.491  10.554   7.144 -0.2529  0.3018  0.2326
  925W        W 4145   1.724   2.180  15.720 -0.3555  0.1773 -0.0687
  926W        W 4146   8.221   2.009   9.087 -0.1679  0.0899 -0.1023
  927W        W 4147  16.069   0.603  14.457  0.3106 -0.1978 -0.0185
  928W        W 4148   6.450  13.240   7.629 -0.1333  0.3223 -0.0755
  929W        W 4149   6.812   7.076   9.341 -0.0406  0.0399 -0.0504
  930W        W 4150  11.172   4.412   7.649  0.2505 -0.1658  0.0792
  931W        W 4151  14.215   7.227  12.499  0.1555  0.0735  0.0244
  932W        W 4152  17.430   0.386   5.986 -0.1474  0.1726  0.1626
  933W        W 4153   4.518  14.371   2.455  0.1381  0.1326  0.0308
  934W        W 4154   8.001   4.450   9.384  0.1334  0.3016  0.0188
  935W        W 4155   2.540  15.232   6.844 -0.1163  0.0407  0.2763
  936W        W 4156  18.087   7.335   7.233 -0.0122  0.0084 -0.1347
  937W        W 4157   4.102   4.794   1.396  0.1215  0.0937 -0.1922
  938W        W 4158   1.941  15.216  11.730 -0.1482 -0.0245 -0.2039
  939W        W 4159   1.295   6.189   2.779  0.4635  0.3362  0.2948
  940W        W 4160   1.649  16.479  12.175 -0.1568  0.0565  0.2811
  941W        W 4161   1.275  15.565  14.734  0.2539  0.2700 -0.0889
  942W        W 4162   2.123   2.774  14.098  0.0605 -0.0254  0.0726
  943W        W 4163  18.177   1.509  11.772 -0.2389  0.0472  0.1649
  944W        W 4164  17.253   0.667   7.488  0.1600 -0.0676 -0.0881
  945W        W 4165  17.654  16.431  11.807 -0.1183 -0.1564 -0.3409
  946W        W 4166   1.971  16.143  12.510  0.1769 -0.1325  0.0355
  947W        W 4167   8.945   9.467   5.148 -0.1394  0.0094  0.0025
  948W        W 4168   3.207   3.060   9.780  0.1472 -0.0537  0.0526
  949W        W 4169   1.034  16.807   3.259 -0.1119  0.1333 -0.1176
  950W        W 4170   4.402   0.515   8.070 -0.1555  0.0414 -0.0203
  951W        W 4171  10.201   0.538  10.491  0.0585 -0.0008  0.0404
  952W        W 4172  14.591   2.835   5.008  0.0948  0.0607  0.2144
  953W        W 4173   8.910  17.082  12.969 -0.2337 -0.0428  0.1004
  954W        W 4174   2.366   2.265   8.851  0.2290 -0.1964 -0.3328
  955W        W 4175  14.961  17.911   6.353  0.1314  0.1281  0.3749
  956W        W 4176  14.957   1.380   4.415 -0.1143  0.0151 -0.1396
  957W        W 4177   5.844   2.637   8.678  0.2180 -0.0914  0.2520
  958W        W 4178   6.028   4.962   7.073  0.0445 -0.0518  0.1087
  959W        W 4179   7.666  15.119   9.008  0.1156  0.0809  0.1617
  960W        W 4180  17.156   6.003  12.648  0.0033 -0.0223 -0.4174
  961W        W 4181   0.618  18.191  13.867 -0.0582 -0.2673 -0.0108
  962W        W 4182  15.528   6.466   9.502 -0.1589  0.0954 -0.0781
  963W        W 4183   0.072   6.238   4.365  0.0973 -0.1232  0.2160
  964W        W 4184   0.348  16.611   6.846  0.0215 -0.1891  0.1996
  965W        W 4185   7.942  16.081   7.001 -0.1573 -0.2643 -0.0156
  966W        W 4186  15.874   2.160   9.958 -0.0735 -0.0304  0.0425
  967W        W 4187   1.588   6.230   9.502  0.0410 -0.3040 -0.0162
  968W        W 4188  13.028   1.614   3.397 -0.1976  0.2369 -0.0003
  969W        W 4189   2.876  17.717  14.486 -0.0697 -0.0076  0.2079
  970W        W 4190   4.500   1.351  12.284  0.2636 -0.1807 -0.0077
  971W        W 4191  15.711   2.870   9.548 -0.0263  0.4060  0.2952
  972W        W 4192   4.335  16.987  10.415 -0.2930 -0.0254 -0.0310
  973W        W 4193  12.724   1.373   8.490  0.1118  0.0339  0.0896
  974W        W 4194   8.213   2.941  12.361  0.0475  0.2647 -0.5678
  975W        W 4195  10.634  18.013  10.299  0.0851  0.0209  0.1017
  976W        W 4196   3.581   0.902  11.847  0.2055  0.1928 -0.0897
  977W        W 4197   5.906   0.755  10.973 -0.0034 -0.0806  0.0233
  978W        W 4198   4.063   5.187   5.656 -0.0565 -0.2279  0.0223
  979W        W 4199  17.912   4.059   3.724  0.1732 -0.0524 -0.0904
  980W        W 4200  15.378  13.984   8.252 -0.1122  0.0519  0.1114
  981W        W 4201  13.355  14.539   7.575 -0.0953  0.0094 -0.3988
  982W        W 4202   1.079  18.143   8.886 -0.0669 -0.3719  0.2308
  983W        W 4203   3.184   1.929   9.017 -0.0056 -0.1460  0.1976
  984W        W 4204   0.959  15.165  11.782 -0.0544 -0.2260  0.1611
  985W        W 4205   3.446  14.190   4.352 -0.0335  0.0347 -0.2270
  986W        W 4206   0.967   0.517   4.312  0.1158 -0.1790 -0.0076
  987W        W 4207   1.826   3.319  14.353 -0.8940 -0.1375  0.1424
  988W        W 4208  17.915   1.224   9.504 -0.4027  0.0075 -0.1092
  989W        W 4209   4.042   0.325   4.907 -0.1482 -0.2609  0.2102
  990W        W 4210   3.267   7.004  11.753 -0.0065  0.1120 -0.2541
  991W        W 4211   2.745  14.140   6.429 -0.0667  0.2582  0.4893
  992W        W 4212  18.134   2.152   4.969 -0.0283 -0.1096  0.0010
  993W        W 4213   1.986  17.689  15.636  0.3786 -0.3192  0.1682
  994W        W 4214   8.259   7.479   8.128  0.1792  0.5425  0.0390
  995W        W 4215   3.023  13.981  10.712 -0.0068  0.0816  0.2206
  996W        W 4216  15.088   4.884  10.969 -0.0491 -0.1038  0.2601
  997W        W 4217  17.225   1.032   2.994 -0.1361  0.1071  0.0659
  998W        W 4218   8.127   0.802  10.248 -0.2883  0.1707 -0.1600
  999W        W 4219   8.246   8.189  16.995 -0.2869 -0.2321  0.0423
 1000W        W 4220   3.372   4.371   4.373 -0.1297 -0.1790  0.3228
 1001W        W 4221   4.380   0.817  11.584  0.3753 -0.0574  0.0412
 1002W        W 4222   8.854  17.888   5.283  0.3223  0.1527  0.1820
 1003W        W 4223   7.930   1.415  10.096  0.0135 -0.0262 -0.2050
 1004W        W 4224  16.076   5.263  13.997  0.2780 -0.1092  0.2704
 1005W        W 4225   2.677  16.552   8.064  0.2686  0.2050 -0.0930
 1006W        W 4226  17.251   1.407  11.419 -0.0634 -0.0500 -0.4560
 1007W        W 4227   4.295  14.206  17.719  0.2285  0.1652  0.1108
 1008W        W 4228  11.283  17.875   6.272  0.1787  0.0030 -0.0523
 1009W        W 4229   5.215  11.237  10.464 -0.2592 -0.0657 -0.0609
 1010W        W 4230   2.988   4.557   7.981 -0.1110 -0.0962  0.1596
 1011W        W 4231   4.039   2.246  10.762 -0.0372  0.0102  0.0496
 1012W        W 4232   5.608   3.104  13.424 -0.0516  0.3274 -0.1470
 1013W        W 4233  15.508   1.100   3.563  0.1353 -0.1088 -0.1358
 1014W        W 4234  16.184   2.812   9.369 -0.2420 -0.3657  0.1647
 1015W        W 4235  16.457  17.636   6.219 -0.3189  0.0673  0.1640
 1016W        W 4236  17.727   2.321   1.089  0.1419  0.0595  0.0534
 1017W        W 4237  15.035   0.314  10.074  0.2752  0.1682 -0.0206
 1018W        W 4238   6.097   6.850   9.001  0.3516  0.0741 -0.1870
 1019W        W 4239   6.619   1.012   9.777  0.2816 -0.1432 -0.1173
 1020W        W 4240   4.598  10.198   1.839  0.4444  0.3746  0.0466
 1021W        W 4241   0.913   5.848  11.467 -0.0586  0.4739 -0.0647
 1022W        W 4242  17.917  17.428   7.106  0.0634 -0.4114  0.1925
 1023W        W 4243   1.283  15.356   6.206  0.0005 -0.0391  0.2079
 1024W        W 4244  17.170  15.357   4.464  0.1570  0.0198  0.0906
 1025W        W 4245   1.504   0.779   5.328 -0.2900  0.2607  0.4035
 1026W        W 4246   4.461  15.413  16.884 -0.0888 -0.1306  0.0360
 1027W        W 4247  16.413   5.799   8.465 -0.3726  0.1561  0.1018
 1028W        W 4248  17.726   1.319   6.483  0.1140 -0.0171 -0.3065
 1029W        W 4249  17.744   1.802   8.691 -0.1025  0.2615 -0.0425
 1030W        W 4250   4.441   0.420   0.240 -0.0635  0.1695 -0.0886
 1031W        W 4251   3.102   4.034   2.950 -0.0070  0.0099  0.0938
 1032W        W 4252  17.817  18.047   9.654 -0.0758  0.0852 -0.0155
 1033W        W 4253   1.416  14.161  10.841 -0.2286  0.0866  0.2786
 1034W        W 4254  13.639   8.776   4.139  0.3660 -0.4015 -0.3981
 1035W        W 4255  15.345   3.570  11.074 -0.0123  0.1199 -0.0687
 1036W        W 4256  18.015   7.152   4.857  0.0691 -0.0751 -0.1911
 1037W        W 4257   5.865   0.068   9.910  0.0183 -0.4103 -0.2185
 1038W        W 4258  15.522   3.915  11.904 -0.1750 -0.1511  0.0189
 1039W        W 4259   1.479   3.536  15.839 -0.6339 -0.1982  0.1073
 1040W        W 4260   2.260  10.371   6.940  0.1587  0.2474  0.0418
 1041W        W 4261   3.739  16.942   5.943  0.0356  0.0910  0.1761
 1042W        W 4262  11.137  14.356  13.413  0.0539 -0.1102 -0.0031
 1043W        W 4263   6.160   2.530  14.040 -0.1694  0.3798  0.0579
 1044W        W 4264  13.307   8.564  13.806  0.0635  0.1807  0.2957
 1045W        W 4265   5.280  16.172   8.379 -0.0231 -0.1341  0.3353
 1046W        W 4266   5.678   4.624  15.560 -0.1129 -0.0273  0.0183
 1047W        W 4267   3.393   5.191   3.512  0.0848 -0.0498 -0.1171
 1048W        W 4268  14.507  14.740  12.324  0.0850 -0.2807  0.0818
 1049W        W 4269   2.048  18.129   6.771 -0.3226  0.0133  0.0049
 1050W        W 4270   1.722  11.042   7.334  0.0902 -0.2480 -0.2333
 1051W        W 4271  12.345  15.749   7.666 -0.0944  0.0605 -0.2656
 1052W        W 4272   2.127   2.140  11.210  0.0358 -0.0016 -0.1150
 1053W        W 4273  16.314   2.154  12.039 -0.2216  0.2097 -0.2027
 1054W        W 4274   1.757   2.757  11.713  0.0838 -0.1630 -0.3221
 1055W        W 4275   5.461  10.201   9.548 -0.3146 -0.0282  0.1093
 1056W        W 4276   4.612   7.524  13.995  0.1773  0.0700  0.2770
 1057W        W 4277  10.232  15.325  11.117  0.0594  0.1069  0.2871
 1058W        W 4278   8.859   5.812  10.284 -0.0750 -0.0095 -0.1947
 1059W        W 4279  15.426   8.651  14.145 -0.3204  0.3102  0.2284
 1060W        W 4280   6.507  17.032   1.122 -0.1975 -0.2624  0.1695
 1061W        W 4281   0.681  10.696   8.317 -0.0183 -0.0609  0.3092
 1062W        W 4282   0.839   4.869  10.288  0.2018  0.1315  0.1441
 1063W        W 4283  17.825   6.480   4.400 -0.0569 -0.0842  0.2961
 1064W        W 4284   8.333   4.665   8.934  0.1007 -0.0894  0.1236
 1065W        W 4285   7.647   9.051   3.515 -0.3604  0.3413  0.1588
 1066W        W 4286   0.014   0.811   5.058  0.3524  0.0103  0.1587
 1067W        W 4287  17.392  15.383  13.687  0.2275 -0.2078  0.2591
 1068W        W 4288  10.479  14.492   5.883  0.3381 -0.1052  0.0863
 1069W        W 4289  16.464   4.991   5.160 -0.0773  0.0185 -0.0369
 1070W        W 4290  15.347   3.112   4.000  0.1579  0.1820 -0.0270
 1071W        W 4291   5.550   4.501   3.760 -0.0498  0.0811 -0.0720
 1072W        W 4292   4.826  17.208   1.602  0.3647  0.0593 -0.0953
 1073W        W 4293  15.904   3.110   4.356  0.2946  0.0224 -0.3147
 1074W        W 4294  13.983  15.492  12.607  0.2492 -0.2862 -0.1809
 1075W        W 4295   1.414  16.605  14.217  0.1966  0.2852 -0.0637
 1076W        W 4296   3.524   1.136  15.530 -0.3708  0.1114 -0.2352
 1077W        W 4297   4.284  14.682   6.285 -0.0224  0.0755 -0.0578
 1078W        W 4298   3.422   1.654   0.880 -0.0651  0.2938  0.2575
 1079W        W 4299  17.771   1.630   5.786  0.0302  0.0237 -0.1767
 1080W        W 4300   4.588  15.192   5.363 -0.3824 -0.1936  0.0905
 1081W        W 4301  14.424   0.379  12.339 -0.1934 -0.1969  0.0457
 1082W        W 4302   3.660  16.005   8.935  0.1824 -0.2173 -0.0210
 1083W        W 4303  17.621  17.887  10.964 -0.2921 -0.1868 -0.0660
 1084W        W 4304   3.711  15.891  10.663  0.1506 -0.0230  0.4308
 1085W        W 4305   1.790  14.653   6.787 -0.0443  0.5487 -0.1744
 1086W        W 4306  16.715  13.167   7.299 -0.1739  0.2830  0.0187
 1087W        W 4307   3.848  15.663   8.712  0.0886  0.0550 -0.2197
 1088W        W 4308  17.881   3.510   7.658  0.1283  0.3705 -0.1071
 1089W        W 4309  18.205   3.946   9.499  0.0090  0.2402 -0.2089
 1090W        W 4310   3.617   5.083   5.503 -0.0635  0.0016 -0.0480
 1091W        W 4311  16.622   5.422   9.380 -0.0221  0.2932 -0.1947
 1092W        W 4312  14.602   2.705  10.234  0.1069 -0.0684 -0.3146
 1093W        W 4313   5.223  14.042   6.629  0.4976 -0.0828  0.1771
 1094W        W 4314  13.905  16.068  13.724 -0.1106 -0.0274  0.1738
 1095W        W 4315   4.549  15.787  12.185 -0.0045 -0.0286 -0.0336
 1096W        W 4316  16.896  15.259   9.003 -0.1827 -0.2112 -0.4532
 1097W        W 4317   2.668  12.437   1.243  0.4441  0.0473 -0.2140
 1098W        W 4318   4.639  17.877  11.485 -0.3952 -0.1715  0.2041
 1099W        W 4319   6.262   6.811   2.589  0.1666  0.1716  0.1522
 1100W        W 4320   0.049   0.331   7.924 -0.0647 -0.0212  0.1972
 1101W        W 4321  17.214  12.286  10.345 -0.1090 -0.0794  0.2182
 1102W        W 4322   2.942  17.708  11.386  0.1668  0.1305  0.4124
 1103W        W 4323  15.275   5.141  11.384 -0.0260  0.0767  0.1607
 1104W        W 4324   4.786   2.117   3.625 -0.0882  0.0451  0.0805
 1105W        W 4325  15.104  18.108  12.689 -0.1411  0.3260 -0.0538
 1106W        W 4326  10.634  17.713   4.248 -0.1333  0.0308  0.1894
 1107W        W 4327  14.028   1.387   6.284  0.1588 -0.0764  0.3138
 1108W        W 4328  16.665  13.978  12.233  0.0903  0.0170 -0.2961
 1109W        W 4329   2.614  11.255  14.362 -0.2081  0.0390  0.1807
 1110W        W 4330   6.040   7.206  11.307  0.1807 -0.0928 -0.2184
 1111W        W 4331  16.688   3.238   8.665 -0.1543 -0.0659 -0.1112
 1112W        W 4332  17.692  13.984   8.060  0.0382 -0.0533 -0.0624
 1113W        W 4333   8.976   3.969   5.388  0.1801 -0.2966  0.0493
 1114W        W 4334   7.160  15.376   1.876  0.0303 -0.1441  0.0295
 1115W        W 4335  16.760  17.212  15.571 -0.0937 -0.1731 -0.0407
 1116W        W 4336   1.737   4.567  11.321 -0.2019 -0.1778  0.1737
 1117W        W 4337   2.324   0.055   8.732 -0.0328  0.0900 -0.1993
 1118W        W 4338   1.797  12.317   7.552  0.3293 -0.1995 -0.1851
 1119W        W 4339   3.055   3.450   9.478  0.2657 -0.2028 -0.3921
 1120W        W 4340  16.998   3.451   4.243  0.0006 -0.0522  0.2540
 1121W        W 4341   5.206   5.383   2.059  0.1053  0.0195 -0.1285
 1122W        W 4342  12.102   0.663  15.198 -0.0129  0.0496 -0.2866
 1123W        W 4343   4.578   1.408  10.915  0.2212 -0.1114 -0.0555
 1124W        W 4344   2.402  16.322   5.744 -0.0436  0.2061 -0.1773
 1125W        W 4345   1.779   1.408   9.900  0.1308  0.0397  0.0036
 1126W        W 4346  14.832   1.802   8.031 -0.0433  0.0727  0.1582
 1127W        W 4347  16.187   0.590   8.379 -0.1693  0.0644  0.0906
 1128W        W 4348  16.281   7.641   4.207 -0.1539 -0.0638  0.0881
 1129W        W 4349   0.792   1.773  16.469 -0.1968 -0.1698  0.1254
 1130W        W 4350  15.756   1.721   8.214 -0.2398  0.1309 -0.1107
 1131W        W 4351   7.562   0.943   8.789 -0.1672 -0.1847 -0.1229
 1132W        W 4352   2.751   9.304   5.382  0.2566  0.2134 -0.1886
 1133W        W 4353   8.781   5.316   5.529 -0.0726  0.4396  0.1985
 1134W        W 4354   2.018   0.507  11.476 -0.0683  0.1068 -0.3704
 1135W        W 4355   4.840   8.905   7.767  0.0327 -0.0263  0.2967
 1136W        W 4356   7.994   4.670  11.554  0.1253  0.0289  0.0356
 1137W        W 4357   1.763   1.085  10.947  0.1767 -0.2535 -0.3358
 1138W        W 4358  14.462   1.267  11.935  0.1465  0.2428  0.0147
 1139W        W 4359   7.568  10.354  11.065 -0.0310 -0.2635  0.3746
 1140W        W 4360  16.303   2.244  16.304  0.0069  0.1020 -0.1439
 1141W        W 4361  15.063   4.654   4.378 -0.2096 -0.3956  0.2463
 1142W        W 4362   1.143  11.481   7.833  0.1959 -0.0481 -0.0273
 1143W        W 4363  16.511   9.409  13.636  0.0548  0.1145  0.0593
 1144W        W 4364   3.736   1.921  10.537 -0.0266  0.1366  0.0695
 1145W        W 4365   2.784   1.836   7.063 -0.1999  0.1003  0.0406
 1146W        W 4366  17.408  12.907   4.509  0.0709 -0.0019 -0.1756
 1147W        W 4367  15.579   6.887   3.554  0.1600  0.2068 -0.0888
 1148W        W 4368   7.722  16.547   8.090 -0.1444 -0.0036 -0.4543
 1149W        W 4369   2.166   0.331  12.202  0.0227 -0.2250 -0.3147
 1150W        W 4370   2.242   4.759   2.115  0.1898  0.1335 -0.1801
 1151W        W 4371  17.105  11.185   6.294 -0.0765 -0.0648 -0.1443
 1152W        W 4372  13.422   0.087  14.924  0.2038 -0.3408 -0.4764
 1153W        W 4373   2.092   1.439   6.961  0.0044  0.0467  0.0212
 1154W        W 4374  18.103   0.834   2.716  0.0326 -0.2850  0.1815
 1155W        W 4375   3.325  15.817   6.994 -0.2098  0.2310 -0.1742
 1156W        W 4376  17.012  14.017   8.597  0.0499  0.0444  0.2484
 1157W        W 4377   9.963  14.956   1.834  0.0108  0.2072  0.2420
 1158W        W 4378   6.078   0.857  15.213 -0.3186 -0.1417  0.2963
 1159W        W 4379   0.373  16.186  11.263  0.1384 -0.0264 -0.2402
 1160W        W 4380  15.839   3.025  13.782 -0.0017  0.1344 -0.0759
 1161W        W 4381  15.867  14.517  11.864  0.0403  0.0904  0.3974
 1162W        W 4382  17.965  15.209  13.284 -0.2229  0.2895  0.1515
 1163W        W 4383   6.882  12.739   4.026  0.0537 -0.0450 -0.0418
 1164W        W 4384  15.610   4.948  14.069 -0.0200  0.1316  0.2234
 1165W        W 4385   4.563  10.118   4.762 -0.1782 -0.1001  0.1826
 1166W        W 4386   5.025   6.153   7.160 -0.2807  0.0130  0.0837
 1167W        W 4387  13.182   0.910  11.437  0.3615 -0.0146 -0.0126
 1168W        W 4388  18.218  16.987   7.846 -0.0320 -0.3186 -0.1258
 1169W        W 4389   0.224  10.709   8.411 -0.0983 -0.0864  0.3375
 1170W        W 4390   4.081   2.993   8.002  0.1653  0.3719 -0.3519
 1171W        W 4391   0.691   1.660   8.115  0.0114  0.1363  0.0809
 1172W        W 4392   2.748   3.375   1.522 -0.1521  0.1960 -0.2075
 1173W        W 4393  16.408   2.201   4.301  0.0592 -0.1021  0.0731
 1174W        W 4394   0.269   3.915   3.634 -0.1256  0.0530 -0.1141
 1175W        W 4395  14.428  17.568   5.117 -0.1298 -0.1686 -0.2559
 1176W        W 4396   1.449  13.908  15.631  0.0264 -0.0085 -0.4698
 1177W        W 4397   5.911   2.497  10.249  0.1934  0.0726 -0.2718
 1178W        W 4398   0.057  17.004   5.430  0.0656 -0.1825  0.2239
 1179W        W 4399  17.746   2.640  12.475  0.1942 -0.2326 -0.0436
 1180W        W 4400   1.946  13.481   8.461 -0.1885  0.2033 -0.0533
 1181W        W 4401  17.260   4.782   8.585 -0.2488  0.2453  0.0645
 1182W        W 4402  17.689   0.331   9.821 -0.2026  0.2275  0.0070
 1183W        W 4403   0.784   1.647   9.614  0.0512 -0.2858 -0.1626
 1184W        W 4404   5.048   0.235   5.220 -0.0845  0.1961 -0.0508
 1185W        W 4405   5.283  15.058   9.388  0.1892 -0.3103  0.0756
 1186W        W 4406   5.667   0.741  11.736  0.1342  0.1192 -0.0742
 1187W        W 4407   1.533  14.639  10.142 -0.0757 -0.0709 -0.0874
 1188W        W 4408   2.530   2.319  12.704  0.0208 -0.0874  0.0656
 1189W        W 4409   7.182   1.644   9.347 -0.3035  0.1056 -0.1496
 1190W        W 4410   5.396  15.529   9.947  0.0099  0.1498 -0.0848
 1191W        W 4411  10.310  11.566  12.607 -0.0618 -0.2266  0.0548
 1192W        W 4412  17.922   0.459  10.808  0.1123  0.4171 -0.2050
 1193W        W 4413  18.146   2.998   2.878 -0.0444 -0.2055 -0.0646
 1194W        W 4414   3.629  17.889  11.103  0.3320 -0.0690  0.4507
 1195W        W 4415   4.954   3.196  12.794 -0.1795  0.0369 -0.2970
 1196W        W 4416  18.249   2.084   1.975  0.0531  0.0853  0.1838
 1197W        W 4417   1.953   0.378   6.969 -0.0165 -0.0639 -0.1157
 1198W        W 4418  15.565  16.294  10.235  0.2290  0.0054 -0.0037
 1199W        W 4419   3.632   4.201   6.470  0.0810 -0.0954 -0.0628
 1200W        W 4420  14.093  16.373   9.184 -0.0205 -0.3516  0.1590
 1201W        W 4421  18.057   2.363  10.297 -0.1864  0.1679 -0.0721
 1202W        W 4422  14.350  17.154  14.733 -0.2811  0.2010  0.1639
 1203W        W 4423   4.095  15.627   9.162 -0.3186 -0.0625  0.4285
 1204W        W 4424  13.136  17.729  11.282  0.0703 -0.1692 -0.1484
 1205W        W 4425   8.452   1.172   7.806 -0.1303 -0.2286  0.1060
 1206W        W 4426   0.614  17.932   2.358  0.0906  0.0645  0.2075
 1207W        W 4427   0.598   0.180   2.400 -0.0961  0.2266  0.1234
 1208W        W 4428  16.375   4.638   2.207  0.0764  0.3646 -0.2161
 1209W        W 4429   5.751  13.756   7.504  0.2530 -0.1267  0.1054
 1210W        W 4430  16.599   2.469   5.379  0.0572  0.1776 -0.1502
 1211W        W 4431   2.203   9.459  11.165  0.1307  0.1489  0.1887
 1212W        W 4432   2.655  17.864   5.126  0.0986 -0.1345  0.0757
 1213W        W 4433   7.182   4.135  14.761 -0.1259 -0.0195 -0.1470
 1214W        W 4434  13.071   3.826   0.831  0.1978 -0.1927 -0.1869
 1215W        W 4435   2.037  17.630   9.678  0.0945  0.1362 -0.0677
 1216W        W 4436  18.089   2.915   7.589  0.1003  0.1146  0.3573
 1217W        W 4437   4.993   1.992  13.481  0.0703 -0.1265 -0.1807
 1218W        W 4438   5.930   2.847  13.762  0.0442 -0.0928 -0.1672
 1219W        W 4439  13.437   2.396  15.888 -0.3910  0.1478 -0.0770
 1220W        W 4440   4.634   0.122   7.099 -0.1645  0.2099  0.1620
 1221W        W 4441  11.466   1.805   4.818 -0.4450  0.2829  0.0941
 1222W        W 4442   7.147   0.325   8.663 -0.1057 -0.2773 -0.1752
 1223W        W 4443   1.098   5.319   8.742 -0.1871  0.1880  0.1572
 1224W        W 4444   3.540   5.082   8.892 -0.0621 -0.0347  0.0430
 1225W        W 4445   1.821   3.501  11.314 -0.0516  0.2233 -0.1270
 1226W        W 4446  16.205  12.214  13.196 -0.1275  0.3308 -0.0597
 1227W        W 4447   3.511  17.374   7.981 -0.1949 -0.3861  0.1364
 1228W        W 4448  17.132  15.307  18.063  0.1984  0.2280  0.3145
 1229W        W 4449  12.497   5.457   8.177  0.0652  0.5211 -0.0201
 1230W        W 4450   4.449   2.300   8.778 -0.0588 -0.2056 -0.2161
 1231W        W 4451  15.079  16.397   8.263  0.1732 -0.0642 -0.1652
 1232W        W 4452   2.220  12.761  11.007  0.0667  0.0795  0.1293
 1233W        W 4453  18.149   4.439  10.925  0.0305  0.2527  0.0800
 1234W        W 4454  14.116  14.718   3.476 -0.1653 -0.1024  0.2295
 1235W        W 4455  17.616   6.870  10.019  0.1552  0.2085  0.1623
 1236W        W 4456  16.728   1.592  17.399  0.1846  0.4047 -0.1154
 1237W        W 4457  12.592   0.094   6.823  0.1781  0.2765  0.0401
 1238W        W 4458  17.151  17.411  10.404 -0.1850 -0.0902 -0.0334
 1239W        W 4459   3.037   7.212  12.768 -0.1864 -0.0624 -0.1712
 1240W        W 4460   0.958  16.320   3.593  0.0519 -0.2936  0.2462
 1241W        W 4461  15.051   2.494  11.839  0.0797 -0.2219  0.0842
 1242W        W 4462   4.536   1.016   8.188 -0.3048 -0.0880  0.2443
 1243W        W 4463   2.309   4.328   5.625 -0.0468  0.3159  0.1193
 1244W        W 4464   0.867  11.675  17.154 -0.2475 -0.1685 -0.0386
 1245W        W 4465   8.636  15.895   8.972  0.2589  0.1907  0.0699
 1246W        W 4466   5.476   2.430   7.118 -0.1762  0.1424 -0.0749
 1247W        W 4467   2.506   1.756   4.084 -0.3521 -0.0711 -0.3766
 1248W        W 4468  11.142   6.705   2.975  0.0852 -0.1601 -0.2347
 1249W        W 4469  14.316  13.575   1.826  0.1539 -0.0152  0.0678
 1250W        W 4470  10.049   0.483   5.466  0.0639 -0.1210 -0.1253
 1251W        W 4471   3.242   2.472  11.311  0.2823 -0.0927  0.1957
 1252W        W 4472   5.037  16.065  11.492  0.0785  0.0251  0.0024
 1253W        W 4473   2.144   1.046  11.290  0.0400 -0.0935  0.0254
 1254W        W 4474  13.729  15.319   7.763  0.1236 -0.0552  0.0309
 1255W        W 4475   8.844   3.191  17.095  0.1018 -0.3608 -0.0106
 1256W        W 4476  17.511   0.007   6.891  0.2849 -0.1604  0.1076
 1257W        W 4477  15.583  17.291   7.983 -0.1841 -0.1411 -0.1452
 1258W        W 4478  12.242  16.923   3.342 -0.0164  0.1449 -0.1142
 1259W        W 4479  13.416  16.657  12.765 -0.1185  0.2877  0.1853
 1260W        W 4480  15.222  14.144   6.299  0.0404 -0.0175  0.0396
 1261W        W 4481  16.499  15.622  10.367  0.1699 -0.2748 -0.1367
 1262W        W 4482   4.155  13.084  15.072 -0.1798 -0.0821  0.3682
 1263W        W 4483  10.385   2.522  13.241 -0.2128 -0.2388 -0.0334
 1264W        W 4484  17.108   1.667  12.178  0.1331 -0.0777  0.2542
 1265W        W 4485  13.416   2.461   9.017 -0.1263 -0.0300  0.2234
 1266W        W 4486   2.821   6.231   9.672 -0.1491 -0.1443 -0.0139
 1267W        W 4487   6.082  16.525   9.481 -0.1410  0.1552 -0.1385
 1268W        W 4488  17.740  17.456  10.031 -0.0879  0.0325  0.0608
 1269W        W 4489   5.403   3.299   7.459 -0.5221 -0.1978 -0.1811
 1270W        W 4490  16.788   4.405  13.594  0.3653 -0.1124  0.1068
 1271W        W 4491   1.449   2.194   9.252  0.0322 -0.1370  0.1479
 1272W        W 4492  14.064  15.600   0.320  0.1640 -0.2317  0.1853
 1273W        W 4493  13.799  12.412  10.326  0.2239  0.0530 -0.0395
 1274W        W 4494  16.995   8.760  14.055  0.1604 -0.3499 -0.2097
 1275W        W 4495   3.301   4.708  11.657 -0.0878 -0.0084 -0.1504
 1276W        W 4496   5.550  15.634   5.710  0.3900  0.0331  0.0096
 1277W        W 4497   0.531   7.082  12.287  0.1936 -0.1825 -0.0918
 1278W        W 4498   9.819   3.157   9.958  0.1412 -0.2713  0.1203
 1279W        W 4499  18.079   1.614  16.890 -0.1136 -0.0442 -0.1408
 1280W        W 4500   3.058   0.523  10.371  0.0002  0.0421 -0.2100
 1281W        W 4501   6.675   1.543  15.029 -0.2712 -0.2760 -0.2961
 1282W        W 4502   0.552   8.552  12.808  0.2253 -0.0656  0.0646
 1283W        W 4503  15.538  17.995  15.694  0.3064  0.0644  0.2407
 1284W        W 4504  16.392  16.259   6.756 -0.0239  0.0344 -0.0742
 1285W        W 4505  10.364   0.040  11.342  0.1776 -0.1965  0.3063
 1286W        W 4506   3.085   4.413   3.959 -0.2305 -0.1157 -0.2110
 1287W        W 4507  11.664   1.148   9.546 -0.1406  0.0249  0.1170
 1288W        W 4508   0.263   1.498   8.296 -0.1605 -0.1523 -0.1983
 1289W        W 4509   0.698  11.866  10.144  0.3491 -0.0286 -0.0335
 1290W        W 4510   1.857   5.804  10.838 -0.2804 -0.1915  0.0774
 1291W        W 4511   5.754   3.348  15.581 -0.0810  0.0321  0.0458
 1292W        W 4512  16.496  15.720   6.314  0.3129  0.1489 -0.2420
 1293W        W 4513   2.477   7.486  15.333  0.1283  0.0134 -0.3830
 1294W        W 4514   1.595   0.341  14.537 -0.1499 -0.0606 -0.2433
 1295W        W 4515   4.631  18.123  16.570  0.1430 -0.0588 -0.0082
 1296W        W 4516   6.975   4.405  15.294 -0.2610  0.0965 -0.3580
 1297W        W 4517   7.371   6.308  12.809 -0.0192  0.1626 -0.1156
 1298W        W 4518   1.338   4.858   3.722 -0.0047 -0.0836  0.1878
 1299W        W 4519   1.373   0.663  18.196 -0.1639 -0.1203 -0.3151
 1300W        W 4520   0.614   7.922  10.568 -0.1252  0.0559 -0.0706
 1301W        W 4521   3.744   0.734  11.025  0.1866 -0.0789 -0.2127
 1302W        W 4522  15.036   2.435  14.586  0.0279 -0.2220  0.2498
 1303W        W 4523  11.383   1.127   8.594  0.2627 -0.2060  0.1106
 1304W        W 4524   0.190   3.426  16.903 -0.0677 -0.0625  0.0104
 1305W        W 4525   3.409  12.934   4.802 -0.1445  0.0600  0.1334
 1306W        W 4526  10.323  17.671  12.052 -0.1817 -0.0334 -0.1898
 1307W        W 4527   5.589  13.228  11.688 -0.3489  0.1277 -0.2751
 1308W        W 4528  17.124  10.387   4.952  0.1196 -0.0447 -0.0257
 1309W        W 4529   0.634   5.775  14.208 -0.0783 -0.3069 -0.1303
 1310W        W 4530   2.111   2.412  10.790 -0.3970 -0.0544 -0.2840
 1311W        W 4531   2.494   1.551   6.727 -0.4740 -0.0553 -0.2153
 1312W        W 4532   0.365   1.688  14.528 -0.0122 -0.1875 -0.0689
 1313W        W 4533   5.110  17.585  12.326  0.2330  0.0690  0.2100
 1314W        W 4534  13.215   3.427  13.118 -0.1768 -0.1358  0.1658
 1315W        W 4535   6.357   3.082  16.544 -0.0425 -0.4363 -0.1505
 1316W        W 4536   0.437   2.782   6.228  0.1442  0.1605 -0.1932
 1317W        W 4537   0.140   0.027   9.714 -0.1207  0.1762  0.2058
 1318W        W 4538   6.963   0.668  15.146  0.4037  0.0723  0.2417
 1319W        W 4539  17.301   1.849   8.278  0.0609 -0.1358  0.1424
 1320W        W 4540  14.032   4.901  12.004  0.0912  0.1406  0.1602
 1321W        W 4541   5.512   8.167   8.278  0.0870 -0.0856 -0.1317
 1322W        W 4542   4.425   3.030   1.028 -0.0512  0.1033  0.0735
 1323W        W 4543   0.763   3.840   5.599 -0.1751  0.1763  0.1489
 1324W        W 4544  16.903   0.160  13.176  0.0754 -0.4728 -0.1683
 1325W        W 4545  12.328  16.620   9.454  0.2926  0.0562 -0.0306
 1326W        W 4546  16.876  18.173   8.643 -0.1655 -0.0955  0.1421
 1327W        W 4547  15.438   4.360  13.546 -0.2435  0.1277  0.1670
 1328W        W 4548   4.514   0.393  11.330 -0.1956  0.0650  0.3768
 1329W        W 4549   5.167  14.697  13.677  0.0113 -0.0467 -0.0631
 1330W        W 4550   5.301   5.672   7.044 -0.1784 -0.1464  0.0994
 1331W        W 4551   3.996  13.401   8.706 -0.1025 -0.2838 -0.1366
 1332W        W 4552   7.710  16.649   8.628  0.0999  0.0173 -0.2257
 1333W        W 4553  17.948   5.030  11.419  0.1622 -0.0190 -0.2317
 1334W        W 4554  15.817   5.333   1.256  0.0920 -0.3133 -0.0500
 1335W        W 4555   3.567   0.034  15.372  0.2910  0.0968  0.1406
 1336W        W 4556   5.313   9.791  10.071  0.2022 -0.1076  0.1233
 1337W        W 4557   3.400   1.687   9.408  0.0218  0.3773  0.1384
 1338W        W 4558  16.543   1.438  14.882  0.0257  0.2556 -0.2955
 1339W        W 4559   1.002   4.453   2.199 -0.2011 -0.0927 -0.1413
 1340W        W 4560  17.685   8.779   4.996  0.0830 -0.1099 -0.0731
 1341W        W 4561  14.803   2.687   6.091  0.0677 -0.1268  0.3121
 1342W        W 4562  16.625   0.279  17.720  0.1650 -0.0596 -0.0099
 1343W        W 4563   6.003  13.227  17.706  0.1797 -0.0812  0.2552
 1344W        W 4564   5.218  16.574  12.083 -0.0518 -0.0694  0.1458
 1345W        W 4565   9.957  18.061  15.661  0.1619 -0.1575  0.0551
 1346W        W 4566   1.605  13.500   5.991  0.1897  0.0121 -0.1331
 1347W        W 4567  16.825  15.548   9.470 -0.1571  0.2059  0.0698
 1348W        W 4568   4.384   2.295  12.276 -0.2986  0.1249 -0.0194
 1349W        W 4569  14.629   2.155   5.978  0.1007 -0.1173 -0.1302
 1350W        W 4570  15.942   2.606  17.146  0.1360 -0.0498 -0.0946
 1351W        W 4571   0.710   8.121   4.727  0.0272 -0.0516 -0.2565
 1352W        W 4572   9.111  14.290  12.190  0.5807 -0.1666 -0.1721
 1353W        W 4573  17.561   7.254  17.925 -0.0249  0.0474  0.1122
 1354W        W 4574   3.079   4.708  13.732  0.0048  0.2639 -0.0861
 1355W        W 4575  15.231   1.000  15.220  0.2064  0.1843  0.2462
 1356W        W 4576   0.172  17.298  16.070 -0.2334 -0.2961 -0.0722
 1357W        W 4577   0.175   7.359  14.507 -0.0763 -0.0658 -0.2248
 1358W        W 4578  15.833  16.204   0.186  0.0357 -0.0700  0.1203
 1359W        W 4579   2.544   2.180  13.828  0.2077 -0.0384 -0.2680
 1360W        W 4580   2.765  14.727   5.188 -0.1750 -0.2058  0.2455
 1361W        W 4581   5.061   5.268   0.634 -0.0499  0.0233  0.1038
 1362W        W 4582   5.601  17.470  10.002 -0.0761  0.1309  0.0752
 1363W        W 4583   1.599   5.294   9.791  0.1209  0.0555  0.2812
 1364W        W 4584   0.938   5.211  12.074 -0.3831  0.3066 -0.0019
 1365W        W 4585  16.184  16.428  15.454 -0.1939  0.0600 -0.0720
 1366W        W 4586  10.272   3.348  11.155 -0.5294 -0.1533  0.0556
 1367W        W 4587   3.764  17.563  12.566  0.1568  0.1710  0.1427
 1368W        W 4588   2.346   6.732   8.212 -0.3350  0.0186  0.3520
 1369W        W 4589   2.923   1.591  13.954 -0.0262  0.1386  0.0825
 1370W        W 4590  15.170   0.460   7.162  0.2560 -0.1894 -0.1092
 1371W        W 4591  18.118   1.326  10.382 -0.0319 -0.2548 -0.3656
 1372W        W 4592  10.736   1.512   7.915 -0.1520  0.0481  0.1764
 1373W        W 4593  14.905  12.383  15.373  0.2039 -0.1143  0.0789
 1374W        W 4594   0.149   0.993  11.269  0.0406 -0.2183 -0.2210
 1375W        W 4595   5.241   1.851  13.036 -0.1895  0.0991  0.1455
 1376W        W 4596   3.348  17.598  12.834  0.3402 -0.0091  0.0629
 1377W        W 4597   8.479   5.669  18.121 -0.1435  0.0390 -0.2156
 1378W        W 4598  13.505  17.447  13.210 -0.1362 -0.2709 -0.0043
 1379W        W 4599   2.601  15.245   8.098 -0.4701  0.0663 -0.4489
 1380W        W 4600  17.808   3.038  15.346 -0.1086 -0.2561  0.0340
 1381W        W 4601  15.523   2.343  16.618 -0.1653 -0.1476 -0.1098
 1382W        W 4602  14.870  16.367  15.290  0.1412  0.3625  0.1774
 1383W        W 4603   1.284  16.433   5.855  0.1697  0.1772  0.2847
 1384W        W 4604   5.859   1.026  17.150  0.0278 -0.1423  0.0787
 1385W        W 4605   1.653  14.888  14.566  0.2708 -0.0633 -0.2066
 1386W        W 4606   1.074   4.698  16.084 -0.1787  0.1415 -0.2210
 1387W        W 4607   9.785  11.180  14.446  0.2110 -0.0339 -0.2484
 1388W        W 4608  14.024   3.925  15.858  0.1533  0.1167  0.1299
 1389W        W 4609   0.943   2.113  13.077  0.0558  0.1642 -0.2002
 1390W        W 4610  14.786   0.889  15.025  0.0228 -0.0390  0.1636
 1391W        W 4611   1.470   4.127   8.427  0.1619 -0.2039 -0.2187
 1392W        W 4612   1.214   5.179  15.374  0.0960 -0.1176 -0.1327
 1393W        W 4613   2.869   6.876  16.418 -0.1994 -0.1799  0.0946
 1394W        W 4614  11.799  17.753  14.791  0.0641  0.0574 -0.0179
 1395W        W 4615   0.310   2.662  14.730  0.0942  0.0868 -0.0838
 1396W        W 4616   2.441  13.086   8.479 -0.2943  0.0851  0.3480
 1397W        W 4617  13.509   0.590  13.106 -0.0003 -0.0722 -0.1736
 1398W        W 4618  16.223   4.013   4.105  0.0583 -0.4136 -0.2107
 1399W        W 4619   2.833   4.903  15.106  0.1491  0.2166  0.1149
 1400W        W 4620   5.740   4.672  11.793 -0.2258 -0.1049  0.2953
 1401W        W 4621  10.539  10.127  10.225 -0.0440  0.2539  0.2622
 1402W        W 4622   0.487   0.045  12.453  0.2374  0.0245 -0.5416
 1403W        W 4623  15.036   1.370  10.456  0.0077 -0.1142 -0.1985
 1404W        W 4624   0.887  16.582  10.180 -0.1947  0.0457  0.1464
 1405W        W 4625   5.825   0.089   8.920  0.4546 -0.1281 -0.3113
 1406W        W 4626  11.071   0.175  11.260 -0.0588 -0.1009 -0.1943
 1407W        W 4627   6.025  12.945   7.064  0.1453 -0.2865  0.1747
 1408W        W 4628   2.868   7.440   7.584  0.0005 -0.0992 -0.4407
 1409W        W 4629   3.789   5.751   3.054 -0.1786  0.0164 -0.1560
 1410W        W 4630   8.037   2.845  16.785  0.1468  0.0556  0.4837
 1411W        W 4631   0.237   0.516  13.834  0.0420  0.0214  0.1110
 1412W        W 4632  18.216  15.642  14.725 -0.3887  0.2585 -0.0884
 1413W        W 4633   6.114   4.979   0.950  0.1183  0.0575 -0.3358
 1414W        W 4634  16.843   3.994  17.287  0.0365 -0.1486 -0.2353
 1415W        W 4635   3.597   1.248   9.298 -0.1925  0.2426 -0.1301
 1416W        W 4636   3.006   1.078   7.297  0.1466 -0.0555 -0.2482
 1417W        W 4637   3.582   3.823  13.309  0.0168  0.1261 -0.2740
 1418W        W 4638   4.910  13.592  10.397  0.1180  0.0249 -0.0617
 1419W        W 4639   1.442  12.701  11.726  0.0462  0.0352  0.2747
 1420W        W 4640   4.622   1.663  10.199  0.0184  0.2159  0.0900
 1421W        W 4641  17.583   1.773   9.572  0.0272  0.1401  0.1163
 1422W        W 4642  16.863  12.636   8.082 -0.0731  0.0542  0.1153
 1423W        W 4643   5.478   1.109  10.782  0.2870  0.0146 -0.2955
 1424W        W 4644  16.970   5.033   9.360 -0.0825 -0.0240 -0.2717
 1425W        W 4645   5.711  16.076   8.105  0.1717 -0.1940  0.0397
 1426W        W 4646   2.482   5.140   8.234  0.0746 -0.1749 -0.1193
 1427W        W 4647   1.761   9.270  17.248 -0.0448  0.2938 -0.1933
 1428W        W 4648  13.498   2.510  15.196 -0.1396  0.1201  0.1718
 1429W        W 4649   0.397  16.527  12.143 -0.1220 -0.1296  0.1280
 1430W        W 4650   9.920  12.104   8.934  0.0207 -0.2528 -0.1126
 1431W        W 4651  17.279  13.605  11.148  0.1006  0.2236  0.0367
 1432W        W 4652   6.658   1.494   5.888 -0.1827 -0.1156 -0.0941
 1433W        W 4653  17.481   3.998  10.534  0.1696  0.1052 -0.1082
 1434W        W 4654  11.776   4.185  17.949 -0.0911 -0.0662  0.3578
 1435W        W 4655   1.378  11.999   9.511 -0.1104 -0.0432 -0.0044
 1436W        W 4656   2.117  16.524  10.478  0.2610 -0.0753  0.2535
 1437W        W 4657   4.204   9.208   7.533 -0.0474  0.2552 -0.0781
 1438W        W 4658  17.712   0.958  13.578 -0.0280 -0.0379  0.0842
 1439W        W 4659   6.839   2.499  13.463  0.1654  0.0563 -0.1841
 1440W        W 4660   1.970  18.216  12.965 -0.0760 -0.1885  0.0058
 1441W        W 4661   4.924   8.601  13.546 -0.1370 -0.0931  0.0097
 1442W        W 4662  16.081  15.436  13.062 -0.0199  0.0254  0.3533
 1443W        W 4663  16.340   1.092  10.655  0.1265  0.0349  0.0255
 1444W        W 4664   6.748  16.340  12.585 -0.0717  0.0024  0.0295
 1445W        W 4665   0.723   0.111  11.945  0.0450  0.0888  0.0206
 1446W        W 4666   1.888   0.310   6.245 -0.2516  0.1580 -0.1491
 1447W        W 4667   3.334   8.179  16.078  0.2593  0.3695 -0.0123
 1448W        W 4668  14.763   0.312  14.956 -0.1876 -0.0853 -0.0433
 1449W        W 4669  17.224   5.603  16.001 -0.2198  0.1900 -0.1329
 1450W        W 4670  15.463   1.084  10.450 -0.3553 -0.1195  0.0243
 1451W        W 4671   4.221  17.751   4.936  0.1039  0.2339 -0.5555
 1452W        W 4672   1.843  12.994  16.916 -0.1260 -0.0338  0.2475
 1453W        W 4673  11.413   0.539   0.530 -0.0187  0.2469  0.0551
 1454W        W 4674   3.424   2.351   9.097  0.2662  0.0070 -0.1963
 1455W        W 4675   2.922  11.750  13.195 -0.0512 -0.0133 -0.0862
 1456W        W 4676  14.644   0.616   7.161  0.1231  0.0310  0.0693
 1457W        W 4677   2.988   4.321   7.194  0.0413  0.0435 -0.4325
 1458W        W 4678   2.112  15.882  13.886 -0.3796  0.2922 -0.0801
 1459W        W 4679  14.733  17.851   9.613 -0.1500 -0.0083  0.0201
 1460W        W 4680  18.217   6.449  11.403  0.1410 -0.2638 -0.1667
 1461W        W 4681   1.997   6.338  13.322 -0.3110 -0.1793  0.0922
 1462W        W 4682   5.671   4.405  12.928 -0.0261 -0.0660 -0.2425
 1463W        W 4683   1.435  15.499   6.933  0.2871 -0.1219  0.1284
 1464W        W 4684   1.448   2.064  11.123  0.0204 -0.0987 -0.0597
 1465W        W 4685  17.711  14.887  11.866 -0.1791  0.2035 -0.3626
 1466W        W 4686  17.998  17.218  11.838  0.1990 -0.1082 -0.0421
 1467W        W 4687  10.563   1.720  13.948  0.4152 -0.0088  0.6133
 1468W        W 4688   6.351   7.285  17.704 -0.2898  0.0477 -0.1401
 1469W        W 4689  18.184  15.927   8.919  0.0577 -0.1641  0.3174
 1470W        W 4690  15.737   4.809  16.322  0.1305  0.1686 -0.2172
 1471W        W 4691   5.685   7.685   8.382 -0.2146  0.0397 -0.2855
 1472W        W 4692   2.470  11.616  12.354 -0.0550  0.1859  0.0553
 1473W        W 4693   1.874   2.496  10.128  0.0233  0.0896  0.0243
 1474W        W 4694   3.543   1.182  17.189  0.2272 -0.1395  0.4977
 1475W        W 4695   1.786  15.803   4.852  0.1131 -0.1438  0.0355
 1476W        W 4696   5.403   7.012  16.328  0.1360 -0.1212 -0.1822
 1477W        W 4697  12.621   3.529  13.215  0.4385 -0.0252  0.0045
 1478W        W 4698   2.025   4.423  11.705 -0.0417  0.2989 -0.0726
 1479W        W 4699   0.844   2.509  11.740  0.2320  0.0643  0.1005
 1480W        W 4700   1.137   5.025  11.615  0.1968 -0.1294 -0.0427
 1481W        W 4701   5.208   5.813   7.518  0.1617 -0.2507 -0.0622
 1482W        W 4702  12.905   6.776  14.733 -0.2170 -0.1388  0.1233
 1483W        W 4703  15.472   8.060   7.097 -0.0578 -0.2679 -0.1367
 1484W        W 4704  17.520   4.088   8.768 -0.2072 -0.2359 -0.0682
 1485W        W 4705  17.593  12.400  16.830  0.5888  0.0142  0.1749
 1486W        W 4706   3.306  17.907  14.117 -0.1198  0.1845 -0.0817
 1487W        W 4707   4.879   2.400   9.453  0.2222  0.3901  0.2933
 1488W        W 4708   1.995  12.342   0.669  0.0307  0.1437 -0.0606
 1489W        W 4709  12.675   6.892  15.890 -0.1539  0.0603  0.0528
 1490W        W 4710  11.849   7.093  14.338 -0.0162  0.2244  0.0011
 1491W        W 4711   2.405   3.632  12.506  0.0001 -0.0881  0.0723
 1492W        W 4712   0.640  17.957   5.167  0.0431  0.0164 -0.0669
 1493W        W 4713   6.700  16.879   8.633  0.0351 -0.0693 -0.1035
 1494W        W 4714  16.735   5.842   8.121 -0.0923 -0.0099 -0.2592
 1495W        W 4715  18.268  14.102   5.112 -0.2388  0.0483 -0.2169
 1496W        W 4716   4.585  18.084  14.714 -0.1594  0.0500  0.0955
 1497W        W 4717   5.112   4.940  15.106 -0.1148  0.0334 -0.0823
 1498W        W 4718   2.918   3.357  11.122  0.1119 -0.0899 -0.2783
 1499W        W 4719  16.334  17.618   7.488  0.0570 -0.1085 -0.2262
 1500W        W 4720   3.053   2.109  13.677 -0.1627 -0.0909 -0.4386
 1501W        W 4721   4.666   1.919  16.161  0.2167  0.1743 -0.1156
 1502W        W 4722   0.905   8.515  14.776  0.0599  0.1470  0.0607
 1503W        W 4723   1.469  16.266   8.787  0.0184 -0.1691  0.0775
 1504W        W 4724   6.365   0.441  12.321  0.0444 -0.1285  0.2098
 1505W        W 4725   4.123   2.205  15.056  0.0984 -0.3597 -0.2498
 1506W        W 4726  15.174   3.338  12.144 -0.1949 -0.2793  0.0881
 1507W        W 4727  17.780   0.116  12.835  0.1094 -0.2516  0.0824
 1508W        W 4728   5.438   5.058  12.545 -0.0584 -0.0872  0.1964
 1509W        W 4729   7.729   4.929  13.551  0.4044 -0.2192  0.0792
 1510W        W 4730  11.598   8.749  10.842  0.0705  0.0615  0.1461
 1511W        W 4731   4.909  17.630  17.609 -0.0251 -0.3379 -0.0087
 1512W        W 4732   5.100   1.048  13.668  0.2690  0.0938 -0.1713
 1513W        W 4733  11.454  15.728  15.188 -0.2566  0.2228 -0.2503
 1514W        W 4734  18.206  16.746  12.524 -0.0901 -0.0285  0.1122
 1515W        W 4735   0.001   6.271   6.109 -0.1595  0.0279  0.0690
 1516W        W 4736  16.868   3.700  13.222 -0.2444 -0.4135 -0.0014
 1517W        W 4737   2.907   3.903  12.376 -0.1605 -0.0858 -0.1305
 1518W        W 4738   2.894   2.348  10.845 -0.0166 -0.0525  0.2542
 1519W        W 4739  14.934   5.163  16.648  0.2936 -0.1495 -0.0858
 1520W        W 4740   6.108   0.611  11.946 -0.2371 -0.2885  0.0558
 1521W        W 4741   4.297  16.600  11.111  0.1115 -0.0969 -0.1315
 1522W        W 4742  10.679   6.837  14.848 -0.0038 -0.4956  0.1108
 1523W        W 4743   1.987   1.478   3.710  0.3137  0.0972 -0.0229
 1524W        W 4744   3.079  17.598   7.700  0.2414 -0.3746  0.0882
 1525W        W 4745  17.081  17.607  14.699  0.2178 -0.5353  0.1512
 1526W        W 4746  11.849  15.466   9.218  0.0420 -0.2742  0.2016
 1527W        W 4747  16.563   6.429   1.992 -0.0060  0.0423 -0.2441
 1528W        W 4748  17.661   4.458  17.637 -0.1855  0.3515 -0.0324
 1529W        W 4749  15.038  14.515  13.643  0.0542  0.0275 -0.0665
 1530W        W 4750  17.465  17.697   8.241  0.2697  0.2207  0.0505
 1531W        W 4751   6.587  16.200  17.103 -0.1725 -0.0315 -0.0544
 1532W        W 4752   4.996  17.172   5.320 -0.2468 -0.0173 -0.1532
 1533W        W 4753  17.303  15.486   9.234 -0.0208  0.0258 -0.1243
 1534W        W 4754   2.173  11.980  16.167 -0.0717 -0.2792  0.0792
 1535W        W 4755   1.317   2.620   7.364 -0.1925 -0.1108  0.0505
 1536W        W 4756  16.446  17.811  11.892  0.3397  0.0503 -0.0020
 1537W        W 4757   2.186   4.440  11.093  0.1905 -0.3362 -0.1592
 1538W        W 4758  14.879   4.192  14.327 -0.0681 -0.0482  0.0113
 1539W        W 4759  18.253   8.931  11.052 -0.1145 -0.1362 -0.3739
 1540W        W 4760   2.587   5.576  12.403 -0.2294 -0.3607  0.0713
 1541W        W 4761   2.700   2.281  18.252 -0.1795  0.0005  0.0967
 1542W        W 4762   3.991  10.453  15.189 -0.0537  0.0216 -0.0449
 1543W        W 4763   0.674   1.742   8.730  0.2880 -0.2287  0.1704
 1544W        W 4764  15.938  15.590   8.635  0.1799  0.0801 -0.0393
 1545W        W 4765  12.416   1.039   6.988  0.0173 -0.1065  0.2226
 1546W        W 4766   1.184  16.207  13.442  0.2940  0.0520  0.0039
 1547W        W 4767  16.552   9.957   7.660  0.0930 -0.2522  0.0861
 1548W        W 4768  13.451   9.361  16.682  0.1051  0.0352  0.0903
 1549W        W 4769  15.540   1.171  15.748 -0.1447 -0.0052 -0.2041
 1550W        W 4770   3.468   3.234  14.662 -0.1741 -0.0770  0.1707
 1551W        W 4771  15.680  14.910  12.140 -0.0104  0.0492 -0.3333
 1552W        W 4772   2.070  14.975  14.206 -0.2062 -0.3417  0.1076
 1553W        W 4773  13.450   3.584  11.323 -0.1996  0.1036 -0.0870
 1554W        W 4774  14.768   3.480  17.428 -0.0269  0.0281  0.0421
 1555W        W 4775   1.414   1.702  17.944  0.0976 -0.3180 -0.1215
 1556W        W 4776  11.637   1.392  16.269  0.2959 -0.0881  0.2638
 1557W        W 4777  14.629  12.657  10.360  0.1400  0.3183  0.0137
 1558W        W 4778   0.988  18.263  13.172 -0.0545 -0.0276  0.1170
 1559W        W 4779  15.410  12.848   6.142 -0.0534  0.3025  0.3429
 1560W        W 4780  17.748  15.427  11.841  0.2975  0.3071 -0.1129
 1561W        W 4781  17.085   2.293   9.067  0.1093  0.2926 -0.1647
 1562W        W 4782   1.589   5.852  14.892  0.0542 -0.2119  0.3748
 1563W        W 4783   5.841   0.473  13.503 -0.0401  0.0658 -0.0230
 1564W        W 4784   7.246   8.263  13.622  0.0794  0.0050 -0.0895
 1565W        W 4785  16.186   3.294  12.821 -0.1798 -0.1328 -0.1433
 1566W        W 4786   7.175   5.180  14.649  0.1856 -0.0274  0.0692
 1567W        W 4787   4.806   2.834  13.140  0.1349 -0.1128 -0.1019
 1568W        W 4788   6.607   0.412  14.783  0.3628  0.2101 -0.1166
 1569W        W 4789   0.903  16.350  14.911 -0.0750  0.0111 -0.1384
 1570W        W 4790   2.666  10.085   5.978 -0.1553 -0.0031 -0.0644
 1571W        W 4791   5.319  15.581  14.288 -0.0730  0.0942 -0.1260
 1572W        W 4792  16.903   4.640  13.114 -0.0427 -0.0526  0.2662
 1573W        W 4793  16.486   5.132   9.794  0.2814 -0.0606  0.1724
 1574W        W 4794   0.393   7.398  16.314  0.0800 -0.1169  0.1323
 1575W        W 4795  17.545   5.210   8.281 -0.1508 -0.1423 -0.0819
 1576W        W 4796  18.169   1.856  12.575  0.0126  0.0307  0.3946
 1577W        W 4797  14.563   4.498  15.246 -0.3806  0.0394  0.0003
 1578W        W 4798   6.712  13.436  11.716 -0.2159 -0.2656 -0.0453
 1579W        W 4799   5.147   2.906   8.203  0.0650  0.2036  0.0033
 1580W        W 4800   6.273   7.334   7.407  0.1220 -0.1844  0.1123
 1581W        W 4801   3.885   6.251  15.595 -0.0543 -0.1683 -0.3762
 1582W        W 4802  10.951   1.097  10.456  0.2705  0.2274  0.0800
 1583W        W 4803   0.082   0.818  10.501 -0.1486 -0.0390  0.2525
 1584W        W 4804   3.045   3.105   3.540 -0.0372  0.1317 -0.2995
 1585W        W 4805   2.031   9.768  10.153 -0.0009  0.1755 -0.0852
 1586W        W 4806   1.952  15.486   0.676  0.1671  0.1937 -0.0512
 1587W        W 4807  14.467   0.226  13.324 -0.1631 -0.3194 -0.0205
 1588W        W 4808   4.626   4.717  13.141 -0.0641  0.1705  0.1771
 1589W        W 4809   1.632   4.555   3.461 -0.1402 -0.0275  0.2096
 1590W        W 4810   0.091  11.804  13.386  0.1308  0.0003  0.5817
 1591W        W 4811  18.125   5.831  15.125 -0.0552 -0.1975  0.0817
 1592W        W 4812  12.113  11.222   7.914 -0.0175  0.2607  0.1004
 1593W        W 4813   4.273   5.226  14.102  0.0451  0.0158 -0.5586
 1594W        W 4814   2.977  16.104  14.171  0.4340 -0.1415  0.0845
 1595W        W 4815  16.196   5.552  16.814  0.0696 -0.1552 -0.1080
 1596W        W 4816   5.081   4.012  11.891 -0.0770  0.0573  0.2037
 1597W        W 4817  16.396   3.300  15.142 -0.1515  0.0716  0.2363
 1598W        W 4818   2.593  15.553  17.878  0.0408  0.0167 -0.0660
 1599W        W 4819  18.261  15.734  10.891 -0.0520  0.0962  0.5949
 1600W        W 4820  18.160  15.235  15.064  0.0536  0.0092  0.1852
 1601W        W 4821  16.633   4.713  15.248  0.1650  0.1082  0.1345
 1602W        W 4822   0.922  15.138   5.385  0.1126  0.2489 -0.2752
 1603W        W 4823   0.779  15.870   6.942 -0.1296  0.0606  0.2449
 1604W        W 4824  14.679   0.500   8.468 -0.2335 -0.0878  0.4804
 1605W        W 4825  16.905  15.690   3.297 -0.0307 -0.0942  0.0823
 1606W        W 4826   6.637  17.681  12.385 -0.5845 -0.2466  0.1431
 1607W        W 4827   5.688   2.512   5.450  0.3983  0.0846 -0.0270
 1608W        W 4828   1.658   2.323  11.891  0.0005  0.0442 -0.2023
 1609W        W 4829   6.025   2.859  14.434  0.1128  0.1421  0.0874
 1610W        W 4830   3.169  12.207  10.960 -0.1967  0.1381 -0.1768
 1611W        W 4831  17.127   0.359   8.521  0.1164 -0.1346  0.2675
 1612W        W 4832  11.854  15.769  13.099  0.1328  0.5188  0.3570
 1613W        W 4833  12.110  15.008   1.753  0.0148  0.0570 -0.0259
 1614W        W 4834   4.048  17.746  13.599 -0.0070 -0.0435 -0.2727
 1615W        W 4835  17.036  11.009   9.375 -0.2979  0.1294  0.2023
 1616W        W 4836   5.353   4.145  10.984 -0.2222 -0.1416  0.1067
 1617W        W 4837  17.253   1.687   2.080  0.2151  0.0600 -0.1707
 1618W        W 4838  10.343   1.454   6.804 -0.2701  0.0277 -0.0743
 1619W        W 4839  17.956   3.954  10.029  0.0356 -0.0810 -0.1526
 1620W        W 4840   3.186   4.932  13.305 -0.0067  0.2816 -0.1200
 1621W        W 4841  18.013   5.173   8.163 -0.2390  0.2615  0.1164
 1622W        W 4842  12.143  13.757   0.218  0.0808 -0.1327  0.1537
 1623W        W 4843   4.092   7.471  10.550 -0.0767  0.0793 -0.1470
 1624W        W 4844  12.163  16.844  13.859 -0.1007 -0.3528 -0.1329
 1625W        W 4845   1.474  17.752   8.974 -0.1400  0.0319 -0.1507
 1626W        W 4846  18.270   2.044   5.431  0.3901 -0.0049  0.2191
 1627W        W 4847   3.795  15.867   5.838  0.1711  0.0154  0.1402
 1628W        W 4848   4.159   9.631   6.159 -0.2292 -0.1258 -0.2549
 1629W        W 4849   1.907   4.153  15.985  0.0804  0.0195 -0.1537
 1630W        W 4850   3.639   7.137  13.432 -0.0429 -0.0434 -0.1988
 1631W        W 4851  15.377  12.340  14.519 -0.2984  0.2034  0.0187
 1632W        W 4852   3.369   0.349   4.196  0.0803  0.0145  0.2898
 1633W        W 4853   9.969   5.584   6.093 -0.3454  0.0252 -0.1687
 1634W        W 4854  16.906  17.146  14.251 -0.0052  0.1366  0.0284
 1635W        W 4855  17.993   3.874   8.071  0.1683  0.1050 -0.2556
 1636W        W 4856   6.319   3.305  16.028  0.0983  0.1012  0.0729
 1637W        W 4857  10.279   8.418  10.351 -0.0263  0.0797 -0.1829
 1638W        W 4858  15.959   7.505  16.495  0.0297  0.3907 -0.1773
 1639W        W 4859   2.579  14.626   7.225 -0.3297  0.0261  0.1531
 1640W        W 4860  15.560  13.033  15.161 -0.2136  0.1480 -0.4253
 1641W        W 4861  11.174  15.940   9.357  0.1024 -0.3973 -0.2080
 1642W        W 4862   5.363   2.895  14.354 -0.1520  0.1268  0.0477
 1643W        W 4863   5.496  17.521  11.025 -0.1986 -0.0866 -0.0743
 1644W        W 4864   0.020   1.329   7.955 -0.2396  0.0092  0.1163
 1645W        W 4865   1.805   4.175  10.729  0.0811  0.3489 -0.1385
 1646W        W 4866   4.567   4.117  16.136 -0.0113  0.0560  0.2979
 1647W        W 4867  15.500  16.318   2.502 -0.0290 -0.2246  0.0202
 1648W        W 4868   1.019  16.752   5.146 -0.1885  0.1580  0.2026
 1649W        W 4869   5.494   5.395  10.236  0.2014 -0.1566  0.1624
 1650W        W 4870   5.276   6.504  13.520 -0.2341 -0.3249  0.0424
 1651W        W 4871  18.034  17.466  14.496 -0.2624 -0.3983 -0.0127
 1652W        W 4872  16.698  15.882   1.137  0.2469  0.0270 -0.0684
 1653W        W 4873   5.310  17.194  10.655  0.3160  0.0826 -0.1932
 1654W        W 4874   2.346   4.505   4.388  0.2157 -0.1637 -0.3324
 1655W        W 4875   4.125  12.637   0.346  0.0967  0.0701  0.2123
 1656W        W 4876   3.745   6.391  12.650 -0.0218  0.0971 -0.0021
 1657W        W 4877  18.069   3.632  11.858 -0.3040  0.2646  0.0065
 1658W        W 4878   6.378  16.176  11.671  0.3663  0.0967  0.1945
 1659W        W 4879   2.179   1.607  12.035  0.1640  0.2199 -0.3294
 1660W        W 4880   0.665   6.131  16.326 -0.1749  0.0734 -0.2798
 1661W        W 4881   5.232  14.591   0.023 -0.1062 -0.1063  0.0818
 1662W        W 4882   0.350   3.335  14.341  0.2071  0.1224  0.2878
 1663W        W 4883  17.531   5.854  14.167 -0.1939 -0.1668 -0.2511
 1664W        W 4884   1.979  14.526  14.353  0.2027  0.2131  0.0832
 1665W        W 4885   1.089   3.458  13.589  0.3919  0.0752 -0.0450
 1666W        W 4886  16.195  16.794  13.544 -0.2658 -0.2598 -0.1618
 1667W        W 4887   0.248   3.304  12.168 -0.0989 -0.0073 -0.1313
 1668W        W 4888  12.712   6.028  15.317 -0.1536  0.5484  0.1791
 1669W        W 4889  17.146   3.332  13.502 -0.0747  0.0320  0.1040
 1670W        W 4890   3.857   2.191  12.533 -0.1236  0.0327 -0.1463
 1671W        W 4891  17.305   1.735   3.344  0.1838 -0.3429 -0.0619
 1672W        W 4892   1.976   3.326  15.774  0.3671 -0.1324 -0.0167
 1673W        W 4893   0.984   5.727   2.675  0.1721  0.0468 -0.0265
 1674W        W 4894   5.174   0.928   6.229 -0.0999 -0.2101  0.1277
 1675W        W 4895   2.420   3.283  10.982 -0.0877 -0.1510 -0.0983
 1676W        W 4896  13.280  17.255  14.175 -0.0942 -0.0011  0.1219
 1677W        W 4897  14.851   1.838  11.171  0.0074  0.2943  0.2511
 1678W        W 4898  12.700   6.700   2.303 -0.2246  0.0740  0.1826
 1679W        W 4899   6.603   8.453  18.124  0.1388  0.4441  0.2280
 1680W        W 4900   1.166  13.085   1.869  0.1661  0.2319 -0.0019
 1681W        W 4901   6.599   1.001  14.904 -0.2346 -0.0204 -0.1150
 1682W        W 4902   5.582   1.456  17.376 -0.0680  0.1571 -0.3596
 1683W        W 4903   3.085   8.216  14.143  0.1611  0.1995  0.1510
 1684W        W 4904   0.661   9.160  16.062  0.1401 -0.1334 -0.1129
 1685W        W 4905  14.138   1.085  16.255 -0.3216  0.1422 -0.1068
 1686W        W 4906  12.326   2.733  11.533  0.1092  0.1156 -0.1356
 1687W        W 4907   1.569   1.038  14.949  0.0398 -0.1936  0.1319
 1688W        W 4908   3.155  17.232  17.644 -0.0451  0.1890 -0.0952
 1689W        W 4909   0.695   0.293  17.615 -0.2985 -0.2805  0.0751
 1690W        W 4910   4.113   2.699   2.474 -0.0866 -0.2252 -0.0717
 1691W        W 4911   1.998   3.645  13.400  0.2056  0.0797 -0.1422
 1692W        W 4912  11.721   9.031  17.060 -0.2578  0.2554  0.0931
 1693W        W 4913   2.302   3.819  16.897  0.2658 -0.1411 -0.2016
 1694W        W 4914  13.242   4.988   1.767  0.1092  0.2741  0.1460
 1695W        W 4915   4.494   6.154   5.261  0.0029 -0.0601  0.1722
 1696W        W 4916  14.959   2.307  15.212 -0.1219 -0.2144  0.3236
 1697W        W 4917  14.794   3.703  14.713 -0.0303  0.1397  0.1352
 1698W        W 4918   1.622   1.658  16.095  0.0987 -0.0659  0.2985
 1699W        W 4919   4.620   0.268  14.933  0.0694 -0.1984  0.1766
 1700W        W 4920   2.793   3.465  13.358 -0.0841 -0.1772 -0.1104
 1701W        W 4921   0.952   8.859  17.142  0.2215  0.1384  0.1826
 1702W        W 4922   2.746   2.495  13.431 -0.2457 -0.0865 -0.2155
 1703W        W 4923  18.244  16.965   4.832  0.1671 -0.4194  0.0170
 1704W        W 4924   6.185   4.075   2.321  0.0079 -0.0977  0.3096
 1705W        W 4925  17.533   7.207   2.419 -0.0971  0.0526  0.2572
 1706W        W 4926  16.418   8.148  18.265  0.3465  0.0997  0.0252
 1707W        W 4927   0.185  15.719  12.731 -0.4076 -0.0054  0.2450
 1708W        W 4928   6.997   9.762  10.686  0.2492  0.1542  0.0455
 1709W        W 4929  17.930   5.966   8.765  0.1929 -0.0918  0.0274
 1710W        W 4930   8.497  11.515  15.122 -0.0084 -0.0292 -0.0202
 1711W        W 4931   1.978   2.673  17.966 -0.1950  0.0804  0.0797
 1712W        W 4932  15.635  12.200   9.777 -0.0841 -0.2510 -0.1753
 1713W        W 4933   5.291  17.843  10.214 -0.0509  0.0268 -0.3029
 1714W        W 4934   3.255   4.987  16.007 -0.1615 -0.0265  0.3050
 1715W        W 4935   4.190   5.065   9.713  0.0462  0.1451 -0.0218
 1716W        W 4936   7.680  15.582  15.454 -0.1359 -0.0069  0.0054
 1717W        W 4937  17.506  18.009  13.827 -0.0344 -0.0639 -0.0304
 1718W        W 4938   0.297   4.112  16.675  0.4296 -0.3784  0.2957
 1719W        W 4939   3.429   0.107  13.419  0.0978 -0.3297 -0.1024
 1720W        W 4940   0.346   5.933  16.636 -0.0347  0.0256 -0.1924
 1721W        W 4941  11.838   2.760  16.163 -0.0344  0.1802  0.0820
 1722W        W 4942   3.666  15.408  10.824 -0.0191  0.3573  0.0519
 1723W        W 4943  17.806  16.751  15.853 -0.0978 -0.0892  0.0787
 1724W        W 4944   1.085  15.723  12.932 -0.1198 -0.4434  0.2125
 1725W        W 4945  12.846   4.486  15.467 -0.1142 -0.1935 -0.1962
 1726W        W 4946  16.623   3.169  17.990 -0.1759  0.0321  0.1443
 1727W        W 4947   3.929  14.521  12.010  0.0822 -0.1166  0.0482
 1728W        W 4948   0.344   7.444  16.874 -0.0741 -0.0179  0.0495
 1729W        W 4949  12.582   3.188   8.288 -0.1376  0.0208  0.1725
 1730W        W 4950   4.778  14.357  15.048  0.1283  0.4047 -0.1754
 1731W        W 4951   7.530  16.394   1.463  0.0864 -0.2926  0.0053
 1732W        W 4952  17.065   4.320   2.235 -0.1187  0.1460  0.4428
 1733W        W 4953  17.430  16.369  14.351  0.0104 -0.1174  0.0048
 1734W        W 4954  14.980  10.662  17.110 -0.1577 -0.1187  0.2092
 1735W        W 4955   0.820  13.753  16.743 -0.2809 -0.0890  0.1611
 1736W        W 4956   3.562   5.620  12.759 -0.0334 -0.1648  0.1267
 1737W        W 4957   0.704   8.578  16.021  0.2463 -0.2455  0.0635
 1738W        W 4958   3.711   2.649   4.147  0.0536  0.1145  0.4390
 1739W        W 4959  12.937   0.518  15.457 -0.1577  0.2490 -0.1613
 1740W        W 4960  14.616  18.174   6.102  0.2116 -0.1858 -0.0688
 1741W        W 4961   0.434   2.701   1.212 -0.1518 -0.2823 -0.0537
 1742W        W 4962   5.031   7.839   2.763 -0.2087 -0.4925  0.0422
 1743W        W 4963   6.512   6.690   4.732  0.2685 -0.0788  0.0105
 1744W        W 4964   4.838   4.719   3.243  0.0958 -0.0240 -0.0357
 1745W        W 4965   4.699   6.323   3.329 -0.2666 -0.0740  0.1622
 1746W        W 4966  17.271   4.890  14.360 -0.0585  0.2511 -0.0681
 1747W        W 4967   0.631   8.221  15.079  0.0577  0.1084 -0.0503
 1748W        W 4968   2.485   0.013   2.484  0.1580 -0.3679  0.2159
 1749W        W 4969  14.720  14.680  14.084 -0.1758 -0.0551 -0.1237
 1750W        W 4970  17.554   8.593  16.307  0.3279 -0.2371  0.2678
 1751W        W 4971   2.971   1.688  11.567 -0.3766  0.0092 -0.1109
 1752W        W 4972   0.449   1.399   0.866 -0.2136  0.0536 -0.0777
 1753W        W 4973   2.073   5.147  15.014  0.1396 -0.0573  0.0067
 1754W        W 4974   1.820   3.601   9.422  0.1986  0.1486 -0.1953
 1755W        W 4975   2.443   3.821  10.319 -0.2094  0.2481  0.1072
 1756W        W 4976   4.695  12.561  11.958 -0.0760  0.3041 -0.2386
 1757W        W 4977   0.167  16.832   3.826 -0.2107  0.1360  0.0679
 1758W        W 4978  17.927   6.989  15.885  0.0732  0.1325  0.0463
 1759W        W 4979   1.753  12.601   3.880  0.0280 -0.3718 -0.3552
 1760W        W 4980   0.321   5.647  15.424 -0.1824 -0.1109  0.2449
 1761W        W 4981   0.822   0.682  14.370 -0.2039 -0.0753 -0.2725
 1762W        W 4982   3.071   2.464  16.452  0.0342 -0.1266  0.0791
 1763W        W 4983   4.557   6.019  15.844 -0.2292  0.2357 -0.1835
 1764W        W 4984  16.635   5.897   1.636  0.0871 -0.0661 -0.1116
 1765W        W 4985   5.123   3.279  13.277  0.3600  0.1662 -0.0426
 1766W        W 4986   5.325   0.969  16.084 -0.0027 -0.2789  0.1212
 1767W        W 4987   3.386   5.104   9.994 -0.0659  0.0036  0.1814
 1768W        W 4988  17.634  15.870  16.636  0.2136  0.1379 -0.1058
 1769W        W 4989  15.751   2.222  11.383 -0.2225  0.1527  0.1687
 1770W        W 4990  17.524   2.750  10.650 -0.0120 -0.3690  0.3368
 1771W        W 4991   0.466   8.059   1.221 -0.1555  0.0313  0.0561
 1772W        W 4992   0.891   2.520  13.489 -0.3363  0.0494  0.0759
 1773W        W 4993   2.999   9.693   0.090 -0.0961  0.0059 -0.1317
 1774W        W 4994   6.325  17.308  10.589 -0.3176  0.0443  0.1367
 1775W        W 4995   9.517   0.801   2.110 -0.1475 -0.1319 -0.1739
 1776W        W 4996   1.935   3.677  10.525 -0.1460 -0.0609 -0.1190
 1777W        W 4997  12.760   5.419   2.593 -0.1791 -0.0709 -0.1177
 1778W        W 4998   1.909   3.205   3.940 -0.0184 -0.1769  0.0299
 1779W        W 4999   3.586   2.545   3.534 -0.1011 -0.3316  0.3105
 1780W        W 5000   0.876   4.473  10.714 -0.1644 -0.0432  0.0628
 1781W        W 5001   1.502   4.106  12.970 -0.2361 -0.2264  0.1390
 1782W        W 5002  12.256  12.909  14.139 -0.0729  0.2738 -0.0666
 1783W        W 5003  16.855   6.208   4.451  0.0785  0.2591  0.0688
 1784W        W 5004   8.060   3.636  10.780 -0.4192  0.1224 -0.2663
 1785W        W 5005   0.652   1.485  18.246  0.2191 -0.1333 -0.1214
 1786W        W 5006   4.642   6.755  16.334  0.1666  0.1779 -0.3541
 1787W        W 5007   3.854  15.547  13.844 -0.2899 -0.1544  0.0289
 1788W        W 5008  12.838   1.155  14.692  0.0894 -0.0190  0.1069
 1789W        W 5009   0.781   2.568  17.898 -0.0512 -0.1033  0.2411
 1790W        W 5010  18.068   3.511   8.452 -0.2031 -0.2112  0.0908
 1791W        W 5011  13.650   4.451  14.696  0.0399 -0.3061  0.1605
 1792W        W 5012  16.975  14.315  11.906  0.1077  0.1161  0.1286
 1793W        W 5013  16.799  17.075   8.277  0.0676  0.0963  0.1546
 1794W        W 5014   2.475   2.350  11.934  0.0543  0.3400  0.0180
 1795W        W 5015   0.445   6.843  17.387  0.1108  0.3500  0.2402
 1796W        W 5016  17.831   4.437  13.616 -0.0394  0.1538  0.0162
 1797W        W 5017  16.892   7.754  18.227  0.1487  0.0176  0.0035
 1798W        W 5018   4.207  13.122   1.756 -0.2407 -0.0099  0.0416
 1799W        W 5019  15.812   8.823  16.249  0.0832  0.0344 -0.0797
 1800W        W 5020   7.043   4.794  11.863 -0.0891  0.2662  0.3013
 1801W        W 5021   4.817   1.809  17.424 -0.2801 -0.0003 -0.1091
 1802W        W 5022   7.135   1.725  15.754 -0.1583  0.2492 -0.2134
 1803W        W 5023   7.403   1.704  16.677 -0.0286  0.0617 -0.1663
 1804W        W 5024   4.643   1.054  13.412  0.2778 -0.0920  0.0386
 1805W        W 5025   4.176   1.432  16.999 -0.0255 -0.0234  0.0679
 1806W        W 5026   5.601   3.169  16.445  0.3988 -0.0182 -0.2207
 1807W        W 5027  15.906   3.455  11.058  0.0144  0.0253 -0.0905
 1808W        W 5028  15.619   1.361  11.237  0.0804  0.1385 -0.3219
 1809W        W 5029  17.894   6.469   9.859 -0.1065 -0.2474  0.0022
 1810W        W 5030  13.641   6.493  13.339  0.0745 -0.0579  0.0378
 1811W        W 5031   0.211   3.904   0.470  0.3100 -0.0915  0.0277
 1812W        W 5032  17.932   6.932   7.021  0.1380 -0.1969  0.2523
 1813W        W 5033   0.790   3.889  13.688  0.2044 -0.1737 -0.1162
 1814W        W 5034  17.976   1.185   5.777  0.3251  0.0189  0.0859
 1815W        W 5035   2.328   2.167   1.153 -0.3466 -0.0958 -0.0006
 1816W        W 5036   0.710   7.732  13.930  0.0152 -0.1240  0.1301
 1817W        W 5037   3.111   3.436  14.292 -0.1099  0.0544  0.2698
 1818W        W 5038  16.516  16.718   1.962  0.4034 -0.2336  0.2517
 1819W        W 5039   0.181  16.976  13.919  0.3345 -0.0672  0.0664
 1820W        W 5040   2.021   2.886  14.554 -0.0813  0.1411  0.3373
 1821W        W 5041   5.469  13.403   8.795  0.1165  0.1075  0.0287
 1822W        W 5042  15.398  15.793  13.507  0.0437 -0.1489 -0.0942
 1823W        W 5043  18.025   6.661   2.087 -0.0231  0.0245  0.1409
 1824W        W 5044  12.608   0.102  16.367 -0.0486 -0.1169 -0.0918
 1825W        W 5045   2.581   2.072  11.480 -0.1814  0.3408  0.0170
 1826W        W 5046  13.773   3.910  15.389 -0.0803  0.0709 -0.1622
 1827W        W 5047   4.360  13.594  16.944 -0.3354  0.2625  0.2274
 1828W        W 5048   2.561  16.778  10.397 -0.0252  0.3009 -0.3519
 1829W        W 5049   0.435   1.886  10.644 -0.1195 -0.0923  0.0589
 1830W        W 5050  13.143   6.449   0.614 -0.2656  0.1886  0.0756
 1831W        W 5051  15.806   8.943  14.282  0.0625  0.1778 -0.0688
 1832W        W 5052   4.266  17.765  17.850 -0.0756  0.2520  0.0005
 1833W        W 5053   5.524  16.154  18.194  0.0224  0.0525 -0.3089
 1834W        W 5054   6.189  17.398  17.144 -0.1156  0.1215  0.0887
 1835W        W 5055   2.600   4.736  11.301  0.1966  0.2937  0.0715
 1836W        W 5056  17.043   3.336   0.734 -0.3389 -0.0819 -0.2503
 1837W        W 5057   0.447  17.755  10.977  0.4049 -0.3572 -0.2552
 1838W        W 5058  14.904   2.431   1.609  0.0315  0.0797  0.1379
 1839W        W 5059   2.693  17.690  10.307  0.2067  0.1800 -0.3183
 1840W        W 5060   3.133   1.998  14.207  0.2928  0.3911  0.0502
 1841W        W 5061  17.421  15.822  14.370 -0.1041  0.2126 -0.2117
 1842W        W 5062  11.752   3.612  18.034 -0.0575  0.2215 -0.0357
 1843W        W 5063   0.817   7.711  13.411  0.2040  0.1984  0.1270
 1844W        W 5064  11.466   5.840   0.370  0.0368 -0.1324  0.3801
 1845W        W 5065   8.890   2.462  14.788  0.3138  0.0179  0.1923
 1846W        W 5066  15.516   7.971   4.342 -0.1784 -0.0201  0.2073
 1847W        W 5067   3.606   4.411   2.039 -0.0547 -0.1377 -0.0229
 1848W        W 5068   0.166   3.756  13.554  0.4944 -0.0555 -0.1741
 1849W        W 5069  16.051  15.609  11.797 -0.2703 -0.0387 -0.1842
 1850W        W 5070   5.225   3.218  15.425 -0.0117 -0.2097  0.0721
 1851W        W 5071   6.648   0.213  17.463  0.2274  0.0685  0.2151
 1852W        W 5072  12.156  16.403  13.632  0.2500  0.0493  0.1280
 1853W        W 5073  14.996   1.387  14.267  0.2825 -0.0797  0.2120
 1854W        W 5074  14.957   8.308  10.401  0.0267  0.3717  0.3352
 1855W        W 5075  11.060  17.035  18.057 -0.1973 -0.1131 -0.0378
 1856W        W 5076  17.858  16.436  15.047  0.4236 -0.2891  0.0379
 1857W        W 5077   7.550   6.539  13.891  0.2120  0.0319  0.1010
 1858W        W 5078   4.534   7.284   5.985  0.0434  0.1594  0.0328
 1859W        W 5079  13.708   4.964   5.808 -0.0174 -0.0569 -0.1752
 1860W        W 5080   4.171   5.365   8.883  0.0717 -0.1026 -0.0812
 1861W        W 5081  10.110  16.361   0.406  0.0095  0.1088 -0.0810
 1862W        W 5082   6.346  18.095   2.070  0.2908 -0.2884  0.3791
 1863W        W 5083   3.305   0.184  18.204 -0.1535  0.0577 -0.1070
 1864W        W 5084  17.341   2.345  14.239  0.0014  0.2417 -0.1173
 1865W        W 5085  13.119   2.305  17.071 -0.1898 -0.0456  0.0967
 1866W        W 5086   3.660  16.690   0.019 -0.2887  0.1953 -0.1399
 1867W        W 5087  14.108  10.878  17.221  0.0573  0.1931  0.1404
 1868W        W 5088   0.284   7.029  15.342 -0.1782  0.1738 -0.2878
 1869W        W 5089  15.935   1.837   9.510  0.1906 -0.0357 -0.0354
 1870W        W 5090  15.556  12.524  13.719 -0.0481 -0.0837 -0.2602
 1871W        W 5091   5.366   1.946  15.367  0.1386  0.2594 -0.1385
 1872W        W 5092   2.698   1.951   9.190 -0.1590  0.0794 -0.3258
 1873W        W 5093  15.374   0.683  12.497 -0.3339  0.2803  0.2447
 1874W        W 5094   3.124   4.892  17.230 -0.1015 -0.1163  0.0517
 1875W        W 5095  14.907  12.494  16.986  0.1971 -0.0630  0.0990
 1876W        W 5096   2.237  18.179   4.387  0.0673 -0.0865 -0.1125
 1877W        W 5097   3.695   1.339  13.664  0.0456 -0.1665  0.2016
 1878W        W 5098   5.968   5.878  12.877  0.1604  0.1499 -0.1411
 1879W        W 5099   3.214   3.476   1.023 -0.3890 -0.1913  0.2828
 1880W        W 5100   9.884   5.062   2.011 -0.1559 -0.0317 -0.0269
 1881W        W 5101  13.679  13.075  13.063  0.1918 -0.2114 -0.0803
 1882W        W 5102   0.037  11.948  14.200  0.4205  0.0465  0.2074
 1883W        W 5103  11.310   7.474  17.820 -0.1628 -0.2241 -0.2200
 1884W        W 5104   5.645   3.537  11.091 -0.3558  0.1731  0.1811
 1885W        W 5105  15.917   1.376  10.546  0.2220  0.2187  0.0884
 1886W        W 5106  11.368  17.507  12.912 -0.3058 -0.0299  0.0140
 1887W        W 5107   0.082   3.920  17.102  0.0484 -0.0946 -0.0314
 1888W        W 5108   1.097   1.317   1.964 -0.0016 -0.0974  0.2887
 1889W        W 5109  18.263   7.064   6.623 -0.3621 -0.1753  0.0843
 1890W        W 5110   8.364   1.740  15.231 -0.0839  0.1361 -0.0381
 1891W        W 5111   0.851  18.173  15.269 -0.0462  0.2712 -0.0233
 1892W        W 5112   2.426   0.218  12.993 -0.3918 -0.2280 -0.2745
 1893W        W 5113  15.953  14.115  13.367  0.0188  0.4869  0.0313
 1894W        W 5114   8.587  17.721   9.846  0.0029  0.0785 -0.2488
 1895W        W 5115  13.212  17.562  10.355  0.0976  0.1136 -0.1720
 1896W        W 5116   5.062   9.846   2.211 -0.1363 -0.0402  0.1343
 1897W        W 5117   9.968  12.837  16.777  0.0875  0.0225 -0.0534
 1898W        W 5118  17.121   2.513  10.496 -0.0286  0.1778 -0.1003
 1899W        W 5119  14.833   1.767  16.555  0.1079 -0.0626  0.0545
 1900W        W 5120   1.269   0.194   3.964 -0.0684  0.1128  0.1369
 1901W        W 5121   0.527   1.591  15.288 -0.1612 -0.5396 -0.1298
 1902W        W 5122  12.938   2.243   4.206  0.0381 -0.0010  0.0336
 1903W        W 5123   6.467   9.194  15.337  0.2718  0.1408 -0.0897
 1904W        W 5124   2.974   3.531   1.986  0.2062  0.2106 -0.3057
 1905W        W 5125  13.198  14.515   3.713 -0.0813  0.1414 -0.1238
 1906W        W 5126   0.657   3.523  13.343  0.1453  0.2438  0.0022
 1907W        W 5127  10.492   9.681   8.526  0.3121 -0.1601  0.2334
 1908W        W 5128  17.678   6.929  15.069 -0.1796 -0.1092  0.2838
 1909W        W 5129   4.356   1.799   1.418 -0.1444  0.0852 -0.1548
 1910W        W 5130   5.836  14.574  11.095 -0.0018 -0.0191  0.0076
 1911W        W 5131   7.431  11.621   4.434 -0.0085  0.0140  0.0443
 1912W        W 5132   2.841   0.941   0.770  0.2902 -0.1684  0.2094
 1913W        W 5133   1.947   4.363  12.642  0.2917  0.3664 -0.1029
 1914W        W 5134   0.409   5.106   3.629  0.1903 -0.0868  0.2074
 1915W        W 5135  16.343  17.369   6.897  0.0747 -0.0238 -0.4593
 1916W        W 5136   6.329   6.670  11.015 -0.1819 -0.0729 -0.0524
 1917W        W 5137  17.531  10.094  10.084 -0.1247 -0.2706 -0.1047
 1918W        W 5138   8.710  17.851  17.409 -0.0533 -0.1103  0.0260
 1919W        W 5139   0.751   2.456  15.031  0.0445 -0.2069 -0.2317
 1920W        W 5140  17.656   1.345  11.766  0.0891  0.0242  0.3589
 1921W        W 5141   2.429   0.350  14.557 -0.3164 -0.0874 -0.3813
 1922W        W 5142   8.045   6.165   1.398  0.2970 -0.2297  0.0705
 1923W        W 5143   1.232   4.527   0.653  0.0207 -0.2682  0.0538
 1924W        W 5144   3.009   3.820   0.183  0.2658  0.1579  0.1873
 1925W        W 5145   0.440   3.180   1.274  0.0692 -0.2070  0.1524
 1926W        W 5146  15.252   5.069  12.613 -0.2112 -0.0386  0.0269
 1927W        W 5147   3.805   1.419  16.687 -0.2024  0.0407  0.0985
 1928W        W 5148   6.873   5.933   1.678  0.1188  0.1812  0.0070
 1929W        W 5149   0.636   2.512  15.532 -0.1151  0.0973 -0.2853
 1930W        W 5150  11.770   4.720  15.798  0.1387 -0.3662 -0.0062
 1931W        W 5151   7.180   1.347   6.623 -0.0178 -0.0687  0.0771
 1932W        W 5152   5.345   9.535  15.224  0.1459 -0.0391  0.3269
 1933W        W 5153   0.247  13.666   0.833  0.1960 -0.1586 -0.1070
 1934W        W 5154  15.134   6.831   0.890  0.1245 -0.1034  0.2957
 1935W        W 5155  14.186   8.181  17.092  0.0096 -0.4000 -0.2464
 1936W        W 5156   2.704  17.974   3.554  0.2277 -0.1976 -0.0692
 1937W        W 5157   7.025  16.738   9.088  0.1118  0.2370  0.0729
 1938W        W 5158   6.154  17.545   6.143 -0.0622 -0.0076 -0.2232
 1939W        W 5159   6.946  12.994  12.948 -0.0458  0.1919 -0.4724
 1940W        W 5160   6.463   2.572   0.067 -0.1446  0.2780 -0.2180
 1941W        W 5161   3.794   2.411  17.504  0.1790  0.0338 -0.3718
 1942W        W 5162  17.876   1.863   1.362 -0.1722  0.0866  0.1102
 1943W        W 5163  16.919   2.862  17.729 -0.2469  0.3572  0.2007
 1944W        W 5164   8.106   6.468  15.865 -0.1116 -0.0307  0.2078
 1945W        W 5165  16.223   0.966   0.912  0.1666 -0.0800 -0.1152
 1946W        W 5166   7.205  17.240  18.121 -0.0917 -0.1428  0.1976
 1947W        W 5167  11.122  13.371   5.972  0.2094  0.0489 -0.0238
 1948W        W 5168   5.219   2.241  11.173 -0.1992  0.0357 -0.1621
 1949W        W 5169  12.543  15.226  18.102 -0.0671 -0.4069  0.1574
 1950W        W 5170  18.167   5.178  15.986  0.0329 -0.1058  0.3818
 1951W        W 5171  14.461  16.269  13.569 -0.0073  0.0043 -0.1697
 1952W        W 5172  16.497   4.919  17.109 -0.0417 -0.1244  0.0536
 1953W        W 5173  15.763   7.633  14.443  0.1099 -0.0397  0.0746
 1954W        W 5174  15.383   6.791  15.872 -0.0863 -0.1575 -0.1511
 1955W        W 5175  17.966  12.389  16.267  0.0692  0.0802 -0.1728
 1956W        W 5176   1.106  16.467  15.387  0.1016  0.1468 -0.2728
 1957W        W 5177  14.148   2.815  17.736  0.0618  0.3722 -0.1238
 1958W        W 5178   3.535   6.123   0.473 -0.2202 -0.0217  0.0257
 1959W        W 5179   5.306   3.009   6.237 -0.3306  0.2400 -0.0134
 1960W        W 5180  17.048  15.011   2.033  0.1683 -0.0554 -0.3404
 1961W        W 5181   5.120   6.583  16.376  0.2041  0.0764  0.1577
 1962W        W 5182   0.607  17.390  11.888  0.3401 -0.2355 -0.3069
 1963W        W 5183   6.803   1.589  12.418 -0.0923  0.1838  0.0284
 1964W        W 5184  11.498   3.889   0.367 -0.2310  0.2215 -0.2338
 1965W        W 5185   6.787   3.833  14.900 -0.0324  0.1521  0.0277
 1966W        W 5186  14.474  17.568   2.364 -0.2451  0.2471 -0.1819
 1967W        W 5187   2.554   6.983  15.702 -0.0080 -0.0248  0.0010
 1968W        W 5188   5.028  10.971   8.770 -0.1336 -0.0060  0.1639
 1969W        W 5189  16.293   0.737   0.339 -0.1376  0.0002  0.1697
 1970W        W 5190  16.530   7.925  14.330  0.0631  0.2061 -0.2426
 1971W        W 5191  10.508   2.824  16.033 -0.0999 -0.0147  0.1573
 1972W        W 5192  17.616   2.896  18.250  0.2902 -0.0580  0.1010
 1973W        W 5193  16.207   1.376  13.625  0.1595 -0.1515 -0.0475
 1974W        W 5194   2.750   9.302   9.709  0.2164 -0.5213  0.0515
 1975W        W 5195   3.271   4.912   1.717  0.1631  0.3156  0.0356
 1976W        W 5196   1.322   3.340   1.132 -0.2062  0.0744  0.0512
 1977W        W 5197  11.766  13.410  17.671  0.2027  0.2305 -0.0389
 1978W        W 5198   1.511   7.332  13.740  0.1373 -0.0808  0.0195
 1979W        W 5199  13.731   7.224   0.251  0.1670  0.2683 -0.1399
 1980W        W 5200   2.081   6.008  15.711  0.1808  0.0439 -0.0599
 1981W        W 5201   2.794   0.494  15.457 -0.1910  0.2684  0.0798
 1982W        W 5202   5.537   0.414   3.739  0.1256 -0.2628  0.1111
 1983W        W 5203  16.661   2.159   6.694  0.0896 -0.0027 -0.0219
 1984W        W 5204   7.165   3.184   2.870  0.0548  0.1293 -0.1884
 1985W        W 5205  15.454  14.003   1.116  0.0062  0.3157  0.0225
 1986W        W 5206  15.489   7.206   8.651  0.4667  0.3362 -0.1612
 1987W        W 5207   1.783   2.334  13.764 -0.1654 -0.0918 -0.1797
 1988W        W 5208  16.500   5.230   6.976 -0.1051  0.1528  0.1752
 1989W        W 5209   0.144   5.111  17.105  0.1755 -0.0590 -0.2186
 1990W        W 5210   4.859   9.292  13.547 -0.0027  0.1487 -0.0217
 1991W        W 5211   3.910   1.962  11.510  0.0428  0.0709 -0.0503
 1992W        W 5212  17.723  14.455   9.401 -0.0282 -0.1052 -0.2947
 1993W        W 5213  17.133  17.507  16.543  0.0187 -0.0012  0.1625
 1994W        W 5214  12.980  17.389  13.833 -0.0263 -0.0972  0.0878
 1995W        W 5215   2.512  15.809  14.257  0.0659 -0.2630 -0.1015
 1996W        W 5216   1.550  13.816  13.610 -0.0243 -0.1005  0.0203
 1997W        W 5217   5.341   1.813   9.121  0.1211 -0.0916 -0.2066
 1998W        W 5218  17.598   3.898  16.118  0.2582  0.2861 -0.3330
 1999W        W 5219   3.882   5.291  12.899 -0.0651 -0.0630  0.1264
 2000W        W 5220   1.859   4.386  15.517 -0.3742 -0.0228  0.0871
 2001W        W 5221   9.501  16.073   0.326 -0.0853 -0.1487 -0.0859
 2002W        W 5222  16.183   5.970  13.202  0.4244  0.1512 -0.0654
 2003W        W 5223  17.140   1.943   6.897  0.0394  0.0223  0.0151
 2004W        W 5224   2.098  17.100   0.509 -0.1328 -0.3008 -0.1571
 2005W        W 5225  17.561   3.558  16.462  0.1609 -0.0293 -0.1593
 2006W        W 5226   6.054   3.341  11.478 -0.1674 -0.0962 -0.1146
 2007W        W 5227  17.824   3.693  10.693  0.0598  0.1981 -0.2977
 2008W        W 5228  14.376  14.941   9.974  0.1944 -0.0636 -0.1271
 2009W        W 5229   1.039   8.850   8.166 -0.0899 -0.2616  0.2157
 2010W        W 5230  17.775   0.540  15.892 -0.0259  0.2388  0.0505
 2011W        W 5231  14.259   1.029  15.017 -0.0054 -0.1394 -0.3073
 2012W        W 5232  15.270  16.445  11.514 -0.1451  0.0734  0.3060
 2013W        W 5233  17.856  11.771  14.248 -0.0574  0.0092 -0.0090
 2014W        W 5234   1.830   6.335  17.300  0.0422 -0.0000  0.0488
 2015W        W 5235  13.370  15.695  13.504  0.1718  0.2938  0.0988
 2016W        W 5236  10.360  13.018  15.131 -0.0482 -0.0917  0.0785
 2017W        W 5237   3.578  15.660  18.060  0.3735 -0.0930  0.2670
 2018W        W 5238  11.600  18.237   8.840 -0.1668 -0.0072  0.3294
 2019W        W 5239   3.252  15.754   1.394 -0.1020 -0.0318 -0.1666
 2020W        W 5240   2.955   5.055  14.048 -0.1990  0.1182 -0.0663
 2021W        W 5241  16.606   8.099   5.488 -0.6576  0.1786 -0.1084
 2022W        W 5242   7.910   9.729   8.942 -0.1307 -0.0571 -0.0446
 2023W        W 5243  13.993   6.000  16.198  0.2503 -0.0789  0.0066
 2024W        W 5244   1.808   2.684   9.335  0.0762  0.0715 -0.0814
 2025W        W 5245  16.261   7.248   3.013 -0.0062 -0.0286 -0.0654
 2026W        W 5246  18.028   4.809  16.243  0.2166  0.1020 -0.2611
 2027W        W 5247  18.216   0.114  17.618  0.0026  0.0866 -0.0818
 2028W        W 5248  18.062  16.112   1.287  0.1426  0.0307 -0.2090
 2029W        W 5249   7.163   1.390  11.522 -0.0935 -0.1344  0.4457
 2030W        W 5250  14.485   5.630  18.055  0.0352  0.2032 -0.0810
 2031W        W 5251  16.027  18.143  13.176 -0.2818  0.2531  0.1030
 2032W        W 5252   2.739   2.988  17.046  0.1516 -0.0267  0.0518
 2033W        W 5253   0.534  18.087  13.321 -0.0549 -0.1113  0.1574
 2034W        W 5254   2.776   1.412  16.924  0.0254 -0.1511  0.1300
 2035W        W 5255  14.076   4.539  16.942 -0.0679 -0.1746 -0.1714
 2036W        W 5256  14.853   0.850   0.631 -0.5289  0.2299  0.1613
 2037W        W 5257   0.592  12.379  10.102  0.1762 -0.1733  0.0594
 2038W        W 5258   4.073  15.270  14.312 -0.1747 -0.0983  0.0434
 2039W        W 5259   3.935   5.106  11.419 -0.0214  0.0517 -0.1035
 2040W        W 5260   6.487  15.877  16.685  0.1382  0.2726  0.1155
 2041W        W 5261   2.547   6.496  16.510  0.1361 -0.4051  0.1266
 2042W        W 5262   3.066   1.149   0.269  0.1236  0.2212 -0.2389
 2043W        W 5263   4.825   5.427   2.373 -0.2229  0.0561  0.4039
 2044W        W 5264   4.390  17.691  14.107 -0.4724 -0.1468  0.2742
 2045W        W 5265  12.256   2.052  17.346 -0.0717 -0.0673 -0.0584
 2046W        W 5266   1.653  17.459  13.526 -0.0526 -0.0085  0.1337
 2047W        W 5267  16.929   5.796   2.915 -0.1306  0.2357 -0.0991
 2048W        W 5268  17.256  16.431  12.573  0.0973  0.2998 -0.2078
 2049W        W 5269  13.260   7.751  16.604 -0.1583  0.4317  0.1383
 2050W        W 5270   0.979  17.303   2.009  0.1143 -0.3191 -0.1147
 2051W        W 5271   0.288   4.516  11.728  0.0663  0.0596 -0.2893
 2052W        W 5272   2.103   5.454   5.941 -0.0892 -0.0226 -0.4452
 2053W        W 5273   5.995  14.182  10.791  0.1561 -0.1199 -0.4154
 2054W        W 5274   3.961  17.449  11.608 -0.0222 -0.1389  0.1118
 2055W        W 5275   8.592   5.342   7.307 -0.1847 -0.0397 -0.0813
 2056W        W 5276  15.436  14.377  13.883 -0.0251 -0.0460 -0.3662
 2057W        W 5277   0.045   3.372   2.036 -0.1092  0.3125 -0.3484
 2058W        W 5278   7.370   0.644   2.326 -0.1347  0.3439  0.1435
 2059W        W 5279  18.180   0.385  14.527  0.1309 -0.1723 -0.2605
 2060W        W 5280  16.743   0.577   6.690 -0.2008  0.2634  0.0141
 2061W        W 5281   3.558   6.355  14.873  0.1221  0.1944  0.0252
 2062W        W 5282  16.199   0.036   2.555  0.0135  0.1003 -0.1906
 2063W        W 5283  14.601   0.597   0.285 -0.1879 -0.0822 -0.0510
 2064W        W 5284   5.148   3.774  13.500  0.0646 -0.2947 -0.1952
 2065W        W 5285   7.918  11.738   2.956 -0.1921  0.0859  0.1892
 2066W        W 5286  16.825  16.249   6.996  0.2874  0.1185  0.2331
 2067W        W 5287   0.585   1.452  16.144 -0.2517  0.0919  0.3285
 2068W        W 5288   4.597   5.396   6.855  0.2409  0.1331  0.0099
 2069W        W 5289   0.463  12.990  16.305 -0.0434  0.2085 -0.1988
 2070W        W 5290  10.074   4.141  17.613 -0.0686 -0.0607 -0.2079
 2071W        W 5291   0.643   6.186   2.980 -0.1256 -0.0234 -0.1066
 2072W        W 5292   3.433   3.690   5.024  0.1082  0.0777 -0.1378
 2073W        W 5293   3.792   9.355   7.778  0.0227 -0.0970  0.0788
 2074W        W 5294  12.653   2.162   1.860 -0.1091  0.1826  0.0218
 2075W        W 5295   0.207   7.851   0.646 -0.1329  0.2608 -0.0724
 2076W        W 5296   5.405  12.674   5.562  0.0938 -0.0335 -0.0023
 2077W        W 5297  10.162   3.811   0.737 -0.0973 -0.1985 -0.0992
 2078W        W 5298  13.656   9.081   4.802 -0.0168  0.0224 -0.3330
 2079W        W 5299  17.016  17.710   2.506  0.0845  0.2966  0.1065
 2080W        W 5300  14.689   6.842  13.968  0.0717 -0.0518 -0.1135
 2081W        W 5301  12.959   0.791  13.928 -0.0109  0.2360  0.0949
 2082W        W 5302  16.875   8.541   8.483  0.2729 -0.0677  0.0283
 2083W        W 5303   5.396   7.511   2.746 -0.2491  0.0317 -0.1756
 2084W        W 5304   1.120   4.404  16.502 -0.2820  0.0347 -0.0570
 2085W        W 5305   1.194   5.670   1.181  0.0708  0.2564  0.0903
 2086W        W 5306   9.780   3.247   5.812  0.0483  0.1211  0.2080
 2087W        W 5307  16.727   5.832  17.620  0.0020 -0.2552  0.2009
 2088W        W 5308  15.836   2.404  14.503  0.3009 -0.3740 -0.0384
 2089W        W 5309   1.280   1.589   3.011  0.0078  0.1885 -0.0357
 2090W        W 5310  16.063   9.145   3.369  0.0330 -0.2026 -0.0363
 2091W        W 5311  16.542  10.821   0.496  0.4295 -0.0274 -0.0067
 2092W        W 5312  13.664  14.692  16.370 -0.0892 -0.0581  0.2103
 2093W        W 5313   1.692  13.314   1.911 -0.1642  0.1489 -0.2128
 2094W        W 5314  15.262  11.065  17.255 -0.1797  0.0826 -0.0217
 2095W        W 5315   3.592   2.706   1.724  0.2629 -0.0280 -0.0481
 2096W        W 5316  17.325   1.372   5.029  0.0727 -0.4070 -0.0002
 2097W        W 5317   3.758   7.943   1.948 -0.2080 -0.2945 -0.0990
 2098W        W 5318   7.533   7.391   4.844 -0.2293  0.4751 -0.2748
 2099W        W 5319   3.993   3.995   0.055 -0.0483  0.2655 -0.1123
 2100W        W 5320   1.887   6.881   3.283  0.0701 -0.1960 -0.0251
 2101W        W 5321   2.174   7.146   2.835 -0.0408  0.2129  0.0555
 2102W        W 5322  17.891   8.488  13.848 -0.2156  0.1140  0.1070
 2103W        W 5323   3.993   7.906  16.620 -0.0528 -0.0893  0.2323
 2104W        W 5324   5.113   3.867   5.384 -0.3375 -0.1009 -0.1451
 2105W        W 5325   6.058   3.613  13.261  0.2436  0.0576  0.0363
 2106W        W 5326   1.222   2.144   6.183 -0.2164  0.0574  0.1110
 2107W        W 5327   7.186   8.488   0.841  0.0837 -0.1992  0.0647
 2108W        W 5328   7.705   9.652  16.463  0.1125 -0.0571 -0.0182
 2109W        W 5329   1.517   2.936  14.256  0.0467 -0.2757 -0.0655
 2110W        W 5330   8.645   9.321  15.767 -0.0340  0.1161  0.1212
 2111W        W 5331  13.050   6.023   5.312 -0.1475 -0.2951  0.1291
 2112W        W 5332   1.775   0.711   2.080  0.0856 -0.0401 -0.2785
 2113W        W 5333   0.459   3.557   2.315 -0.0023 -0.1942  0.0416
 2114W        W 5334   2.241  12.206  14.782  0.7438  0.2911 -0.4819
 2115W        W 5335   5.020   8.802   1.920 -0.1499  0.1606  0.2060
 2116W        W 5336  16.880   4.393   0.571 -0.1325  0.1930  0.1896
 2117W        W 5337   3.581   8.727  17.733 -0.0875 -0.1022  0.0167
 2118W        W 5338   1.845  10.697   1.803 -0.3404  0.5312  0.3475
 2119W        W 5339   1.441   5.153   1.202 -0.0984  0.1178 -0.4482
 2120W        W 5340  18.030   6.793  17.353  0.1277 -0.1885  0.0437
 2121W        W 5341   9.178   0.734   4.187  0.0650  0.2647  0.0551
 2122W        W 5342   0.779   4.430   7.758 -0.1184 -0.1889  0.1356
 2123W        W 5343   0.473  10.403   2.563  0.1097  0.0488 -0.1025
 2124W        W 5344   5.863   8.489   0.050 -0.0599  0.3414 -0.1579
 2125W        W 5345  15.598   7.717  16.831 -0.2250  0.0018  0.0846
 2126W        W 5346  18.169  10.646   5.601 -0.0183 -0.0722  0.1440
 2127W        W 5347   7.442   5.292  11.103 -0.2434  0.2960 -0.1294
 2128W        W 5348   1.981  12.253  17.382 -0.1697  0.0689 -0.2748
 2129W        W 5349  17.030  18.203  16.502 -0.3307 -0.0051 -0.2365
 2130W        W 5350  17.995  17.191  12.369  0.0513 -0.1472  0.0720
 2131W        W 5351  16.748  12.723   2.709  0.0850 -0.2330  0.0308
 2132W        W 5352  17.604   8.866  14.670 -0.1121 -0.0014 -0.3091
 2133W        W 5353   7.930   6.732   3.453  0.0615  0.1481  0.2696
 2134W        W 5354  15.391   7.713  17.523  0.0597 -0.0590 -0.0431
 2135W        W 5355   8.091  11.307  16.749 -0.0791  0.1243 -0.2546
 2136W        W 5356   5.659   9.400  18.167  0.0351 -0.1426 -0.2284
 2137W        W 5357   7.371   1.435   3.309  0.2408  0.0539 -0.3887
 2138W        W 5358   3.387   4.136  11.540  0.0720 -0.3772 -0.3198
 2139W        W 5359  14.092  11.422  17.497 -0.3850 -0.2598  0.0135
 2140W        W 5360   2.995   2.816  18.137  0.3163 -0.1937  0.2371
 2141W        W 5361   6.570   6.418  16.842 -0.1720  0.5250 -0.3758
 2142W        W 5362   4.962   5.035   7.823 -0.0259  0.0075  0.2020
 2143W        W 5363  15.476   3.952   5.385  0.0728  0.2312  0.4129
 2144W        W 5364  14.726  17.995   7.909  0.2770 -0.3600 -0.1155
 2145W        W 5365  12.038   3.633  13.757  0.0909 -0.2591 -0.1306
 2146W        W 5366   4.996   4.306  16.885  0.3473 -0.2506 -0.4038
 2147W        W 5367   4.633   9.021  12.818  0.0087  0.0491 -0.0846
 2148W        W 5368  15.943  17.176   8.929  0.1766  0.1219  0.2125
 2149W        W 5369  18.135   8.637   1.937 -0.2844 -0.0733  0.0136
 2150W        W 5370   4.083   5.769   2.610 -0.2965  0.1400 -0.1948
 2151W        W 5371  17.037   5.786   2.193  0.2366 -0.0023 -0.1047
 2152W        W 5372   1.653   5.081  15.605  0.0840  0.1352  0.0620
 2153W        W 5373   5.838   2.859  17.332 -0.6036 -0.0650 -0.3321
 2154W        W 5374  17.435   1.473   0.710 -0.1174 -0.4138  0.1294
 2155W        W 5375  13.037   4.324  14.055  0.0775 -0.3074  0.0452
 2156W        W 5376   4.083   4.268  16.591 -0.2064  0.3550 -0.1235
 2157W        W 5377   2.920   5.805   5.746  0.0596  0.1081  0.1315
 2158W        W 5378   5.353   1.455  16.293  0.2159 -0.2795  0.1385
 2159W        W 5379   4.283   6.785   2.199 -0.1127  0.0956  0.0509
 2160W        W 5380   6.853   7.522   1.747  0.0911  0.0073  0.2699
 2161W        W 5381   2.465   3.714   3.753  0.1521  0.0931  0.1501
 2162W        W 5382   1.060   2.388   0.127  0.4102  0.0799 -0.0181
 2163W        W 5383  15.993   6.595   4.400  0.2102 -0.4213  0.2192
 2164W        W 5384   5.822   3.138  17.986 -0.1591 -0.4106  0.0683
 2165W        W 5385   4.947   9.774   4.640 -0.1097 -0.2089  0.1821
 2166W        W 5386  15.488   4.976   2.630 -0.0983 -0.1258  0.0300
 2167W        W 5387   3.970  17.635   2.259  0.1423  0.0397 -0.1867
 2168W        W 5388  16.874   0.322   2.879  0.2932 -0.1175  0.2714
 2169W        W 5389   6.998  15.972  16.904 -0.0377 -0.1663  0.3112
 2170W        W 5390   4.210  15.606   2.565 -0.1520  0.0919  0.0905
 2171W        W 5391   0.682   4.508  11.433  0.0588  0.4725 -0.0371
 2172W        W 5392   5.940   7.613  13.104  0.3836  0.1410  0.1231
 2173W        W 5393   1.331  13.870  16.766  0.0993  0.4103 -0.0535
 2174W        W 5394   7.845   3.798   1.278 -0.0856  0.1977  0.1961
 2175W        W 5395   0.801   6.627   0.252  0.0882  0.1691  0.0301
 2176W        W 5396  11.805   0.962   4.560  0.1990  0.2338  0.1099
 2177W        W 5397   2.408   6.797   3.156  0.0950  0.1295 -0.1338
 2178W        W 5398   1.219   8.033  16.908  0.2203  0.0843  0.1845
 2179W        W 5399   0.538   6.654   1.137 -0.0475 -0.2397 -0.1553
 2180W        W 5400  10.826   5.256   2.353 -0.2611  0.1046  0.1758
 2181W        W 5401   1.079   9.410  10.701  0.2069 -0.1083  0.1276
 2182W        W 5402  18.148   9.301   2.969 -0.0969  0.1131  0.2114
 2183W        W 5403  16.598   8.876   4.134 -0.1697 -0.2470 -0.1615
 2184W        W 5404   5.884   6.481  13.743  0.0735  0.0516  0.0114
 2185W        W 5405   3.462   6.074  16.816 -0.0294  0.1354  0.1326
 2186W        W 5406   1.500   5.310  14.360 -0.2421 -0.1099  0.1610
 2187W        W 5407   4.825   0.172   0.037 -0.1632  0.1990 -0.0226
 2188W        W 5408   2.965   1.804  16.306  0.0113  0.0491  0.0176
 2189W        W 5409   1.690  11.244  16.844 -0.1036  0.0132  0.3843
 2190W        W 5410   1.429  11.427  10.601  0.1582  0.0006  0.0492
 2191W        W 5411   1.236   4.548   3.154 -0.1549  0.2249 -0.0893
 2192W        W 5412  16.387  11.767   5.594 -0.2181 -0.1350 -0.0882
 2193W        W 5413  14.146   1.418   3.460  0.0743 -0.1615 -0.3257
 2194W        W 5414   8.681   6.609   6.106 -0.0324  0.1858 -0.0897
 2195W        W 5415   2.400   2.053   2.318  0.0467  0.1773 -0.1549
 2196W        W 5416   4.388  10.909  11.632  0.1215 -0.0473 -0.0498
 2197W        W 5417   0.264   6.524  14.038 -0.1347 -0.1657  0.0267
 2198W        W 5418   3.851   1.889   1.319 -0.1342 -0.1817 -0.1506
 2199W        W 5419   4.039  13.498  12.953  0.0470 -0.2141  0.2522
 2200W        W 5420   3.050  10.828  17.400  0.0291  0.2813  0.1289
 2201W        W 5421  16.603   8.497   1.618  0.1296  0.2442 -0.1772
 2202W        W 5422  18.092   4.541   5.097  0.2276 -0.0042 -0.1205
 2203W        W 5423  18.028   7.765  13.316 -0.1197  0.2442  0.2333
 2204W        W 5424   5.597   7.769  10.820 -0.0595  0.0011 -0.0118
 2205W        W 5425   4.165   6.255   2.416  0.0170 -0.2987  0.0064
 2206W        W 5426  17.236  15.356   1.739 -0.2669  0.3034  0.2219
 2207W        W 5427   2.762  12.328   5.014  0.0964  0.4281 -0.0416
 2208W        W 5428   4.035   8.152   5.734  0.3334  0.0366  0.2065
 2209W        W 5429  17.849   7.114  17.005 -0.2126 -0.0845  0.0699
 2210W        W 5430  14.419   3.667   5.187  0.2130 -0.2132 -0.2614
 2211W        W 5431   1.489   6.521   3.142 -0.3737 -0.0925  0.1566
 2212W        W 5432   1.950   3.905  16.498  0.3943 -0.1542 -0.1050
 2213W        W 5433   2.449   5.712   5.622  0.1398  0.4788 -0.0988
 2214W        W 5434  13.732   7.649   3.604 -0.0319  0.0709 -0.0066
 2215W        W 5435  16.444   4.313  15.002 -0.3699 -0.4202  0.0468
 2216W        W 5436  15.013  12.710  13.041 -0.1000  0.0303 -0.0514
 2217W        W 5437  16.348   8.979   2.308  0.1184  0.2561  0.0515
 2218W        W 5438   7.861  14.589   5.164  0.0698  0.0807 -0.1258
 2219W        W 5439   1.714   6.510  12.786  0.1326 -0.1226 -0.0908
 2220W        W 5440   2.727   2.431   2.325 -0.0443 -0.1062  0.4772
 2221W        W 5441   3.379  10.304   1.346 -0.4196 -0.1868 -0.1489
 2222W        W 5442   1.446   7.334   5.990  0.0881 -0.0063  0.1294
 2223W        W 5443   2.959   3.179   0.466 -0.2364  0.0160  0.1031
 2224W        W 5444   0.600   6.498  17.778 -0.2860 -0.0148 -0.1633
 2225W        W 5445  14.616   8.674  18.239  0.1095  0.0379  0.2697
 2226W        W 5446  14.986   2.833   6.613 -0.0336 -0.4595 -0.0674
 2227W        W 5447  17.929  18.005  16.706 -0.1912  0.0469  0.1213
 2228W        W 5448  15.861   6.890   6.948 -0.0982 -0.1732 -0.0581
 2229W        W 5449   2.919   1.502  18.163  0.0553 -0.0258 -0.0499
 2230W        W 5450   4.301  11.701   6.729 -0.0330  0.0833  0.1115
 2231W        W 5451   0.589  10.497  17.283 -0.2535  0.2668 -0.0439
 2232W        W 5452   2.689   2.505   1.442  0.2802  0.0824  0.0120
 2233W        W 5453   4.667  13.900  16.690 -0.3421  0.2275 -0.1117
 2234W        W 5454  17.910   5.006   4.708  0.1906 -0.2094 -0.3683
 2235W        W 5455  16.861   6.225   8.933 -0.1009 -0.3140 -0.0263
 2236W        W 5456   1.465   4.013   4.878 -0.0127 -0.6039 -0.1405
 2237W        W 5457   4.284   6.920   1.663  0.1637  0.2146  0.1365
 2238W        W 5458   3.228  10.051   2.775  0.1968  0.1228 -0.0800
 2239W        W 5459   0.975   2.750  17.167 -0.1898  0.2486  0.3198
 2240W        W 5460   7.314   6.256   4.109  0.3323 -0.1071  0.0520
 2241W        W 5461   5.314   3.980   3.078  0.1778  0.0528 -0.2758
 2242W        W 5462   1.014   2.461  12.553  0.1332  0.1579  0.0380
 2243W        W 5463   3.773  11.016  17.698  0.0927  0.0047  0.1576
 2244W        W 5464  12.734  15.559   1.474 -0.4976 -0.1494 -0.0341
 2245W        W 5465   1.563   4.659  13.224 -0.2769  0.2213 -0.1672
 2246W        W 5466  17.361   0.743  16.684  0.4415 -0.3574  0.1572
 2247W        W 5467  14.983  18.242   3.235  0.0856  0.0593  0.2209
 2248W        W 5468   4.876   2.604   3.035 -0.1181  0.1952  0.1060
 2249W        W 5469   2.619  17.150   5.795 -0.2307  0.3618 -0.2644
 2250W        W 5470   3.004   0.384  11.959 -0.0636 -0.3280  0.0257
 2251W        W 5471   0.752   3.499   5.991  0.2199 -0.2886  0.0188
 2252W        W 5472   0.776  10.221   0.252 -0.1984 -0.3067 -0.0433
 2253W        W 5473   3.696  14.290   8.948 -0.0672 -0.4698  0.3385
 2254W        W 5474  15.481   6.731  13.314  0.1750  0.0349 -0.1292
 2255W        W 5475   2.739   7.775   0.266  0.0885 -0.0408  0.1493
 2256W        W 5476   2.420  17.769   2.436  0.1048 -0.0257 -0.0494
 2257W        W 5477   2.925  17.101   2.440  0.1135 -0.1695 -0.0974
 2258W        W 5478   7.737   8.349   7.295 -0.1021  0.1921 -0.2718
 2259W        W 5479   2.333   5.259   4.806 -0.1405 -0.1479  0.1521
 2260W        W 5480   6.012  10.949   7.013 -0.0110  0.3074  0.0732
 2261W        W 5481   0.052  17.696   6.043 -0.0730 -0.1148  0.2361
 2262W        W 5482   1.949   6.680   0.683  0.1486  0.1916 -0.0639
 2263W        W 5483   3.344   7.517  17.273  0.2667  0.0716 -0.1944
 2264W        W 5484   4.960  12.892   3.438  0.0130  0.1239 -0.3174
 2265W        W 5485   1.838   4.661   4.471  0.2534 -0.0784  0.0574
 2266W        W 5486   2.146  13.664   0.780  0.0267 -0.0090 -0.0494
 2267W        W 5487   3.638   2.750  14.346 -0.2946 -0.1439 -0.1328
 2268W        W 5488  17.103   8.686  16.044  0.1592  0.1184  0.4244
 2269W        W 5489   3.493  10.503  15.285 -0.3024  0.2284  0.1134
 2270W        W 5490   2.215   6.250   2.264  0.1508  0.1676 -0.0315
 2271W        W 5491  13.676   2.849   4.130  0.1390 -0.2179 -0.1812
 2272W        W 5492   7.874   8.121   3.417 -0.1241 -0.0661  0.5228
 2273W        W 5493   4.190   9.767   2.308 -0.1383  0.0647 -0.1545
 2274W        W 5494   9.977   7.411   6.336  0.1802  0.2148 -0.0449
 2275W        W 5495  17.715   3.546   0.125 -0.1237  0.1849  0.0943
 2276W        W 5496  15.577   4.952   5.343  0.2032  0.2670  0.2175
 2277W        W 5497  10.147   0.849   2.926  0.0602  0.3615 -0.2224
 2278W        W 5498  16.801  17.411  11.759  0.3269 -0.1308  0.0667
 2279W        W 5499   6.278   4.015  18.147 -0.1999  0.0471  0.2354
 2280W        W 5500   0.405   1.887   3.974 -0.2847 -0.2589  0.0011
 2281W        W 5501   3.871   2.027   4.126  0.1525  0.0018 -0.1743
 2282W        W 5502  12.611   8.458  13.244  0.1548  0.1087  0.3136
 2283W        W 5503   0.072   7.530   9.002  0.4106  0.1878  0.0394
 2284W        W 5504  10.137   2.218  10.045  0.0910  0.3760  0.3008
 2285W        W 5505   0.137   9.830   4.799  0.1541 -0.0597  0.1022
 2286W        W 5506  10.973  11.651  17.887  0.1629 -0.0579  0.3144
 2287W        W 5507  16.622   2.062   0.777 -0.3915  0.0298 -0.0491
 2288W        W 5508   5.618   3.745   2.773 -0.0398  0.1717  0.1558
 2289W        W 5509   4.881   2.985   0.874 -0.1450 -0.0905 -0.2344
 2290W        W 5510   1.489   4.685   1.039 -0.0185  0.0150  0.0851
 2291W        W 5511  13.990   4.512  16.375 -0.1293 -0.1835 -0.1080
 2292W        W 5512  13.448   3.857   2.270  0.0128 -0.0681  0.1186
 2293W        W 5513   2.033   0.503   3.245 -0.3727  0.0882  0.3189
 2294W        W 5514   1.818   3.489  17.206  0.1911 -0.0001 -0.1539
 2295W        W 5515   4.296   7.389   1.581  0.3670 -0.1270 -0.3281
 2296W        W 5516   1.759   4.800  15.206  0.2100 -0.0967 -0.0037
 2297W        W 5517   3.141  17.772   4.101  0.3788  0.1139 -0.2098
 2298W        W 5518   2.193   0.458   9.695 -0.0952  0.3819 -0.2289
 2299W        W 5519  17.946  13.148   6.314  0.3108 -0.0105  0.3976
 2300W        W 5520   3.005  17.513   0.885 -0.0565  0.1074 -0.0686
 2301W        W 5521   2.296   8.529   4.471  0.1947  0.3076  0.1765
 2302W        W 5522  10.081   7.025   0.570  0.2353 -0.0882  0.2794
 2303W        W 5523   6.111   6.589  14.148  0.2398  0.0186  0.1768
 2304W        W 5524   3.278   9.989   5.131 -0.0535 -0.3098  0.3659
 2305W        W 5525   8.883   6.470   3.964 -0.1091  0.0958  0.3092
 2306W        W 5526   4.203   8.337   1.945 -0.1325  0.1857  0.3061
 2307W        W 5527   2.611  17.213  10.610 -0.1120 -0.0017 -0.1570
 2308W        W 5528  12.553   7.956   2.679  0.0223  0.0295  0.2014
 2309W        W 5529   5.060   4.490  10.754  0.0010 -0.1725  0.2470
 2310W        W 5530   3.762   4.685   4.282  0.0531  0.3020  0.2101
 2311W        W 5531  16.527   4.336   5.973  0.2347 -0.0585  0.1526
 2312W        W 5532   5.947   6.656   3.357  0.1039  0.1939  0.1183
 2313W        W 5533  17.038   2.411  15.380 -0.2391 -0.0416 -0.0959
 2314W        W 5534   0.867   8.099   3.649  0.1145 -0.2753 -0.3249
 2315W        W 5535   0.027  11.265  15.373  0.2356  0.2614  0.3110
 2316W        W 5536   4.654  10.655  13.411 -0.0511 -0.0393  0.0461
 2317W        W 5537  16.992   4.913   5.148  0.1503  0.2261 -0.0994
 2318W        W 5538   3.444   6.830  14.623  0.2153 -0.0598 -0.0049
 2319W        W 5539  17.407   5.822   1.347 -0.3706 -0.0722  0.1183
 2320W        W 5540  16.626   2.679   6.919  0.0021  0.0272 -0.1945
 2321W        W 5541   4.496  16.490   1.370  0.2887 -0.2215  0.1538
 2322W        W 5542  13.632   8.172  11.387 -0.0479  0.1330  0.1573
 2323W        W 5543   7.599   9.832  16.899 -0.3824  0.1073 -0.4559
 2324W        W 5544  17.599   2.784   2.430 -0.2049 -0.4224 -0.0419
 2325W        W 5545   0.334   7.233   2.346 -0.0941  0.1580 -0.1423
 2326W        W 5546   1.870   7.378   5.560  0.0873 -0.2374  0.2908
 2327W        W 5547   5.080   2.539   1.388 -0.0435  0.0690  0.3703
 2328W        W 5548   6.555   3.261   0.766  0.0102 -0.1800 -0.0345
 2329W        W 5549  13.551   6.892   2.481  0.1437 -0.0532  0.0347
 2330W        W 5550   3.175   8.569   3.850 -0.0539 -0.4040 -0.0417
 2331W        W 5551   0.735   2.987  17.651 -0.0333 -0.0718 -0.0711
 2332W        W 5552   8.133  11.760   3.900  0.0708 -0.1261 -0.1261
 2333W        W 5553  16.449  15.743  14.635  0.1769 -0.1983  0.0397
 2334W        W 5554  10.521  16.428   0.767 -0.0436  0.2434  0.1651
 2335W        W 5555   3.000   7.778   6.535  0.2201  0.2947  0.0260
 2336W        W 5556   7.404   1.069   1.439 -0.3083 -0.3067 -0.2334
 2337W        W 5557  10.845  18.249  12.001  0.1734 -0.0884  0.1069
 2338W        W 5558   7.609   7.779   8.287  0.1140 -0.0711  0.1172
 2339W        W 5559   2.633   6.174   6.897 -0.2246  0.0588 -0.2637
 2340W        W 5560   8.169   9.266  13.485 -0.0895 -0.0552 -0.0674
 2341W        W 5561   6.204   2.817   8.269 -0.1583 -0.0275  0.2148
 2342W        W 5562   7.493   6.738   1.320  0.2259 -0.1444 -0.0240
 2343W        W 5563   2.545   2.917   2.189  0.0800  0.3686 -0.0678
 2344W        W 5564   8.754   9.408   6.285  0.3408 -0.0576 -0.1238
 2345W        W 5565  16.757   6.784   0.769  0.0293  0.5610  0.2707
 2346W        W 5566  17.805   7.308  16.288  0.0119 -0.1656 -0.1331
 2347W        W 5567   1.672   2.002   3.670  0.1659 -0.0082  0.0984
 2348W        W 5568   1.118   7.376   1.330  0.2374  0.0673  0.1148
 2349W        W 5569   0.519  12.685  15.594  0.0509 -0.0938  0.0387
 2350W        W 5570  18.114   5.937   1.885 -0.4038 -0.2564  0.0831
 2351W        W 5571   2.686   8.590   7.596  0.1788  0.0405  0.2503
 2352W        W 5572  12.079   6.919  16.250  0.2469  0.0459  0.0961
 2353W        W 5573   0.648   9.529  15.724 -0.0663 -0.0231 -0.1670
 2354W        W 5574   4.677   8.141  13.167  0.1238 -0.0976 -0.0797
 2355W        W 5575  13.860   0.422  16.970  0.1415  0.1602 -0.0898
 2356W        W 5576   9.351   2.848   2.571 -0.0990  0.0248 -0.0344
 2357W        W 5577   6.112  17.989   3.048 -0.2267  0.0446  0.1779
 2358W        W 5578  12.434   8.201   3.137 -0.4947  0.1753  0.2622
 2359W        W 5579   3.467   0.491   7.661  0.2734  0.1301 -0.1527
 2360W        W 5580  17.360   6.149   2.347 -0.0597 -0.2625  0.0759
 2361W        W 5581   3.627   2.278  17.988 -0.5425 -0.2589  0.2849
 2362W        W 5582  15.780   0.604   3.436 -0.1493 -0.0972 -0.0996
 2363W        W 5583  15.327   8.982   5.662 -0.2132  0.0824  0.1003
 2364W        W 5584   0.011   8.637   0.927  0.1072 -0.1769  0.1216
 2365W        W 5585   4.863  10.615  14.746  0.1264  0.1087  0.0268
 2366W        W 5586   5.797   5.696  18.000  0.1403 -0.1012  0.0001
 2367W        W 5587  16.608   2.037  17.702  0.0320  0.1824  0.0879
 2368W        W 5588   3.613   8.946   0.820 -0.1704 -0.0616  0.1068
 2369W        W 5589   4.788  15.627  16.544  0.1084  0.1084  0.0909
 2370W        W 5590  17.695   7.204   3.718 -0.0293 -0.2348 -0.0015
 2371W        W 5591   7.623   8.627   9.470  0.1854 -0.0767  0.1553
 2372W        W 5592  17.303   8.458   6.202 -0.0263 -0.0342  0.1187
 2373W        W 5593  10.667   9.315   6.634  0.0098 -0.2664 -0.0628
 2374W        W 5594   4.208   1.526  18.025 -0.3386 -0.0537  0.3564
 2375W        W 5595   9.953   6.107   4.120  0.1084 -0.0058 -0.0486
 2376W        W 5596   5.592   9.616   6.943  0.3483  0.4094 -0.0011
 2377W        W 5597   7.690   5.437   4.781  0.2484 -0.0297  0.1028
 2378W        W 5598  16.729   5.116  14.352 -0.0337  0.1967 -0.1318
 2379W        W 5599   5.149   7.875  12.351 -0.3089  0.0711  0.1285
 2380W        W 5600   2.983  17.034  18.170  0.1238 -0.2412  0.1332
 2381W        W 5601  17.909   7.094   4.245 -0.0954 -0.0012  0.0250
 2382W        W 5602   1.447   6.463   5.483  0.5800  0.1182  0.2463
 2383W        W 5603   5.743   6.315  12.763  0.3938 -0.3766  0.1638
 2384W        W 5604  17.330  10.878   4.238 -0.0896  0.2175 -0.2525
 2385W        W 5605   5.786   6.728  16.043 -0.1150 -0.0022  0.1289
 2386W        W 5606  17.891   5.907   3.480 -0.1709 -0.1180  0.1208
 2387W        W 5607   4.475   1.356   6.055  0.1781  0.0648  0.1238
 2388W        W 5608   5.666   9.252   1.654 -0.3332 -0.0019 -0.1252
 2389W        W 5609   2.285   6.565  17.484  0.1439  0.3585 -0.0012
 2390W        W 5610  15.481   6.477  17.462  0.1452 -0.4124  0.1133
 2391W        W 5611  15.366   4.474   1.427  0.0122 -0.0329 -0.0782
 2392W        W 5612  13.501   4.393   3.596  0.1378 -0.1058  0.1237
 2393W        W 5613   1.716   3.993  15.217  0.1098  0.0726 -0.2382
 2394W        W 5614   2.774   5.610  10.859  0.1877 -0.0283  0.0151
 2395W        W 5615   0.811   7.068  13.084  0.0455  0.0596  0.0308
 2396W        W 5616   7.742  15.954  18.056 -0.1082 -0.0697 -0.0510
 2397W        W 5617  17.307   5.592   7.978  0.1048 -0.3987 -0.0600
 2398W        W 5618   2.540  12.785  13.079 -0.1484  0.0271 -0.0096
 2399W        W 5619   2.638  11.090  16.143  0.1334 -0.0279  0.1130
 2400W        W 5620   3.993   6.270   0.304 -0.3106 -0.0110 -0.2305
 2401W        W 5621   3.668   1.890   8.973 -0.2706 -0.0389  0.3671
 2402W        W 5622   1.443   8.494  18.019  0.0110  0.0551  0.0837
 2403W        W 5623   4.588   9.095   5.478 -0.0282  0.0341 -0.2338
 2404W        W 5624   1.377   8.187   0.319  0.2580  0.1382 -0.0344
 2405W        W 5625  17.609   7.273   5.248 -0.3787 -0.0926  0.0788
 2406W        W 5626  15.923   2.524   6.211 -0.0444  0.1103  0.0967
 2407W        W 5627   3.094   4.579   6.202  0.2291 -0.0351 -0.3318
 2408W        W 5628  17.869  12.738  15.908  0.0735  0.0895  0.0106
 2409W        W 5629   6.177   6.532  15.629  0.3455  0.1712 -0.1964
 2410W        W 5630  17.966   4.144   0.262 -0.2012 -0.4122  0.1666
 2411W        W 5631   1.786  17.957   4.978 -0.0018  0.0968  0.2645
 2412W        W 5632   4.374  10.820  17.361 -0.0213  0.0389 -0.1053
 2413W        W 5633   8.831   1.401   8.219  0.1301  0.1948 -0.1065
 2414W        W 5634   5.085   2.641   4.779 -0.2062 -0.3721  0.1151
 2415W        W 5635   9.635   6.569  15.573 -0.0120  0.3663  0.1756
 2416W        W 5636   0.696   5.080  16.073  0.0800 -0.2224 -0.1106
 2417W        W 5637   2.719   6.609   0.382 -0.2848 -0.2516 -0.0629
 2418W        W 5638   0.395  12.817   0.561 -0.0484  0.1290  0.1441
 2419W        W 5639  17.575  12.990  13.769 -0.2751 -0.3928  0.3525
 2420W        W 5640  11.923   4.520   4.965  0.0501  0.1333  0.0748
 2421W        W 5641   2.735  10.706   0.082 -0.1599  0.1062 -0.0368
 2422W        W 5642   7.524   4.290   4.933  0.2342  0.1810  0.1833
 2423W        W 5643   4.861   2.199   2.174  0.0917 -0.3512 -0.2401
 2424W        W 5644  14.622  13.624   1.140 -0.1451  0.1731  0.0969
 2425W        W 5645   0.235   7.010   9.050 -0.2400 -0.1758 -0.0747
 2426W        W 5646   3.554   6.913   7.148 -0.2400 -0.2365  0.0492
 2427W        W 5647   5.138  12.075   1.479 -0.0162  0.0041  0.0315
 2428W        W 5648   0.409   4.256  18.045  0.0081  0.2014 -0.3033
 2429W        W 5649   4.504   8.233   0.002 -0.0263  0.2620  0.0486
 2430W        W 5650   2.744  15.941   3.797  0.0794 -0.0235 -0.1467
 2431W        W 5651   1.603  11.734  14.013 -0.1548  0.4609 -0.0098
 2432W        W 5652   2.314   6.161   9.721 -0.1457  0.1586  0.0433
 2433W        W 5653   8.274  12.599  17.393 -0.1859 -0.2197 -0.1629
 2434W        W 5654  15.571  11.932   2.244  0.0471 -0.1119  0.3537
 2435W        W 5655   6.761   4.604   8.825 -0.1156 -0.3191 -0.2325
 2436W        W 5656  14.456  18.181  10.118 -0.0303 -0.3971  0.0616
 2437W        W 5657  16.950   1.933   3.728 -0.1621  0.3205 -0.0846
 2438W        W 5658   6.495  10.560   2.537  0.0733 -0.0147  0.1304
 2439W        W 5659  18.251  15.046   4.854 -0.3721 -0.0229  0.1474
 2440W        W 5660  16.459   9.490   6.528  0.0817 -0.1699 -0.1898
 2441W        W 5661   4.443  11.821   4.367  0.1042  0.1154 -0.1717
 2442W        W 5662   5.200   4.762   5.844  0.4045  0.1333 -0.2464
 2443W        W 5663   3.072  10.777   4.404 -0.1704  0.2397 -0.4695
 2444W        W 5664   2.598   7.554   4.552  0.0860 -0.2683 -0.1180
 2445W        W 5665   3.114   4.556   2.070  0.1199  0.0441  0.1940
 2446W        W 5666   2.433   2.941   1.637 -0.0818  0.1803  0.0050
 2447W        W 5667   2.572  11.088  11.332 -0.2685 -0.0117  0.0411
 2448W        W 5668  17.740   5.596  17.777  0.3076 -0.2761 -0.4121
 2449W        W 5669   9.144   6.448   4.497 -0.1516  0.1815 -0.0526
 2450W        W 5670   1.789   2.352   7.316 -0.2016 -0.1067 -0.1513
 2451W        W 5671  10.227   4.886  12.963 -0.1050  0.0055 -0.1362
 2452W        W 5672   3.621   4.685  13.054  0.1396 -0.0824  0.0844
 2453W        W 5673   8.757   0.396   6.396 -0.2815 -0.1939  0.0862
 2454W        W 5674   6.971   5.787   2.809  0.0559  0.0736 -0.2494
 2455W        W 5675   5.955   4.577   8.309  0.1609 -0.2661 -0.1383
 2456W        W 5676  17.177  15.584  16.485  0.0986 -0.1106  0.0804
 2457W        W 5677   5.660   8.748   8.969 -0.1540 -0.1203 -0.1821
 2458W        W 5678   5.066   4.276   8.973 -0.1934 -0.1400 -0.0466
 2459W        W 5679  15.416  10.791   8.155  0.2530  0.0314 -0.0169
 2460W        W 5680   2.302  15.116   3.972 -0.0005  0.2269  0.3301
 2461W        W 5681   5.086   4.585   3.687 -0.0122 -0.2635  0.0246
 2462W        W 5682  17.755   1.467   5.266  0.2147 -0.1872 -0.2131
 2463W        W 5683  18.155   1.325   2.897  0.4011 -0.1180 -0.0335
 2464W        W 5684   8.330   0.633   0.092 -0.0001 -0.2151 -0.1948
 2465W        W 5685   2.177   0.398   2.284 -0.2258  0.0279  0.1258
 2466W        W 5686   2.165  10.815  12.202 -0.0481 -0.3540  0.1101
 2467W        W 5687   2.676   8.209   7.070 -0.0427 -0.0849 -0.0397
 2468W        W 5688   1.869   9.050   7.733  0.1868 -0.0613  0.0269
 2469W        W 5689   6.454   3.362   2.899 -0.3399  0.0458 -0.0200
 2470W        W 5690   0.680   2.273   6.590  0.0768 -0.2280  0.2346
 2471W        W 5691   0.633   9.053   2.488  0.0931  0.1865  0.0747
 2472W        W 5692   1.089   6.749   8.835  0.0652 -0.0946 -0.1322
 2473W        W 5693   6.073   0.811   1.601 -0.3769  0.1958  0.0308
 2474W        W 5694   6.666  16.187   4.093  0.2725  0.0874  0.0299
 2475W        W 5695   5.522   0.277   5.524 -0.0232 -0.1145  0.1335
 2476W        W 5696   3.520   4.032  17.063 -0.1191  0.2139 -0.0063
 2477W        W 5697   2.500   1.978   5.401 -0.2192 -0.2053  0.1774
 2478W        W 5698   0.875   9.239   5.793  0.1827 -0.2350  0.2787
 2479W        W 5699   3.701  15.965   7.339 -0.1127 -0.0315 -0.0159
 2480W        W 5700   4.678   2.632   7.326 -0.0782 -0.2421  0.0306
 2481W        W 5701   5.599   3.491   6.703 -0.1113  0.2132  0.3599
 2482W        W 5702   9.277   1.623   1.008 -0.0422  0.3970 -0.2435
 2483W        W 5703   3.600   6.177   4.664  0.0056 -0.1417 -0.0345
 2484W        W 5704   3.440   9.880  17.025  0.0450 -0.1451 -0.3822
 2485W        W 5705  10.468  11.161   6.574  0.0023  0.2235  0.0933
 2486W        W 5706   1.763   1.536  14.853  0.1961  0.0297 -0.1983
 2487W        W 5707   3.450   6.062   0.994  0.2272  0.0507 -0.0930
 2488W        W 5708   6.287   9.585   5.660  0.0080  0.2007  0.1723
 2489W        W 5709   7.278   8.104  14.678  0.0652  0.0208  0.1309
 2490W        W 5710  12.394   5.506   3.744  0.0377  0.0910 -0.3731
 2491W        W 5711  17.671   5.464   0.333  0.2847 -0.1303 -0.3108
 2492W        W 5712   5.963  13.106   1.735 -0.0881 -0.2557  0.1745
 2493W        W 5713   5.692  10.588   2.858  0.2253 -0.3459  0.0226
 2494W        W 5714   3.833  17.935   8.084  0.1599 -0.1504  0.0127
 2495W        W 5715   5.734   2.298   6.288  0.5146  0.0367 -0.0064
 2496W        W 5716   2.050  10.791   3.317  0.0204  0.0708  0.0674
 2497W        W 5717   4.351  11.701   3.874  0.2838 -0.1721 -0.1760
 2498W        W 5718   2.280  10.111   2.537 -0.1571  0.0047  0.3070
 2499W        W 5719   9.406   5.078  17.079 -0.0882 -0.1359  0.2248
 2500W        W 5720   8.286   5.905   1.971  0.0152  0.1964  0.2882
 2501W        W 5721   2.930   2.189  17.372  0.0739  0.1899  0.2080
 2502W        W 5722   4.431   5.703   4.918  0.1180 -0.1630 -0.2056
 2503W        W 5723  18.211   0.974   7.291  0.0288 -0.1654  0.0404
 2504W        W 5724  18.016  16.594   2.853  0.1164 -0.0214 -0.1794
 2505W        W 5725   7.538   6.647   4.327 -0.0174 -0.1243 -0.0487
 2506W        W 5726  16.712   2.865   4.064  0.1388  0.2042  0.0008
 2507W        W 5727   1.113   7.730   0.166  0.1191 -0.1433  0.0351
 2508W        W 5728   6.111   5.781   3.886 -0.0118  0.0085 -0.3203
 2509W        W 5729   1.249  11.331  18.116 -0.0457  0.0521  0.0920
 2510W        W 5730   2.543   2.264   4.878 -0.1217  0.2143  0.0282
 2511W        W 5731   8.540   4.835   0.743 -0.1214 -0.1817  0.1759
 2512W        W 5732  11.360   6.739   6.728  0.4726  0.2796 -0.2148
 2513W        W 5733  17.915   4.196   4.219 -0.0314 -0.2630  0.0226
 2514W        W 5734   2.271   6.898   5.779 -0.5400 -0.1585 -0.1529
 2515W        W 5735   2.794  15.080   5.835 -0.0150  0.0895 -0.1279
 2516W        W 5736   1.101   6.439   0.608  0.2432 -0.1685  0.3275
 2517W        W 5737  14.597   5.082   1.237 -0.0622 -0.0851 -0.0512
 2518W        W 5738   5.583  10.660   6.158  0.1290 -0.0001 -0.1903
 2519W        W 5739   9.054   5.315   1.099  0.1615  0.1155  0.0213
 2520W        W 5740   3.252   5.985   4.906 -0.1010  0.0889 -0.1768
 2521W        W 5741   2.141   3.772   7.463 -0.0479  0.0980  0.5004
 2522W        W 5742   3.002   1.728   4.218  0.1109 -0.0223 -0.0161
 2523W        W 5743  15.802   3.509  13.824  0.0027 -0.1578  0.0480
 2524W        W 5744  18.192   6.361   3.587 -0.2081 -0.3936 -0.0888
 2525W        W 5745  10.022  10.268   3.306 -0.0077 -0.0763 -0.0101
 2526W        W 5746   1.432   7.296   7.323 -0.0307  0.0089 -0.1468
 2527W        W 5747   8.639   7.089  17.740  0.0990 -0.0850  0.0016
 2528W        W 5748   5.088   1.979   7.607 -0.1328  0.1101 -0.0410
 2529W        W 5749   3.794   9.112  10.279 -0.1168  0.1642 -0.0037
 2530W        W 5750   3.653   8.698   1.744  0.1144 -0.2480  0.2030
 2531W        W 5751   3.750   2.078   9.441  0.0271 -0.1966  0.0169
 2532W        W 5752  15.792   2.420   1.718  0.0007 -0.0163 -0.0064
 2533W        W 5753   2.615   4.772   4.766  0.1869 -0.1818  0.3667
 2534W        W 5754   4.547  12.098   7.599 -0.3614  0.2861  0.1626
 2535W        W 5755   3.970   8.531  12.514 -0.2947 -0.4843 -0.0672
 2536W        W 5756  15.645   7.316   5.604  0.0073  0.0465  0.3117
 2537W        W 5757  14.201   6.073   6.428 -0.3351 -0.2543  0.1607
 2538W        W 5758   2.146   7.169   6.746  0.2327  0.1409  0.2014
 2539W        W 5759   4.643   0.734   5.417  0.2581 -0.0566 -0.0516
 2540W        W 5760   2.844  16.200   8.497  0.0009 -0.2537 -0.0329
 2541W        W 5761   6.393  11.791   2.858 -0.1056 -0.0127 -0.2063
 2542W        W 5762   7.888   5.991   4.077 -0.0773  0.0270  0.1593
 2543W        W 5763   3.200   8.661   0.793  0.0041 -0.1036 -0.2986
 2544W        W 5764   5.243   3.062   2.075  0.0163  0.0526 -0.0709
 2545W        W 5765   3.197  13.208   0.747  0.0105 -0.0048 -0.1735
 2546W        W 5766   0.844  12.582  10.977 -0.0193  0.2029  0.2095
 2547W        W 5767   1.615   1.835   6.365  0.0813  0.0252  0.1404
 2548W        W 5768   1.765   9.569   7.739 -0.1953 -0.2132  0.0676
 2549W        W 5769  13.841   4.562   0.914 -0.3620  0.1406 -0.0369
 2550W        W 5770   6.406   6.885   6.711 -0.1341 -0.1208  0.0476
 2551W        W 5771   1.761   3.501   2.142  0.1130 -0.3671 -0.2211
 2552W        W 5772   5.641   2.085   2.565 -0.6171  0.3706 -0.2299
 2553W        W 5773   0.379  10.450   8.001  0.1193  0.3527  0.0708
 2554W        W 5774   5.717  10.610   6.680  0.1528  0.0834 -0.1458
 2555W        W 5775  17.709   0.575   2.589  0.0573  0.2433  0.1783
 2556W        W 5776  16.807   7.694   2.538  0.0045 -0.1004  0.0904
 2557W        W 5777  14.140   4.129  10.219  0.0291 -0.2052 -0.0001
 2558W        W 5778   4.943   4.392   1.315  0.2815 -0.1229  0.0069
 2559W        W 5779   0.711  13.694  18.154 -0.2211  0.1531  0.2110
 2560W        W 5780   4.354  16.508   0.802 -0.0517  0.0300  0.0726
 2561W        W 5781   6.038  12.494   6.330 -0.0130  0.4910  0.2510
 2562W        W 5782   3.760   8.142   4.615 -0.1346 -0.1549 -0.2858
 2563W        W 5783   5.392  16.898   0.376  0.0154 -0.1456 -0.2698
 2564W        W 5784  14.463   3.590  18.192 -0.0138  0.1038  0.1209
 2565W        W 5785  10.174   3.776  10.696 -0.1888  0.2531 -0.0617
 2566W        W 5786   0.720   7.747  17.534  0.0274 -0.1234 -0.0367
 2567W        W 5787   7.744   7.075   5.141  0.0901 -0.1765 -0.0571
 2568W        W 5788   1.186   9.527  10.136 -0.2528 -0.2312  0.4451
 2569W        W 5789   4.793   4.602   4.129 -0.0678 -0.1702 -0.0071
 2570W        W 5790   0.859   7.442   5.479  0.0372  0.0900 -0.1787
 2571W        W 5791   3.692   2.566  15.323 -0.0505 -0.0398 -0.0768
 2572W        W 5792  10.953   8.391   3.916  0.1901  0.1504  0.2019
 2573W        W 5793   7.479  10.013   6.239  0.1415  0.1603  0.1462
 2574W        W 5794  15.427  17.946   3.212 -0.2209 -0.0450 -0.0448
 2575W        W 5795   0.609   6.745   5.075  0.1080 -0.3913 -0.2198
 2576W        W 5796   8.643   6.215  17.983 -0.0074  0.1115  0.0957
 2577W        W 5797  18.054   3.056   6.067  0.0731  0.0020  0.2491
 2578W        W 5798   9.267   5.441   3.735 -0.2506  0.2010 -0.0812
 2579W        W 5799   1.549   3.065  18.060  0.2345 -0.0997 -0.0490
 2580W        W 5800   3.176   6.456   9.984  0.0175 -0.0367  0.1108
 2581W        W 5801   6.201  13.565   0.753 -0.2068 -0.0043 -0.1531
 2582W        W 5802   3.874   3.568   5.420  0.0824 -0.1125 -0.0811
 2583W        W 5803   7.460   5.613   5.261  0.0240 -0.0772 -0.2085
 2584W        W 5804  13.967   7.853  13.584  0.2523 -0.2139 -0.1930
 2585W        W 5805   9.275   8.937  11.105  0.1118  0.0903 -0.0135
 2586W        W 5806  17.610   9.253   2.473 -0.1899 -0.1460  0.0061
 2587W        W 5807  16.929   9.807   8.903  0.0139 -0.0636  0.0522
 2588W        W 5808  15.177   4.383   3.551 -0.0450  0.0640 -0.1529
 2589W        W 5809   0.286   2.688  14.229 -0.1257  0.0745 -0.3196
 2590W        W 5810   2.678   2.643   3.949  0.0919 -0.1191  0.1753
 2591W        W 5811  15.570   2.042   6.697  0.1110  0.0460  0.2873
 2592W        W 5812  16.099   9.859   7.411 -0.0728 -0.0982  0.2203
 2593W        W 5813   2.531   2.753   8.809  0.1533 -0.1259  0.0474
 2594W        W 5814   3.273   7.146   0.814 -0.2072 -0.1147  0.2157
 2595W        W 5815   0.626   3.567   7.419  0.1302 -0.3197 -0.1776
 2596W        W 5816   0.490   7.696   4.139  0.0416 -0.0151  0.1592
 2597W        W 5817  17.818  12.319   5.586  0.1078  0.0683 -0.2264
 2598W        W 5818   1.568  13.622   9.483  0.0278  0.1070 -0.1257
 2599W        W 5819   9.750   3.646   6.274  0.0967 -0.0234 -0.0153
 2600W        W 5820  13.944  15.746  16.426 -0.0885  0.0611 -0.0447
 2601W        W 5821   2.576  12.584   6.819 -0.0149 -0.4337 -0.0234
 2602W        W 5822   0.047   7.049   8.098  0.2638  0.2698 -0.2475
 2603W        W 5823   7.110   9.717   8.961 -0.0870  0.2432  0.1332
 2604W        W 5824  10.420  18.085  17.027  0.0988  0.0802  0.2627
 2605W        W 5825  17.043   1.296   5.927 -0.0489 -0.5596  0.0372
 2606W        W 5826   2.420  11.765   6.577  0.0600  0.0644  0.0314
 2607W        W 5827  16.129   5.615   9.358 -0.1437 -0.2154  0.2012
 2608W        W 5828  10.112   4.411  16.038 -0.0398  0.0608  0.0275
 2609W        W 5829  12.455  12.060   6.599 -0.1639  0.0198 -0.0070
 2610W        W 5830  14.692   7.226   1.713 -0.0163 -0.1074 -0.2006
 2611W        W 5831   4.959  16.365  17.089  0.1155  0.3522  0.3007
 2612W        W 5832   3.192  18.086   2.556 -0.0760  0.1712 -0.0717
 2613W        W 5833  17.682  10.414   7.947  0.1551  0.1150  0.4211
 2614W        W 5834   9.095   9.065   6.217 -0.0238  0.0491 -0.1055
 2615W        W 5835   4.274   7.174   4.237 -0.1817 -0.1767  0.1293
 2616W        W 5836   5.551   6.105   7.213  0.1220 -0.0609  0.0919
 2617W        W 5837   3.169  10.011  10.499  0.0492 -0.0404  0.1861
 2618W        W 5838  10.607   4.895   5.991 -0.0689  0.3602  0.2651
 2619W        W 5839  17.937   4.904  11.971 -0.2209 -0.3315  0.0949
 2620W        W 5840  15.475   4.375   0.599  0.2777 -0.0218 -0.0551
 2621W        W 5841  13.813   2.656   5.808 -0.0045  0.0253 -0.1232
 2622W        W 5842   2.679   4.394   2.785  0.1358  0.1023 -0.1457
 2623W        W 5843  17.947   4.000  14.516 -0.3821 -0.0762  0.3604
 2624W        W 5844   5.156   4.846   7.270  0.2412  0.1092  0.0157
 2625W        W 5845   3.501   3.182   6.969  0.2787  0.0294 -0.0420
 2626W        W 5846   5.226   2.379   0.775  0.2700  0.1344  0.1902
 2627W        W 5847  14.977   2.073   1.197  0.2459 -0.0425 -0.2353
 2628W        W 5848   4.872  10.934   3.099 -0.5097  0.0724  0.1096
 2629W        W 5849   5.199   1.786   3.412 -0.2026  0.0162 -0.0363
 2630W        W 5850   5.703   6.817   8.696  0.0062  0.1937 -0.0654
 2631W        W 5851   5.734   3.147   1.187 -0.4149 -0.1050  0.1604
 2632W        W 5852   4.526   7.162   3.143  0.1694 -0.1417 -0.2199
 2633W        W 5853   8.063  14.158   6.606 -0.1259  0.0129 -0.0141
 2634W        W 5854  14.403   7.561  14.202 -0.0207 -0.2668  0.1406
 2635W        W 5855  15.014  15.758  14.194 -0.0898 -0.3478  0.1251
 2636W        W 5856   0.355   7.075  12.804 -0.0981 -0.0361  0.2022
 2637W        W 5857   4.317  15.092   5.965 -0.1747  0.1958 -0.0310
 2638W        W 5858  16.469  15.029   9.742  0.1374  0.1204  0.1128
 2639W        W 5859   4.099   6.577   1.167 -0.0144  0.2015  0.0979
 2640W        W 5860  17.527   7.022   7.451 -0.2534 -0.1811 -0.1425
 2641W        W 5861  17.667   9.129   2.941 -0.1474 -0.1627  0.2196
 2642W        W 5862  16.223   9.061   4.382  0.0329 -0.2129  0.1400
 2643W        W 5863   4.814   3.148   6.303 -0.1287  0.0165  0.2267
 2644W        W 5864   6.413   3.672   4.843  0.2432 -0.0567  0.1000
 2645W        W 5865   5.114   2.636   1.858  0.0410  0.1131  0.1730
 2646W        W 5866  17.788  17.920   5.843  0.1179 -0.1270  0.0367
 2647W        W 5867   2.395  11.671  17.529 -0.1551  0.2054 -0.2302
 2648W        W 5868   5.290   8.225   7.817  0.1487  0.0218 -0.1965
 2649W        W 5869  17.647   5.188  14.312 -0.1171  0.2185 -0.0631
 2650W        W 5870   5.395   4.830   7.776 -0.2699  0.0614 -0.2702
 2651W        W 5871   8.720   1.349   3.892 -0.1907  0.0010  0.2826
 2652W        W 5872   5.255   9.160   6.855  0.0552  0.1673  0.0439
 2653W        W 5873   3.580   7.569   1.656 -0.3133 -0.3922 -0.1013
 2654W        W 5874   6.822   5.601  17.735 -0.1000 -0.0460  0.0523
 2655W        W 5875   0.294  12.378   3.122  0.3256  0.1477  0.1090
 2656W        W 5876   1.079  10.720   8.544 -0.2862  0.1663 -0.0434
 2657W        W 5877   4.412   2.798   0.546 -0.1825  0.0202  0.0781
 2658W        W 5878   1.544  10.552   7.663  0.0271 -0.2039  0.3465
 2659W        W 5879   3.676   8.881   6.171 -0.1088 -0.1712 -0.1718
 2660W        W 5880   4.362   2.403   0.050  0.0609 -0.0763  0.3954
 2661W        W 5881  14.709   6.270   8.025 -0.2444  0.2394  0.1200
 2662W        W 5882   3.382   6.681  17.682 -0.0260 -0.3395 -0.0290
 2663W        W 5883   8.231  13.707  15.273  0.2030  0.0693 -0.0027
 2664W        W 5884   8.540   3.043   3.266 -0.0509  0.0452 -0.3021
 2665W        W 5885   6.777   1.381   2.971  0.2892 -0.0787 -0.0570
 2666W        W 5886   0.275   5.258   7.474  0.0926  0.1821  0.2033
 2667W        W 5887  16.215  16.351   3.021  0.1630  0.0758  0.0307
 2668W        W 5888   4.440   3.957   3.427  0.2193  0.1000 -0.2237
 2669W        W 5889   4.157   5.180   5.122 -0.1796  0.0094  0.0750
 2670W        W 5890   7.782   3.801   5.122  0.3630  0.1793 -0.0483
 2671W        W 5891   1.707   8.646   2.561 -0.0475  0.0279  0.0245
 2672W        W 5892  14.321  10.806   0.076 -0.0734 -0.2250  0.0010
 2673W        W 5893  16.059   8.519   6.123  0.3211 -0.3922  0.1146
 2674W        W 5894   3.950   0.036  16.738  0.1529  0.1428  0.1021
 2675W        W 5895  16.100   5.283   5.402 -0.0651  0.1199 -0.1010
 2676W        W 5896   5.632   4.919   6.002 -0.0771 -0.1345 -0.1254
 2677W        W 5897  15.799   7.529   0.769  0.0880  0.1652  0.3011
 2678W        W 5898   6.647   5.057  14.702 -0.1482 -0.0473  0.1660
 2679W        W 5899   2.489   3.183   4.400 -0.1418  0.0070  0.3639
 2680W        W 5900  18.169  10.943   1.095 -0.0958  0.0099  0.2679
 2681W        W 5901  15.457   5.521   4.165  0.1188  0.1874 -0.1114
 2682W        W 5902  12.201   8.860   8.678  0.2292 -0.0801  0.1340
 2683W        W 5903   6.217  14.472   4.359 -0.1258 -0.0126 -0.0001
 2684W        W 5904  13.726  10.381   4.239  0.0878 -0.0506  0.0495
 2685W        W 5905   1.007   0.715   4.832  0.0118  0.1553 -0.1855
 2686W        W 5906   2.976   5.867  14.779 -0.0670 -0.0364  0.2061
 2687W        W 5907   3.876   7.245   5.784 -0.2603 -0.0115 -0.0933
 2688W        W 5908   2.774   5.851   6.524 -0.0488  0.2233  0.0252
 2689W        W 5909   1.293   8.416   7.131  0.3364 -0.1414  0.0775
 2690W        W 5910   7.934   9.915  11.033 -0.1745 -0.2277  0.0178
 2691W        W 5911   2.739   2.760   9.430 -0.1159  0.0943 -0.1276
 2692W        W 5912  17.027  17.911   0.547 -0.2754  0.0120 -0.0097
 2693W        W 5913   7.863   3.713   4.625 -0.0539 -0.1008  0.3906
 2694W        W 5914  11.281  10.800   8.655 -0.0568 -0.0729 -0.0359
 2695W        W 5915   3.437   2.869   6.138 -0.0315 -0.1463  0.2034
 2696W        W 5916   9.881   2.611   9.336  0.0911 -0.1022  0.5359
 2697W        W 5917  16.876   0.982   6.326  0.2007 -0.0223 -0.0955
 2698W        W 5918   7.210  17.226   3.113  0.0179  0.1938 -0.2651
 2699W        W 5919   2.925   7.516   8.985 -0.2030 -0.0305  0.1231
 2700W        W 5920   8.725   3.344   6.777  0.1620  0.2870 -0.0558
 2701W        W 5921   1.974  16.206   8.828 -0.0178  0.0043 -0.0209
 2702W        W 5922   1.479   7.786   1.254 -0.1387 -0.0154  0.0104
 2703W        W 5923   0.325   4.556   1.418  0.1920 -0.0296  0.0654
 2704W        W 5924   0.805  17.056   6.092  0.0176 -0.1845 -0.1253
 2705W        W 5925   1.620  11.467   7.611 -0.0165 -0.3241 -0.0066
 2706W        W 5926  16.978   1.057   4.044  0.0160 -0.1139 -0.2313
 2707W        W 5927   2.815   7.588  17.758  0.0328  0.0596 -0.0215
 2708W        W 5928  17.412   6.450   9.800 -0.0599 -0.0153 -0.1249
 2709W        W 5929   6.578   7.730   0.150 -0.1894  0.2956 -0.3804
 2710W        W 5930   3.531   7.481  11.973 -0.0283  0.0771  0.1351
 2711W        W 5931   9.117  12.387   8.600  0.2188  0.1753  0.0078
 2712W        W 5932  17.030   3.855   1.861 -0.2269 -0.0678  0.0420
 2713W        W 5933  18.129   7.537   4.524 -0.1206 -0.0871  0.2033
 2714W        W 5934   8.260   5.369   4.639  0.2690 -0.1946  0.2507
 2715W        W 5935   1.300   2.491   6.556  0.1305 -0.4431 -0.1586
 2716W        W 5936   5.480   0.407   2.074 -0.1835 -0.0925 -0.2673
 2717W        W 5937   6.116   6.095   6.474  0.1338  0.2075 -0.0107
 2718W        W 5938   3.504   7.942   6.379 -0.2266 -0.1397  0.0468
 2719W        W 5939   1.896   7.608   1.554  0.2683 -0.0266 -0.0817
 2720W        W 5940   8.476   0.064  14.082  0.1317  0.1252  0.0241
 2721W        W 5941   3.852  12.620  11.688  0.1516 -0.2948 -0.1318
 2722W        W 5942   8.625   8.393  10.913  0.1153  0.0094  0.3533
 2723W        W 5943   1.458   4.165   4.325  0.2342  0.1275 -0.3192
 2724W        W 5944   1.740  11.028  14.733  0.2010  0.0383 -0.0012
 2725W        W 5945   4.525   5.359   6.216 -0.1126  0.0460  0.1212
 2726W        W 5946   5.842   1.953   5.915  0.2004  0.2215  0.3062
 2727W        W 5947   0.029  10.140   3.162 -0.0243  0.2922  0.2737
 2728W        W 5948   7.026  10.460  16.399 -0.0826 -0.0392  0.2084
 2729W        W 5949   3.110   1.531   7.351  0.4541 -0.1719 -0.1943
 2730W        W 5950  15.210   5.573  16.619 -0.2662  0.1592 -0.1515
 2731W        W 5951   7.081   2.290   1.893 -0.0432 -0.1090  0.0531
 2732W        W 5952   2.770   2.119   4.446  0.0072 -0.2097  0.0767
 2733W        W 5953   4.891   3.287   7.360 -0.2887  0.2965 -0.0206
 2734W        W 5954  13.335   5.446   7.215 -0.0814  0.0530  0.2332
 2735W        W 5955   5.249   5.705   8.347  0.0276  0.0677  0.0482
 2736W        W 5956   8.511   8.863   7.922  0.2040  0.2326  0.0587
 2737W        W 5957   5.244  18.124   8.846  0.2793  0.0956 -0.0877
 2738W        W 5958   6.800   4.687   2.638 -0.2960 -0.2232  0.3558
 2739W        W 5959   4.559  10.296  10.540 -0.1187 -0.0336  0.3294
 2740W        W 5960  17.122   6.543   2.193 -0.3029 -0.3331 -0.0062
 2741W        W 5961   6.919   6.399   3.757 -0.0256 -0.2899  0.0037
 2742W        W 5962   4.016  13.706  11.525  0.0613  0.0962 -0.1603
 2743W        W 5963   3.618  11.550   5.839 -0.3822 -0.0578  0.0522
 2744W        W 5964   0.481   8.314  16.874 -0.0114  0.1873 -0.2535
 2745W        W 5965   5.906  18.112   4.853  0.1446 -0.1040 -0.2449
 2746W        W 5966   3.973   7.506   2.080  0.2985 -0.0576  0.0575
 2747W        W 5967   2.489   6.146  14.469 -0.1305  0.3164 -0.1254
 2748W        W 5968   1.665  11.664   5.295  0.2636 -0.1433 -0.1248
 2749W        W 5969  18.167   2.481   4.494  0.1516  0.2040 -0.0615
 2750W        W 5970   3.015   6.162   4.475  0.3945  0.0345 -0.2170
 2751W        W 5971   1.511   7.570  17.655 -0.1127 -0.1403  0.3256
 2752W        W 5972   3.248   0.984   3.522  0.0764 -0.1309 -0.0070
 2753W        W 5973   5.920   9.846   0.041 -0.0556 -0.1740  0.0120
 2754W        W 5974   4.597   3.061   8.083  0.0624 -0.0502  0.1656
 2755W        W 5975  10.104   6.253   3.199 -0.3360 -0.2198 -0.2069
 2756W        W 5976   7.263   6.643  17.686 -0.0135  0.0788  0.0658
 2757W        W 5977  11.721   4.024   5.101  0.3033 -0.0507 -0.2837
 2758W        W 5978   2.346  13.701   7.678  0.0684 -0.2559 -0.0495
 2759W        W 5979  16.651   0.220   1.378 -0.1950 -0.1977  0.1756
 2760W        W 5980   4.937   3.440   1.634 -0.2471 -0.3654 -0.3079
 2761W        W 5981   0.542   6.968   8.196 -0.1535 -0.0563  0.1987
 2762W        W 5982  17.344   1.465   2.579 -0.2240  0.0605  0.2122
 2763W        W 5983   2.926   6.821   6.420  0.1206  0.0008  0.1607
 2764W        W 5984  14.379   7.111   3.466 -0.1103  0.1377 -0.0766
 2765W        W 5985   2.340  13.020   6.173  0.1423 -0.0399  0.2267
 2766W        W 5986   3.608   5.449   6.064  0.0725 -0.0310  0.1466
 2767W        W 5987   1.397  17.943  13.928  0.0303  0.2337  0.1099
 2768W        W 5988   4.492  12.015   0.918  0.2696  0.1393  0.2189
 2769W        W 5989  16.214   6.466  13.840  0.0388  0.2468 -0.1603
 2770W        W 5990  17.622   3.028  16.483  0.3694  0.2304  0.1041
 2771W        W 5991  15.073  11.326   9.911  0.0204 -0.2143 -0.3234
 2772W        W 5992   1.333   3.128   5.918 -0.0543  0.0301 -0.2446
 2773W        W 5993  16.422   6.146   9.251 -0.1293  0.0489  0.0024
 2774W        W 5994   1.494  17.018   1.959 -0.2174 -0.0119  0.3080
 2775W        W 5995   3.145   7.319  11.007 -0.3515 -0.0268  0.0123
 2776W        W 5996   3.015  10.458   1.688 -0.1049  0.1167  0.1056
 2777W        W 5997  14.834   1.034   5.380 -0.5178 -0.0393 -0.0744
 2778W        W 5998   2.089   1.510   4.199  0.0667  0.1362  0.3254
 2779W        W 5999   5.194  17.920   7.929 -0.0603 -0.4066  0.0840
 2780W        W 6000   8.524   8.148   5.290  0.1797  0.0584  0.0911
 2781W        W 6001   6.829   7.509  18.068 -0.0348  0.0561  0.2813
 2782W        W 6002  17.106   6.737   7.276 -0.0191  0.1096  0.3355
 2783W        W 6003  17.720   1.325  16.756 -0.0106  0.2877 -0.0172
 2784W        W 6004   0.398   4.983   5.809 -0.3842  0.1056  0.3459
 2785W        W 6005   8.642   4.593   6.244  0.1594 -0.2477  0.0899
 2786W        W 6006   1.090   6.258   6.752 -0.2269  0.3102  0.0969
 2787W        W 6007   1.375   2.426   0.529  0.2008 -0.0668 -0.1511
 2788W        W 6008   3.997  10.586   5.648  0.0808  0.2591 -0.1188
 2789W        W 6009   4.250   9.380  17.845 -0.0201 -0.4404  0.2567
 2790W        W 6010   1.230   9.270   5.375  0.0619  0.0014 -0.0319
 2791W        W 6011  17.129   1.308   9.171 -0.2556 -0.2021 -0.0456
 2792W        W 6012   0.774   3.840   3.519  0.1868  0.0208  0.0046
 2793W        W 6013   0.709   6.034   3.647  0.2218 -0.1161  0.1210
 2794W        W 6014   1.932   5.730   5.523  0.2131  0.4349 -0.0569
 2795W        W 6015   5.547   3.557   3.738  0.0799 -0.1389  0.1024
 2796W        W 6016   2.222   7.567   7.011  0.1270 -0.0376 -0.0800
 2797W        W 6017   7.743   5.030  13.017  0.1675  0.0321  0.1923
 2798W        W 6018   2.140   1.715  14.564  0.0565 -0.3169 -0.0429
 2799W        W 6019  15.381   6.145   0.470  0.0116  0.2786 -0.0369
 2800W        W 6020   3.149   7.823  16.643  0.0138 -0.0518 -0.3307
 2801W        W 6021   2.019   3.250   4.453 -0.0808  0.3900 -0.0637
 2802W        W 6022   6.000   3.979   4.888 -0.1135 -0.3361 -0.1095
 2803W        W 6023  16.418  13.351  17.721 -0.3239 -0.0600 -0.0388
 2804W        W 6024   3.268   6.468   6.274 -0.2696  0.0359  0.0360
 2805W        W 6025   6.453  10.839   3.828  0.0442  0.0875 -0.0721
 2806W        W 6026  14.970   7.020   5.854 -0.1794 -0.1802  0.2777
 2807W        W 6027   3.358   5.467   5.155 -0.0290  0.1880  0.1395
 2808W        W 6028   9.756   9.303  10.867 -0.1979 -0.0566  0.0088
 2809W        W 6029   4.980   6.102   5.067  0.2747 -0.0098 -0.1372
 2810W        W 6030  13.053   5.901   8.713  0.3373  0.2377  0.0180
 2811W        W 6031   5.228  15.055   6.135 -0.2233 -0.0774  0.1182
 2812W        W 6032   5.270   2.202   5.271 -0.0805  0.0192 -0.0817
 2813W        W 6033   0.771   6.514   9.601 -0.2676  0.2937 -0.0542
 2814W        W 6034   1.583   1.133   3.949 -0.1389 -0.2170 -0.0236
 2815W        W 6035   5.156   3.808   7.462 -0.0333 -0.1978  0.0221
 2816W        W 6036  17.529   4.810   6.017  0.2945 -0.0806  0.3637
 2817W        W 6037  16.607   6.296  14.538  0.2978  0.3519  0.2647
 2818W        W 6038   6.255  12.365   2.072 -0.0061  0.1642 -0.1046
 2819W        W 6039  13.862   8.101   8.493 -0.0507 -0.1172  0.0184
 2820W        W 6040   6.768   9.381   0.685 -0.0473 -0.1409  0.3719
 2821W        W 6041   2.275   4.814   5.589 -0.0794  0.1049  0.3127
 2822W        W 6042  13.065   4.040   8.278  0.1416 -0.4728  0.0799
 2823W        W 6043   2.754   0.393   8.639  0.1526  0.1119  0.2860
 2824W        W 6044   3.174  13.039   6.116  0.0186  0.0116 -0.1841
 2825W        W 6045   1.633   1.653   8.382  0.1086  0.1403 -0.0115
 2826W        W 6046   1.980   5.552   8.649  0.1602 -0.0883 -0.0566
 2827W        W 6047  16.772  10.061  16.416 -0.2163 -0.2928 -0.2611
 2828W        W 6048  16.817   8.384  12.196  0.1656  0.1822 -0.1429
 2829W        W 6049  17.154   9.596  11.254 -0.0080 -0.0382 -0.3445
 2830W        W 6050   2.957  11.240   3.413  0.2421 -0.0448  0.1455
 2831W        W 6051  17.384   8.359   6.786  0.1841  0.1034  0.0533
 2832W        W 6052  12.746   9.416   3.341  0.3078 -0.0420 -0.0587
 2833W        W 6053  14.424   8.151  13.562  0.0127 -0.1725  0.4602
 2834W        W 6054  10.960   5.651  14.315  0.3249 -0.1698 -0.1840
 2835W        W 6055   5.362   7.010   5.000 -0.2147  0.0956  0.0102
 2836W        W 6056   5.166   5.431  12.378 -0.0700  0.0488 -0.0111
 2837W        W 6057   2.294  11.981  12.581 -0.2264 -0.2113  0.3773
 2838W        W 6058   5.623   5.778   3.256  0.1648 -0.0233 -0.2362
 2839W        W 6059  17.524   2.315   9.326  0.0741 -0.1915 -0.0885
 2840W        W 6060  16.848  17.932   9.753  0.0313 -0.3609  0.0518
 2841W        W 6061   3.256   5.775   7.560  0.0927  0.0300 -0.0925
 2842W        W 6062   9.680   6.574   7.449 -0.0764 -0.0369 -0.2594
 2843W        W 6063  14.802  17.836   4.492  0.0032  0.0476  0.0523
 2844W        W 6064  11.107   6.599   1.594  0.0976 -0.1163  0.0121
 2845W        W 6065   2.072   0.288   8.148 -0.1506 -0.1575  0.0812
 2846W        W 6066   4.051   3.770  13.433 -0.1122  0.0186 -0.0331
 2847W        W 6067   3.649   8.943   5.115  0.0021 -0.1710 -0.0351
 2848W        W 6068   3.913  10.348   8.070  0.0327  0.0667  0.2486
 2849W        W 6069   6.326   1.430   9.726  0.1039 -0.0553 -0.1011
 2850W        W 6070   5.881   6.371   8.793  0.0501 -0.2755  0.1278
 2851W        W 6071  16.021   6.086   9.706 -0.2454  0.2538 -0.0872
 2852W        W 6072   1.933   8.728   8.666 -0.1364  0.0215 -0.1451
 2853W        W 6073  13.892  16.866   7.937  0.1223 -0.2966 -0.1894
 2854W        W 6074  17.806  11.436   9.081 -0.4321  0.0134  0.1834
 2855W        W 6075   2.157   5.646   0.258 -0.1451  0.1720 -0.1042
 2856W        W 6076  18.196   1.291   4.964 -0.1662  0.2315  0.1382
 2857W        W 6077   6.943   8.246   8.538  0.1824 -0.0085 -0.1156
 2858W        W 6078   4.700  12.180  12.272 -0.0588  0.2305  0.1030
 2859W        W 6079   0.182   4.300  12.874 -0.0063 -0.1389  0.0772
 2860W        W 6080   1.925   8.226  13.992  0.2237  0.0284  0.2291
 2861W        W 6081   1.484   3.911  16.257 -0.0530 -0.1342 -0.1700
 2862W        W 6082   0.744  12.065  11.753  0.2144  0.1443  0.0268
 2863W        W 6083   8.844   4.809  13.102  0.3404  0.3676  0.2618
 2864W        W 6084   0.308   2.953  15.749 -0.0380  0.0987  0.2428
 2865W        W 6085  15.148   2.427   8.766  0.1987  0.2964 -0.3486
 2866W        W 6086   4.974   7.280   8.613  0.0197  0.0608 -0.0606
 2867W        W 6087   8.359   1.706   8.133  0.0318 -0.0079 -0.2254
 2868W        W 6088   2.814   3.253  10.627  0.0616 -0.0218  0.1040
 2869W        W 6089  16.387   5.639   9.792  0.2551  0.0765 -0.2146
 2870W        W 6090  16.372   3.959  12.283  0.0933 -0.1413 -0.2975
 2871W        W 6091  10.336   1.980   6.771  0.1121 -0.0314  0.2450
 2872W        W 6092   0.588  15.528   5.392 -0.0552 -0.0813 -0.0052
 2873W        W 6093   5.657   4.007   7.409  0.0616 -0.1301 -0.3113
 2874W        W 6094   1.604   2.663  14.686  0.0314 -0.0002  0.1162
 2875W        W 6095  15.303   1.775  12.220 -0.0243  0.1324  0.0750
 2876W        W 6096   0.912   4.164  11.114  0.1143  0.3334 -0.0819
 2877W        W 6097   2.532   5.231   5.725  0.2579 -0.1801  0.1766
 2878W        W 6098   9.420  10.530  12.550 -0.0213  0.0168 -0.0987
 2879W        W 6099   2.031   4.448   9.836 -0.1330 -0.2776  0.0490
 2880W        W 6100   7.467  15.232   3.693 -0.1078 -0.0199 -0.0548
 2881W        W 6101   4.971   6.253   9.612 -0.2799 -0.4171 -0.1101
 2882W        W 6102   1.702   6.176   6.262  0.1055  0.1334  0.0063
 2883W        W 6103   3.588   5.929   9.599  0.1221 -0.0290  0.2195
 2884W        W 6104   5.902   9.164  17.170  0.0314  0.3780 -0.0502
 2885W        W 6105  14.928   8.734   1.263  0.1435 -0.2321  0.0106
 2886W        W 6106   5.839   0.225   6.335  0.0277 -0.0067 -0.1041
 2887W        W 6107  17.766   3.431  17.957  0.0004 -0.2609 -0.2047
 2888W        W 6108   8.185   7.508   9.848 -0.0985 -0.0133  0.0288
 2889W        W 6109   0.330   4.043   4.333  0.1425  0.0178  0.0864
 2890W        W 6110   7.329   6.597  10.785  0.0541 -0.4022 -0.0365
 2891W        W 6111   1.216   3.930   8.841  0.1931 -0.1314 -0.0792
 2892W        W 6112   6.699   4.945   9.526 -0.2487 -0.0864 -0.1080
 2893W        W 6113   3.249   4.021   6.871  0.0152  0.1221 -0.1555
 2894W        W 6114   7.544   4.061  16.683  0.0811 -0.1458 -0.1964
 2895W        W 6115   1.929   9.182  10.883 -0.2856  0.1831 -0.0441
 2896W        W 6116  12.717   6.500  15.612 -0.1962 -0.0921 -0.0707
 2897W        W 6117  18.089   4.783   6.210  0.1375  0.0019  0.1089
 2898W        W 6118  13.952   6.891  14.649  0.2973  0.0159  0.1890
 2899W        W 6119   2.619   3.548  14.490 -0.0268 -0.0017 -0.1679
 2900W        W 6120   9.454   9.246   6.512 -0.2480 -0.2688 -0.1258
 2901W        W 6121   0.347   5.227   9.232 -0.1217 -0.0115  0.0715
 2902W        W 6122  13.036   0.024   7.639  0.3485  0.0079  0.2230
 2903W        W 6123   2.606   5.645   0.510  0.1969  0.0865  0.0434
 2904W        W 6124  16.515   7.704   8.131  0.1956  0.3163 -0.0474
 2905W        W 6125   2.638  14.580   6.149 -0.0683  0.1145  0.1716
 2906W        W 6126   2.923   6.334   2.916 -0.0674 -0.2122 -0.2635
 2907W        W 6127   6.085   4.205  10.415  0.0522  0.0495 -0.1306
 2908W        W 6128   3.624  17.259   8.535  0.0278  0.0538 -0.1029
 2909W        W 6129  16.702   1.994   9.147 -0.1259 -0.1971  0.1225
 2910W        W 6130   6.830   9.480   8.005  0.0826  0.1892 -0.0792
 2911W        W 6131   0.885  10.993  11.368  0.2406 -0.0100  0.1567
 2912W        W 6132   6.746  10.280   7.785  0.0982 -0.0798 -0.1677
 2913W        W 6133  16.786  17.572  10.093  0.0328 -0.1872 -0.0031
 2914W        W 6134   2.599   7.053   5.337  0.0008  0.1538  0.0172
 2915W        W 6135   3.337   8.166   9.126  0.1209 -0.2328 -0.2119
 2916W        W 6136   7.553   5.070   8.133  0.0371  0.2578  0.1175
 2917W        W 6137   4.938   6.647  12.735 -0.2572 -0.0412 -0.2442
 2918W        W 6138   1.626   9.476   0.185 -0.2967  0.4270  0.0507
 2919W        W 6139  14.644  12.078   7.446 -0.2027 -0.0728 -0.1822
 2920W        W 6140  14.558   6.600  15.855 -0.1503  0.4827 -0.2270
 2921W        W 6141   5.054   3.771   9.152 -0.0468  0.2034 -0.4720
 2922W        W 6142  17.130   8.513   4.563  0.4187 -0.0136  0.1337
 2923W        W 6143   0.720  10.081  15.017  0.1424  0.1585 -0.1837
 2924W        W 6144  13.733   2.797  13.706 -0.2731 -0.1385  0.0579
 2925W        W 6145  17.870  11.623   6.436  0.3309  0.0169  0.0073
 2926W        W 6146   8.708   5.012  17.241  0.0445 -0.1860 -0.2326
 2927W        W 6147  16.579   2.011   7.601 -0.3794 -0.1558 -0.0119
 2928W        W 6148   1.479   5.391  10.384  0.2778  0.1802  0.0035
 2929W        W 6149   4.293   7.594   9.431  0.1115  0.1060  0.0582
 2930W        W 6150  10.494   4.363   7.402  0.1861 -0.0476  0.2164
 2931W        W 6151   2.518  15.525   9.117 -0.5284 -0.2244  0.2333
 2932W        W 6152   3.917   5.232   3.915 -0.2715  0.1207 -0.0587
 2933W        W 6153  17.504   3.837  10.034  0.1854 -0.0842  0.0865
 2934W        W 6154  14.877   4.203   2.761  0.1636 -0.1988 -0.2083
 2935W        W 6155   1.516   9.691   8.128  0.0245 -0.2240 -0.2328
 2936W        W 6156   1.531   2.180  12.908  0.1526  0.1039 -0.0857
 2937W        W 6157   7.732   6.086   4.583  0.1147  0.0060  0.2446
 2938W        W 6158  10.843   3.391   7.499  0.1358 -0.2130 -0.0443
 2939W        W 6159   4.937   1.990   6.282 -0.0255 -0.2061  0.0760
 2940W        W 6160   5.202   2.038   7.113 -0.1564  0.3304 -0.0271
 2941W        W 6161  16.930  12.399   6.961  0.0304  0.0044 -0.3124
 2942W        W 6162   5.180   2.179   3.838  0.0444  0.1112  0.1232
 2943W        W 6163   8.106   6.236   3.646  0.1415  0.1335  0.0233
 2944W        W 6164   5.875  15.154  10.780 -0.0464  0.0563 -0.2511
 2945W        W 6165   3.547   4.947   3.058 -0.0931 -0.2443  0.1769
 2946W        W 6166   7.795   0.911  16.257  0.3493  0.2179 -0.0394
 2947W        W 6167   4.477   5.266   7.986  0.0503  0.2264 -0.0048
 2948W        W 6168  16.625   2.833  12.682 -0.0598 -0.0825  0.1466
 2949W        W 6169   3.632   3.298   8.834 -0.1889  0.1506  0.0391
 2950W        W 6170   3.081   8.891   9.643 -0.4167 -0.0935 -0.0394
 2951W        W 6171  13.041  17.813  14.053 -0.1270 -0.0875  0.2630
 2952W        W 6172   9.019   4.756  10.116 -0.1980  0.2453  0.0355
 2953W        W 6173   3.357  17.773   7.232  0.0679 -0.2246 -0.0339
 2954W        W 6174   2.024  13.248  11.056  0.1160 -0.1217 -0.1359
 2955W        W 6175   2.887   4.341   9.815 -0.1010 -0.1098 -0.1252
 2956W        W 6176  17.751   3.643  14.171  0.0910  0.3625  0.0991
 2957W        W 6177   1.159   5.265  17.997 -0.2760 -0.1809  0.0550
 2958W        W 6178   6.031  17.427   9.693  0.2463 -0.0040 -0.4243
 2959W        W 6179   1.831   3.604   6.004  0.0222  0.1025  0.1318
 2960W        W 6180   5.772   1.533   5.548  0.3465 -0.2022 -0.3874
 2961W        W 6181   3.407   8.681   9.047 -0.1237 -0.2927  0.2553
 2962W        W 6182   3.862   1.344   8.904 -0.1195 -0.1111 -0.1968
 2963W        W 6183   0.237   6.627  12.562 -0.1220  0.0047 -0.0842
 2964W        W 6184  16.764  11.261   8.911 -0.1709 -0.2254 -0.0756
 2965W        W 6185   9.316   7.873   9.814 -0.1947  0.2531  0.3302
 2966W        W 6186   5.446  12.143   5.352  0.0983  0.1445  0.0591
 2967W        W 6187  16.136   5.643   4.974  0.0205 -0.2128  0.3885
 2968W        W 6188   3.996  11.089  11.399 -0.2165  0.3511 -0.1244
 2969W        W 6189  12.610   5.494   8.713 -0.0354 -0.1403  0.0165
 2970W        W 6190  17.798   0.638   9.364 -0.0865  0.0860 -0.2641
 2971W        W 6191  17.632   4.558   6.479 -0.1347  0.1404 -0.1966
 2972W        W 6192   4.788   9.664   5.528  0.0648 -0.1588  0.0367
 2973W        W 6193  17.454  16.206   9.655 -0.1395 -0.2280  0.0500
 2974W        W 6194   0.229  10.265  10.032  0.0682  0.1945  0.1540
 2975W        W 6195   1.256  16.813   4.502 -0.0094  0.2083  0.1970
 2976W        W 6196   1.898   3.994   0.662 -0.0494 -0.1425  0.1253
 2977W        W 6197   6.722   4.282   6.658  0.0466 -0.1888  0.0685
 2978W        W 6198   8.220   9.791  15.624 -0.0205  0.0074 -0.0553
 2979W        W 6199   4.887   2.806  14.349  0.2965  0.0767  0.0091
 2980W        W 6200  18.219   0.656   3.228 -0.2232  0.2226  0.0174
 2981W        W 6201   2.353   8.584  16.147 -0.1244 -0.0523  0.4784
 2982W        W 6202   4.466  17.529   6.687  0.0737  0.1232  0.2993
 2983W        W 6203   3.659   0.540   6.494  0.0506 -0.1370 -0.2780
 2984W        W 6204  15.495   6.316  12.688  0.1334 -0.0726 -0.0423
 2985W        W 6205  14.395   4.806  15.680  0.1681 -0.0006 -0.3423
 2986W        W 6206   6.278   6.142  11.187  0.0232 -0.0725  0.1483
 2987W        W 6207  16.686  13.417   5.686  0.3206 -0.1101  0.1012
 2988W        W 6208  11.081   6.450  10.713  0.2844 -0.1134  0.1390
 2989W        W 6209  12.684   4.388   9.899 -0.0978  0.0603  0.1905
 2990W        W 6210   4.605  12.880   9.807 -0.0970 -0.0882 -0.1570
 2991W        W 6211   0.263   6.485  13.073  0.0478  0.1084  0.2528
 2992W        W 6212   9.664  12.061   6.081  0.2112  0.1044  0.0973
 2993W        W 6213   2.873   8.258  11.379  0.1926 -0.1450  0.1594
 2994W        W 6214  13.893   0.831   8.482  0.1043  0.0521  0.0921
 2995W        W 6215   7.868   6.907  15.945  0.1056  0.0964  0.3334
 2996W        W 6216   0.388   8.846   8.704 -0.0467 -0.1992  0.1120
 2997W        W 6217  16.593   3.898  10.947 -0.0704  0.0814  0.0442
 2998W        W 6218   7.042  11.077   0.278  0.1569  0.3581 -0.1400
 2999W        W 6219  16.173  10.833  14.304  0.3950  0.0329 -0.2051
 3000W        W 6220   2.956  17.082  13.390 -0.3257 -0.0751  0.0361
 3001W        W 6221   4.539   4.769   8.037 -0.0549  0.0428 -0.1157
 3002W        W 6222   4.534   4.543  16.724 -0.2252  0.0987  0.0022
 3003W        W 6223   8.549   7.586  10.193 -0.0505 -0.1568  0.1365
 3004W        W 6224   3.045   3.995   8.754  0.0097 -0.1320  0.0767
 3005W        W 6225   4.452   2.466   6.843  0.1906 -0.2978 -0.3728
 3006W        W 6226  15.393   8.805   4.961 -0.0154 -0.0696  0.0544
 3007W        W 6227   2.542   6.499   5.498 -0.0941  0.0577 -0.0208
 3008W        W 6228   3.519   9.981   5.557  0.2702  0.0927 -0.2767
 3009W        W 6229   9.607   8.830   7.855 -0.2034  0.1021 -0.0734
 3010W        W 6230  16.946   2.866  11.673 -0.0197 -0.2737 -0.0699
 3011W        W 6231   1.592  18.141   9.578 -0.4071  0.2530  0.0653
 3012W        W 6232   1.635   1.491   6.771  0.1966  0.0624  0.0841
 3013W        W 6233   6.077  12.923   7.623 -0.2761 -0.0369 -0.0503
 3014W        W 6234  15.413   2.174  12.769  0.0281  0.3124 -0.0791
 3015W        W 6235  17.359  14.993   7.172  0.0235  0.0798 -0.2561
 3016W        W 6236   5.165  11.412   6.620  0.1495  0.1113  0.1006
 3017W        W 6237   2.375  10.699  14.480  0.1027 -0.0651 -0.0657
 3018W        W 6238   1.132  17.464  12.112  0.0687 -0.0370  0.0041
 3019W        W 6239   8.305   1.601  11.078  0.1292  0.0563  0.2851
 3020W        W 6240  12.129  14.165   6.070  0.0149 -0.3172 -0.0213
 3021W        W 6241   3.470   2.031   6.421  0.2064 -0.0287 -0.0901
 3022W        W 6242   5.673   9.963   8.284 -0.0025 -0.2859 -0.0362
 3023W        W 6243   5.135   1.764   2.896  0.0749 -0.1110 -0.2841
 3024W        W 6244   3.819  18.270   6.453 -0.3654  0.5200 -0.0061
 3025W        W 6245  18.206   2.308   7.150  0.1391 -0.0180  0.3299
 3026W        W 6246   3.106   6.739   7.297 -0.0784 -0.1794  0.1275
 3027W        W 6247   5.929   3.964   6.989 -0.0109 -0.1219 -0.0011
 3028W        W 6248  13.892   1.752   6.572 -0.2750  0.0282 -0.1176
 3029W        W 6249  15.005  15.219  12.316  0.0810 -0.1122  0.0137
 3030W        W 6250   1.830   5.659  13.235  0.0051 -0.1100  0.1179
 3031W        W 6251   4.613   6.782   6.335  0.1006  0.2593 -0.2153
 3032W        W 6252  14.373  11.892   3.779  0.3740  0.0118  0.1028
 3033W        W 6253   5.270  12.948   7.777 -0.0207 -0.2921 -0.0985
 3034W        W 6254  15.089   8.557  11.719  0.0972 -0.0923 -0.0453
 3035W        W 6255   8.993  14.107  14.982 -0.0539 -0.2979 -0.1065
 3036W        W 6256  17.957   4.113  10.525 -0.1314  0.1058 -0.1532
 3037W        W 6257  17.566   2.016  13.581  0.0312 -0.1731 -0.4212
 3038W        W 6258  17.988  16.346   5.517 -0.0752 -0.3230 -0.4653
 3039W        W 6259   3.276  10.364   0.400  0.1229  0.3477 -0.2233
 3040W        W 6260   9.228   8.189   4.132  0.0773 -0.1686 -0.0398
 3041W        W 6261   9.019   8.393  11.244  0.1208 -0.0847  0.3361
 3042W        W 6262   2.827   5.016   7.851 -0.0188 -0.1284 -0.1352
 3043W        W 6263   7.216   2.621   1.087 -0.1246 -0.0344 -0.2595
 3044W        W 6264  16.061   7.606   5.564  0.2543 -0.1084  0.2971
 3045W        W 6265  18.067   8.507  11.782 -0.0710 -0.0026  0.1769
 3046W        W 6266   8.728   7.618  13.757  0.1177 -0.2864  0.0126
 3047W        W 6267   3.191   7.518  14.907 -0.1736  0.1488  0.0683
 3048W        W 6268   2.709  11.100   5.963 -0.3456  0.2104  0.2568
 3049W        W 6269  14.765   5.370   5.175  0.1653 -0.1866  0.0346
 3050W        W 6270  17.740   0.862   9.873  0.1263  0.2187 -0.0623
 3051W        W 6271   6.705   3.994   8.808  0.1081  0.1580 -0.0508
 3052W        W 6272  15.147   5.486  17.691  0.1361  0.0212 -0.1693
 3053W        W 6273  15.376  17.908   5.009 -0.0372  0.2054 -0.1376
 3054W        W 6274  14.030  16.403  12.476 -0.1916  0.0372  0.4532
 3055W        W 6275   7.789   7.552   7.851  0.0598 -0.3036  0.0858
 3056W        W 6276   7.835   8.500  11.302 -0.0802  0.1090  0.1965
 3057W        W 6277   0.061  14.816   8.718 -0.0516  0.3684 -0.2470
 3058W        W 6278   0.258  12.840  16.986 -0.0485 -0.3075  0.1963
 3059W        W 6279   9.459   7.840   8.661  0.3261 -0.0085 -0.3803
 3060W        W 6280   1.327   3.575  14.382 -0.1491  0.1527  0.2329
 3061W        W 6281  15.689  11.871  14.468  0.0903 -0.1396 -0.0722
 3062W        W 6282  16.002   4.728  11.324  0.1255  0.2294  0.1021
 3063W        W 6283   9.466  10.719   5.188  0.0425 -0.0154  0.0428
 3064W        W 6284   0.184   7.015   7.099  0.2042  0.3968 -0.0341
 3065W        W 6285   0.442   0.858  12.045  0.1542 -0.1008 -0.2805
 3066W        W 6286  15.113  18.151  12.173  0.0490  0.1198 -0.0187
 3067W        W 6287   4.568   9.757  10.179 -0.0909  0.0450 -0.3370
 3068W        W 6288  12.977   7.426   4.195 -0.0123  0.0891  0.0158
 3069W        W 6289  17.393   0.594   5.504  0.3412 -0.2993 -0.0878
 3070W        W 6290  17.862   1.378  10.814 -0.1662  0.0530 -0.3504
 3071W        W 6291   2.719  12.732  15.968  0.2894  0.0547  0.0253
 3072W        W 6292   0.818   4.298   5.340 -0.1974  0.1133  0.1371
 3073W        W 6293   2.144   8.029   7.199 -0.0619 -0.1376 -0.2020
 3074W        W 6294   1.668   8.515   3.625  0.1198 -0.0913 -0.1702
 3075W        W 6295   7.504   6.022  13.573  0.1324 -0.1387  0.2578
 3076W        W 6296   8.896   3.850  10.275 -0.3683 -0.2573  0.0727
 3077W        W 6297   3.688   6.070   2.672 -0.0291  0.2740  0.2558
 3078W        W 6298  15.343   5.265   3.037 -0.2632 -0.0242  0.1486
 3079W        W 6299   0.065   5.661   9.593  0.0234 -0.0164 -0.3969
 3080W        W 6300   0.659   6.005   6.802 -0.2071 -0.1691  0.0989
 3081W        W 6301   6.325   8.417  10.596 -0.4218 -0.3330 -0.0782
 3082W        W 6302   3.102   5.362   9.061  0.0443 -0.0244 -0.1555
 3083W        W 6303   9.428  10.827   2.313  0.0534 -0.2784 -0.1307
 3084W        W 6304   3.118   2.892   7.693 -0.1677 -0.0077 -0.1334
 3085W        W 6305  17.630   8.761  12.129  0.2240  0.0227  0.1255
 3086W        W 6306   1.713  14.900   8.160  0.0544  0.0124 -0.0173
 3087W        W 6307   3.150   0.655   7.983  0.1507 -0.1490  0.0645
 3088W        W 6308  18.171   5.561   7.711  0.2467 -0.0898  0.3933
 3089W        W 6309  18.266  13.048  14.418 -0.0212  0.2466 -0.1371
 3090W        W 6310   4.909   7.813   4.338  0.2635  0.2088 -0.2930
 3091W        W 6311   4.737   5.887   4.405 -0.1570  0.1369  0.0335
 3092W        W 6312  18.035   3.618   9.145 -0.0852  0.1250 -0.0451
 3093W        W 6313  11.750   6.962   6.010 -0.0436 -0.0019 -0.2074
 3094W        W 6314   5.671   2.508   0.004 -0.0085  0.2009  0.1800
 3095W        W 6315   1.079   9.922   4.688  0.0096  0.0343 -0.0353
 3096W        W 6316   7.911  17.773  13.003 -0.0146 -0.0858 -0.1803
 3097W        W 6317   2.310   6.829  13.447  0.0245  0.0379  0.2112
 3098W        W 6318  14.900   5.225  14.863 -0.0815  0.0874  0.0621
 3099W        W 6319  16.372   4.763  10.255  0.3822  0.2718  0.2533
 3100W        W 6320   7.531   0.232   1.510  0.2353  0.0948 -0.0284
 3101W        W 6321  14.467   3.431  13.830 -0.1602 -0.2056 -0.0061
 3102W        W 6322   0.692   3.323  12.755  0.0955  0.0172 -0.2291
 3103W        W 6323   2.379   5.724   9.422 -0.0862 -0.0326  0.1854
 3104W        W 6324   4.726   0.899   5.988  0.1788  0.0305  0.0703
 3105W        W 6325   3.664  13.825  10.055 -0.2497 -0.1242  0.1367
 3106W        W 6326  15.364  17.222   9.544 -0.2301  0.1103  0.0617
 3107W        W 6327   5.972  10.033  10.451 -0.0236  0.0434  0.3940
 3108W        W 6328   5.176  17.362  10.212 -0.0244  0.0701  0.3265
 3109W        W 6329  17.121   4.391  10.295  0.0657 -0.1795 -0.1734
 3110W        W 6330   7.084   5.534  16.509  0.3188  0.0962 -0.2742
 3111W        W 6331   4.428   5.465  10.681 -0.1094  0.0480 -0.1329
 3112W        W 6332  16.158   4.024  10.142 -0.0029  0.1492 -0.0778
 3113W        W 6333  18.016  10.179   5.810  0.1888 -0.0627 -0.1292
 3114W        W 6334   1.701   2.273   2.341 -0.1040 -0.0377  0.0163
 3115W        W 6335  16.313   5.355   6.024  0.0214  0.0627 -0.0042
 3116W        W 6336   8.089   7.096   7.836  0.1937  0.2239  0.1133
 3117W        W 6337   4.954   0.665   7.045  0.1200 -0.2488 -0.2362
 3118W        W 6338   2.124   0.668  16.622  0.0299  0.3745  0.1988
 3119W        W 6339   4.453   5.755   7.971 -0.2033  0.2458 -0.1222
 3120W        W 6340   2.325  12.141  11.346 -0.2028 -0.2371  0.2087
 3121W        W 6341  15.927   0.680  11.966  0.0976 -0.2150  0.0689
 3122W        W 6342  13.557   5.861   9.584 -0.1197  0.3917  0.1350
 3123W        W 6343   0.063   6.195   8.420  0.1500 -0.2076 -0.1793
 3124W        W 6344  18.121   0.435   7.454 -0.2860 -0.0247  0.1349
 3125W        W 6345   4.520   5.140   5.479 -0.1020 -0.0013  0.0393
 3126W        W 6346   0.904   8.814   4.070  0.0057  0.1536  0.1730
 3127W        W 6347   4.543   6.308   8.630  0.0523 -0.0909 -0.2022
 3128W        W 6348   1.314   7.344  10.675 -0.0292  0.2802  0.1787
 3129W        W 6349   0.931   6.870   4.738  0.1644 -0.2467  0.1352
 3130W        W 6350   0.048   3.243  10.058 -0.0401  0.2096  0.0305
 3131W        W 6351  13.147   6.040   8.239  0.0686 -0.0313 -0.1436
 3132W        W 6352   0.340   9.462   2.290  0.2053  0.1227  0.2421
 3133W        W 6353   0.421  17.623   5.510 -0.0590  0.0781 -0.0820
 3134W        W 6354   2.099   5.692   7.647  0.4339  0.0070 -0.1136
 3135W        W 6355  16.105  11.771  16.846 -0.1495  0.1933 -0.0297
 3136W        W 6356  13.765  17.800   8.859 -0.2052 -0.0005  0.0443
 3137W        W 6357  16.838   4.727   8.954  0.1012 -0.1557 -0.1753
 3138W        W 6358   7.384   2.355  11.569 -0.0428 -0.1015 -0.4788
 3139W        W 6359   8.025  15.499   4.915  0.1930 -0.4187  0.1404
 3140W        W 6360   9.976   5.296   5.227 -0.2036  0.0187  0.1319
 3141W        W 6361   1.479  10.310   9.753 -0.4702 -0.1329  0.1412
 3142W        W 6362   6.979   3.354   5.828  0.0037  0.0215 -0.2329
 3143W        W 6363  15.787   3.554   8.411 -0.0647  0.0862  0.2091
 3144W        W 6364   7.700   7.712  12.288  0.1683  0.3145  0.0675
 3145W        W 6365   3.856  13.415   6.952  0.1137 -0.2787  0.1950
 3146W        W 6366   9.313  10.296   8.923 -0.3959  0.2576  0.1064
 3147W        W 6367   8.259   2.534   9.257 -0.1288  0.2591 -0.0577
 3148W        W 6368   2.202  11.889   9.166 -0.0284  0.3028 -0.0053
 3149W        W 6369   2.206   3.942   9.775 -0.0670  0.0939  0.1110
 3150W        W 6370  13.862   9.705   6.812  0.1515 -0.0989  0.1738
 3151W        W 6371   6.678  16.743  11.124  0.2730  0.2250 -0.1169
 3152W        W 6372   8.516  16.600  10.346 -0.3035 -0.2369  0.1130
 3153W        W 6373  10.706   5.693   2.093 -0.4814  0.1629  0.1652
 3154W        W 6374   3.005  12.490   7.746  0.0133 -0.0489  0.0271
 3155W        W 6375  14.100  16.680  14.542 -0.1971 -0.1455  0.0202
 3156W        W 6376  17.642  11.921  12.841  0.1721 -0.4617 -0.2047
 3157W        W 6377   2.730  10.158  12.260 -0.3185  0.0692  0.0152
 3158W        W 6378   7.343   3.740  12.864  0.0540  0.3798 -0.0965
 3159W        W 6379  16.209  10.617   8.414 -0.0974  0.2590 -0.0485
 3160W        W 6380   4.981   7.062  10.447  0.3346 -0.4177  0.2461
 3161W        W 6381   2.166  10.670  10.222  0.0048 -0.1583 -0.1437
 3162W        W 6382   1.138   1.292  11.192 -0.0310  0.0087 -0.2638
 3163W        W 6383   8.912   1.479  10.647  0.1648 -0.1182  0.1624
 3164W        W 6384  10.022   9.155  14.408  0.1952 -0.0511  0.2138
 3165W        W 6385   9.415   4.811   8.782 -0.1433 -0.0407  0.1080
 3166W        W 6386  14.977  15.589  13.663 -0.0989  0.1104  0.2591
 3167W        W 6387   8.394   6.731   4.871  0.3537  0.1477  0.1665
 3168W        W 6388   4.814   4.331  12.662  0.0391  0.5442 -0.0108
 3169W        W 6389   1.044  15.207   2.999 -0.0038 -0.1705 -0.2328
 3170W        W 6390  16.963   4.895   6.378 -0.3635 -0.1538  0.1602
 3171W        W 6391   0.639   5.129  10.631  0.1716  0.0988 -0.2698
 3172W        W 6392  14.177  18.018   5.848  0.3732  0.2669 -0.2429
 3173W        W 6393   3.393   8.214   8.629 -0.1685 -0.0841 -0.1868
 3174W        W 6394  13.628   9.821   3.001 -0.1792  0.0495 -0.1564
 3175W        W 6395   2.365   8.032  10.298  0.1744 -0.0427  0.0318
 3176W        W 6396   1.942  12.182   3.626  0.1037  0.0672  0.2888
 3177W        W 6397   7.048   9.816   4.711 -0.3002 -0.3138 -0.1053
 3178W        W 6398   3.565   3.512   9.680  0.3850  0.1190  0.1726
 3179W        W 6399  16.810  16.633   8.507 -0.1122 -0.1507 -0.3604
 3180W        W 6400   5.348   7.065   9.425  0.0141 -0.1359 -0.2211
 3181W        W 6401   2.897  11.595   5.791 -0.0462 -0.0788  0.1658
 3182W        W 6402  10.159   4.467   4.440  0.2410  0.2382  0.3215
 3183W        W 6403  15.113   6.800   7.582  0.0084  0.0750  0.0433
 3184W        W 6404  11.151   0.738   7.451  0.3103  0.2152 -0.0347
 3185W        W 6405   2.280   8.271  13.587  0.0747  0.2497 -0.1221
 3186W        W 6406   0.665   2.920   8.275 -0.1274 -0.0703  0.0825
 3187W        W 6407  15.991   2.517   8.153 -0.0697  0.0204 -0.2757
 3188W        W 6408  17.557   5.470  13.878 -0.0111 -0.3248 -0.0582
 3189W        W 6409  15.670   1.378   7.899 -0.0425  0.4366 -0.3830
 3190W        W 6410   1.925  11.087   9.844 -0.0787  0.5908  0.2580
 3191W        W 6411   2.270  10.150  10.603 -0.1124 -0.0080  0.0511
 3192W        W 6412   4.257   7.403  11.506  0.2872 -0.1950  0.1795
 3193W        W 6413   8.249   0.137   4.639 -0.1324  0.2777  0.1428
 3194W        W 6414   7.750   9.719  11.998  0.2598  0.1572  0.1667
 3195W        W 6415   8.007  17.030   6.550 -0.1669 -0.1789  0.1223
 3196W        W 6416   5.400  15.279  10.479  0.0243 -0.3009  0.2098
 3197W        W 6417   4.269   9.048   9.440 -0.1975 -0.0403  0.0531
 3198W        W 6418   0.864  17.177   7.466  0.0782 -0.0566  0.1188
 3199W        W 6419   0.516  15.082   8.679  0.1707  0.0287  0.3297
 3200W        W 6420  16.327   5.012  14.707 -0.1670  0.1343 -0.0505
 3201W        W 6421  17.473   7.112   3.163  0.0467  0.1979 -0.0353
 3202W        W 6422   2.797   1.197  11.444  0.2526  0.2028 -0.3850
 3203W        W 6423   9.277   3.037   1.574 -0.0630 -0.0508  0.0561
 3204W        W 6424  16.927   7.762  14.081  0.0020  0.0748 -0.0935
 3205W        W 6425   6.158   8.395  15.329 -0.2637 -0.2423  0.0599
 3206W        W 6426   8.220  14.627   1.111  0.1575  0.2569  0.4433
 3207W        W 6427  14.679   5.555  16.792  0.2769 -0.0039  0.0301
 3208W        W 6428   9.612   4.016   8.900 -0.3350 -0.1833 -0.0630
 3209W        W 6429   3.918   4.274   4.719 -0.0389 -0.2456 -0.0515
 3210W        W 6430   3.930   7.066   2.414  0.0002 -0.0988  0.0935
 3211W        W 6431  11.569   1.626   3.756 -0.0795  0.0233 -0.0616
 3212W        W 6432   3.059   5.477   6.153 -0.2037 -0.0546  0.1849
 3213W        W 6433  16.366  11.547   8.861 -0.0577  0.1263  0.2328
 3214W        W 6434   7.906   3.336  17.009 -0.0482 -0.0724  0.1523
 3215W        W 6435   8.067  10.928   7.363 -0.2141 -0.0882  0.3091
 3216W        W 6436   7.682   6.726  11.528  0.1130  0.2330 -0.3461
 3217W        W 6437   6.014   4.334   3.956  0.1352  0.1736  0.0556
 3218W        W 6438  16.976  17.011   2.745  0.0939 -0.2033  0.0089
 3219W        W 6439   2.494   4.230   3.237 -0.1232 -0.0141  0.2070
 3220W        W 6440   2.902  17.017   8.809 -0.0348  0.3840 -0.0647
 3221W        W 6441  13.112   9.199   6.291 -0.1488 -0.1207  0.5352
 3222W        W 6442   8.097  12.606  10.818 -0.0791 -0.1423 -0.1266
 3223W        W 6443   2.689   3.816  10.858 -0.0569  0.2789  0.0571
 3224W        W 6444  18.157   4.310   7.098 -0.0313 -0.0604 -0.0717
 3225W        W 6445   7.599   5.713  16.280  0.1364  0.0904  0.0562
 3226W        W 6446   5.308   4.080  14.927 -0.0966 -0.0060  0.2080
 3227W        W 6447  16.144  17.966  12.255 -0.0865  0.0131 -0.1599
 3228W        W 6448   9.388  16.412  10.937 -0.0451  0.2498 -0.1974
 3229W        W 6449   1.754   4.565  10.193 -0.0086  0.0275 -0.1011
 3230W        W 6450  17.681  16.755  17.200  0.1486  0.3067  0.0535
 3231W        W 6451   1.202   8.540  16.910  0.0951 -0.2296  0.1063
 3232W        W 6452   0.133   4.574  16.571  0.3803 -0.0321  0.2964
 3233W        W 6453  17.754   3.194  13.930  0.0056  0.0383 -0.1629
 3234W        W 6454   2.976  13.870  14.915  0.0196  0.1349  0.0713
 3235W        W 6455   4.164   9.442  10.229  0.0505  0.1597  0.0710
 3236W        W 6456   6.815   0.255   0.673  0.0133  0.2724  0.0443
 3237W        W 6457  13.347   8.308  18.027  0.1510 -0.2498  0.0403
 3238W        W 6458  15.882   1.904  10.390 -0.0819  0.0279  0.1662
 3239W        W 6459  17.132   9.629  12.352  0.1000  0.1240  0.1828
 3240W        W 6460  12.293   8.906  10.159  0.0251  0.0826 -0.1540
 3241W        W 6461   3.856   8.275  11.660 -0.1639  0.0497  0.1016
 3242W        W 6462   6.786  12.376   9.239 -0.0344 -0.2340  0.0836
 3243W        W 6463   2.152   6.504  10.130 -0.0311  0.4682  0.1780
 3244W        W 6464   1.751   9.170   9.527  0.1552 -0.0003 -0.0546
 3245W        W 6465   5.467  16.551  12.564  0.0397 -0.0792  0.1131
 3246W        W 6466   4.006   9.592  12.656  0.0439  0.1150 -0.0989
 3247W        W 6467   0.929  10.267   3.553  0.0987  0.2110  0.0129
 3248W        W 6468  17.079   8.491  13.112  0.0804  0.1618  0.2487
 3249W        W 6469  18.123   9.688   8.508 -0.1652 -0.2330  0.1522
 3250W        W 6470  13.753   7.883   0.742 -0.0592 -0.1462 -0.1982
 3251W        W 6471   9.954   3.317  14.330  0.2003  0.0262  0.0823
 3252W        W 6472   2.481  17.121   3.123  0.0477 -0.1285 -0.0573
 3253W        W 6473  18.163   8.884  12.045  0.1730 -0.0689  0.0415
 3254W        W 6474   1.410  17.906  12.355 -0.0099 -0.0318 -0.1759
 3255W        W 6475   3.852   2.747   5.907 -0.2910 -0.0781  0.1456
 3256W        W 6476   1.278  10.902  10.992  0.0954 -0.4144 -0.2533
 3257W        W 6477   7.995   5.551  11.097  0.0824  0.0392  0.1343
 3258W        W 6478   0.302   7.270   8.513 -0.0027  0.1064  0.0045
 3259W        W 6479   3.001   1.483  14.508 -0.0632  0.1692  0.0931
 3260W        W 6480   5.815   9.340   7.650 -0.0927  0.1654 -0.3250
 3261W        W 6481  15.133   7.449   0.031  0.1255 -0.2486 -0.1282
 3262W        W 6482   3.714   1.249   1.041 -0.0604  0.0258  0.1339
 3263W        W 6483   8.990   9.257  11.538 -0.1310  0.2534  0.1475
 3264W        W 6484  16.519  14.281  12.661  0.1238  0.1237  0.1384
 3265W        W 6485  14.755  13.909  13.459 -0.2262  0.0608 -0.2086
 3266W        W 6486  15.870   4.736  13.316  0.1433 -0.3448  0.1208
 3267W        W 6487   4.157   7.982  13.182 -0.3796 -0.0855 -0.0613
 3268W        W 6488   1.440   7.223  10.090 -0.1200  0.1314 -0.1335
 3269W        W 6489   3.432  14.078  10.407  0.0927  0.5008 -0.3189
 3270W        W 6490   1.114   9.496  15.956 -0.0720 -0.1402 -0.1693
 3271W        W 6491   5.041  13.257  10.731  0.1528  0.1394  0.0547
 3272W        W 6492   1.319   2.228   8.196  0.0927 -0.2097  0.0242
 3273W        W 6493  15.891   1.907  12.743 -0.0359 -0.0900 -0.2025
 3274W        W 6494  17.854   8.037  14.592  0.0653  0.1508 -0.1170
 3275W        W 6495   0.694   4.710  16.435  0.0084 -0.0131 -0.0458
 3276W        W 6496   8.160   5.006   9.896 -0.1799  0.2340  0.0546
 3277W        W 6497   2.137  11.463  10.085 -0.0416 -0.0321  0.1319
 3278W        W 6498  13.801  10.557  15.176  0.2042 -0.0088 -0.4076
 3279W        W 6499   2.456   2.614  12.337  0.5774 -0.2167 -0.1644
 3280W        W 6500   6.666   7.894   7.978 -0.1826  0.3126  0.1543
 3281W        W 6501   2.952  14.576   3.159  0.0235  0.0709  0.1359
 3282W        W 6502   0.111   6.655  15.106 -0.1770 -0.3833 -0.0602
 3283W        W 6503  15.593  11.123   9.327  0.3349  0.0743 -0.1945
 3284W        W 6504   3.038   9.136   8.694 -0.1178 -0.2353 -0.1179
 3285W        W 6505   1.337   6.066  10.754  0.0764 -0.1028  0.1437
 3286W        W 6506   7.857  17.592   7.079 -0.1542 -0.1930  0.1656
 3287W        W 6507   3.995   0.601  11.770 -0.0365  0.2071 -0.1028
 3288W        W 6508   1.132   7.647  17.238 -0.2560  0.0256 -0.0713
 3289W        W 6509  18.257  14.507   6.141 -0.0530  0.1968  0.0777
 3290W        W 6510   6.882  10.549   0.368 -0.0707  0.1063 -0.0029
 3291W        W 6511   2.323  10.577   9.211 -0.1778 -0.3435 -0.0638
 3292W        W 6512   1.745   3.153  14.904 -0.0701 -0.0902 -0.2712
 3293W        W 6513   0.197   0.556  13.202 -0.1122  0.0444 -0.0590
 3294W        W 6514  17.436   6.414  14.393  0.0666  0.2927 -0.2891
 3295W        W 6515  16.466   5.946   3.075 -0.2749  0.1925 -0.0984
 3296W        W 6516   1.580   1.499  17.552  0.2272 -0.0177  0.0843
 3297W        W 6517  10.657   6.216   4.159  0.0866 -0.0629 -0.2569
 3298W        W 6518   1.670   3.034  11.293 -0.2053 -0.1107  0.3595
 3299W        W 6519  17.401   7.985  14.212 -0.2020  0.0706 -0.1214
 3300W        W 6520   3.087  17.346   9.338 -0.2686  0.0384 -0.1748
 3301W        W 6521   8.056   5.949   9.987  0.0327  0.2398  0.0733
 3302W        W 6522   5.697   6.929  13.776  0.1431  0.0526  0.0753
 3303W        W 6523  17.590   6.080  14.875  0.1977  0.0177 -0.1689
 3304W        W 6524   2.948  14.303  14.729  0.0905 -0.3163  0.2262
 3305W        W 6525   6.154   0.103  13.446 -0.1931 -0.0805  0.0583
 3306W        W 6526   1.880   5.796   7.119  0.0646  0.1960 -0.0498
 3307W        W 6527   3.138  12.488   6.076 -0.0541 -0.1114  0.0139
 3308W        W 6528   7.500   6.999  13.366 -0.0171  0.2101 -0.0231
 3309W        W 6529  10.049   5.212  11.021  0.1113 -0.0032  0.0289
 3310W        W 6530   6.611   3.631  14.033 -0.1141  0.1249 -0.1252
 3311W        W 6531   7.832  14.810   9.895 -0.3497  0.4242 -0.1866
 3312W        W 6532  11.470  12.495  15.798  0.2274  0.2949  0.1126
 3313W        W 6533  17.037   6.889   7.920 -0.2604  0.0625  0.0565
 3314W        W 6534  17.398   0.278  12.359  0.2011 -0.1699 -0.1409
 3315W        W 6535   8.537  18.092  11.254 -0.1729  0.1325  0.1575
 3316W        W 6536  14.910  10.915  10.661  0.1267  0.2746 -0.4258
 3317W        W 6537   1.262   2.620  11.168 -0.0736 -0.1079  0.0558
 3318W        W 6538  17.711   6.566  12.885 -0.4033  0.0250  0.1805
 3319W        W 6539   4.494   8.905  13.473  0.3290  0.2020  0.0664
 3320W        W 6540   0.128   7.073  17.676  0.0107  0.2565 -0.1081
 3321W        W 6541  16.644   8.747  13.085  0.0288  0.0268  0.1319
 3322W        W 6542   4.327   4.630   9.449  0.4022  0.2162 -0.1127
 3323W        W 6543   8.440   3.379  11.025 -0.2290 -0.0620 -0.1378
 3324W        W 6544  16.877   0.550   7.194 -0.1372 -0.0416 -0.1881
 3325W        W 6545   1.694   6.659  11.450  0.1318  0.0994 -0.0861
 3326W        W 6546   5.627  10.075   7.383  0.1915  0.2673 -0.1114
 3327W        W 6547   5.441   7.689  11.894 -0.1160 -0.1980  0.1063
 3328W        W 6548  15.956   7.434  12.229 -0.0655  0.1818 -0.0904
 3329W        W 6549   6.050   6.858   7.106 -0.3854 -0.1327 -0.3145
 3330W        W 6550   6.851   6.683   7.664 -0.1040 -0.0703  0.0673
 3331W        W 6551   7.380  17.772  18.241 -0.0303 -0.1969  0.0972
 3332W        W 6552   1.276   1.065   9.203 -0.0384  0.1948  0.2976
 3333W        W 6553  14.802   0.503  13.052  0.1361  0.3162  0.2880
 3334W        W 6554   6.142   3.459   6.870  0.1570 -0.3684  0.2586
 3335W        W 6555   4.310   2.817  16.488 -0.0916 -0.1602  0.0952
 3336W        W 6556   8.165   6.500  11.281 -0.1073  0.0271  0.2016
 3337W        W 6557   1.390   7.630   7.682 -0.1204  0.2340 -0.0847
 3338W        W 6558   8.757   5.031   6.408 -0.2306 -0.0146 -0.0814
 3339W        W 6559   4.790   6.097  14.112  0.1001  0.1961  0.0950
 3340W        W 6560   2.985   4.323   9.309  0.0567 -0.0592  0.1783
 3341W        W 6561   3.701  14.770  11.648  0.0755 -0.0505  0.0185
 3342W        W 6562   4.199   2.425  15.505  0.1604 -0.0672  0.1973
 3343W        W 6563   3.918   7.417   5.264 -0.2460  0.2965  0.1738
 3344W        W 6564   0.815   7.199  10.869 -0.0595  0.3403  0.1852
 3345W        W 6565  15.361   3.174  13.751 -0.1228 -0.1005  0.1543
 3346W        W 6566  10.611   2.850  12.839 -0.2907 -0.0319 -0.0395
 3347W        W 6567  15.742   6.854  17.208 -0.1844  0.2442  0.0434
 3348W        W 6568  17.080  17.604  11.349  0.0209  0.1994  0.2339
 3349W        W 6569   3.002   3.235  15.176  0.0152 -0.1322 -0.0706
 3350W        W 6570  15.985  10.296  13.278 -0.1054 -0.0767  0.1467
 3351W        W 6571   0.945   7.832  14.840  0.4265 -0.1363  0.1842
 3352W        W 6572   6.048  12.370  18.064  0.1714  0.0586  0.1320
 3353W        W 6573   4.768   4.572   8.660  0.0987 -0.1530 -0.0510
 3354W        W 6574   8.618   7.598   8.577  0.0486 -0.0955  0.1942
 3355W        W 6575   7.551  17.554  11.858 -0.2519 -0.2466 -0.0257
 3356W        W 6576  15.156   7.948  14.110 -0.1939 -0.2172 -0.1475
 3357W        W 6577   1.639   4.484   6.755  0.3401 -0.0364 -0.3402
 3358W        W 6578   2.214   6.579  14.902 -0.0972 -0.0145 -0.1262
 3359W        W 6579   1.043  17.476   7.056  0.0530  0.2102 -0.1376
 3360W        W 6580   2.473   4.864  14.286 -0.2973  0.0609  0.0760
 3361W        W 6581  17.247   4.499  13.785 -0.0882  0.2630 -0.0845
 3362W        W 6582   1.630   9.446  12.472 -0.2800  0.0590 -0.1113
 3363W        W 6583   3.895   7.393   1.219 -0.3876 -0.0448  0.0833
 3364W        W 6584   4.310   6.705   4.540 -0.3143  0.2019 -0.1986
 3365W        W 6585   7.195   0.337  10.743  0.1147  0.0951 -0.1084
 3366W        W 6586   7.183   5.890  16.139 -0.3731 -0.1631  0.0228
 3367W        W 6587   3.550   5.338   1.912  0.2031  0.1600  0.0014
 3368W        W 6588   4.295   5.282  16.594  0.1627  0.0947  0.1120
 3369W        W 6589   2.826  13.949  13.636 -0.0601 -0.3121  0.1210
 3370W        W 6590   3.808   3.319  10.959 -0.1602  0.2789 -0.0800
 3371W        W 6591   1.061  15.549  11.467 -0.1927 -0.0489  0.1052
 3372W        W 6592   9.149   3.198   5.973 -0.1314 -0.1183 -0.0586
 3373W        W 6593   7.338   1.867  11.120 -0.2580  0.1587 -0.0248
 3374W        W 6594   6.949   9.850  15.768  0.1513 -0.0042 -0.0220
 3375W        W 6595   8.861  15.301  14.480 -0.0439 -0.3439 -0.0749
 3376W        W 6596  15.568   9.446  11.830 -0.2573 -0.1057  0.0957
 3377W        W 6597  12.676  17.216  12.430  0.2325 -0.0689  0.0425
 3378W        W 6598   0.148   1.630   6.567  0.0109 -0.1154 -0.1106
 3379W        W 6599   0.760   5.829   6.339  0.2711 -0.0872 -0.2438
 3380W        W 6600   3.712   7.738  11.310 -0.0190  0.1430  0.0986
 3381W        W 6601   1.064   3.952  10.731 -0.0384  0.0672  0.2016
 3382W        W 6602   3.465   5.073  10.493 -0.2075  0.1305 -0.0476
 3383W        W 6603   2.577  10.655  12.599 -0.0745  0.3008 -0.1738
 3384W        W 6604  10.670   1.767  16.106 -0.0644 -0.3342 -0.3665
 3385W        W 6605   0.488   2.102  14.186  0.2386 -0.1969 -0.1227
 3386W        W 6606  16.549   4.632  10.717 -0.0510  0.1317 -0.1361
 3387W        W 6607   2.544   2.933   7.978  0.1128 -0.0939 -0.2389
 3388W        W 6608   0.421   6.041   9.555  0.1493 -0.1541 -0.2089
 3389W        W 6609  17.070   1.434   8.088 -0.4591 -0.1172 -0.0909
 3390W        W 6610   2.587   7.258  16.255  0.1580 -0.2893 -0.2949
 3391W        W 6611  10.887  12.394  16.418 -0.0653 -0.0946 -0.1500
 3392W        W 6612   8.445   9.569   9.723 -0.0662  0.1131 -0.0578
 3393W        W 6613  15.036   8.258   9.894 -0.0146 -0.2750  0.1052
 3394W        W 6614  14.712   4.412  12.903  0.0689  0.1547  0.2818
 3395W        W 6615   4.069  13.067  14.451  0.0462  0.0779  0.3565
 3396W        W 6616  16.098   2.176   7.861 -0.1963 -0.2973 -0.0452
 3397W        W 6617   3.238   7.786  10.070  0.0186 -0.2177 -0.0130
 3398W        W 6618   3.372  10.580  11.673  0.1885  0.0337 -0.1779
 3399W        W 6619   2.783  14.936  10.931  0.3044 -0.0915 -0.1554
 3400W        W 6620   2.703  12.680  14.004 -0.0761 -0.1149 -0.0550
 3401W        W 6621   2.661   5.377  11.477  0.0204 -0.0377  0.0594
 3402W        W 6622  12.652   5.072  17.766  0.2168  0.0725  0.2531
 3403W        W 6623  11.444   5.378  15.581 -0.2914 -0.2746 -0.2069
 3404W        W 6624   2.173   6.906  11.045  0.0770  0.2035 -0.1417
 3405W        W 6625  18.083   5.769  17.445 -0.1776  0.0094  0.1068
 3406W        W 6626  17.085   1.122  10.637 -0.2118  0.1371 -0.2949
 3407W        W 6627  14.699   3.868  16.520 -0.2588 -0.1213 -0.1196
 3408W        W 6628   2.790   1.756   9.685  0.0655  0.0615  0.2756
 3409W        W 6629   6.513   0.336  11.285 -0.1973 -0.0619 -0.0807
 3410W        W 6630   2.411   3.977  16.403 -0.1787 -0.0970 -0.0864
 3411W        W 6631   4.865   4.303  15.726 -0.3138  0.0023  0.2761
 3412W        W 6632  10.651   8.315  10.012 -0.0616  0.0130 -0.2828
 3413W        W 6633  17.571   4.936  13.650 -0.1829 -0.0622 -0.0191
 3414W        W 6634   7.585   4.507   0.610 -0.0846 -0.0647  0.0734
 3415W        W 6635  11.285   1.388   9.062 -0.1806 -0.1288  0.1255
 3416W        W 6636  15.639   5.479  15.195  0.0958 -0.1105  0.2809
 3417W        W 6637   0.390  14.613   1.953 -0.1581  0.1288  0.0760
 3418W        W 6638  13.192   3.181  12.117 -0.1002  0.1974  0.1967
 3419W        W 6639  15.472   4.494  14.015 -0.3328  0.2356 -0.1035
 3420W        W 6640   4.761   4.646  16.070  0.0728  0.1526 -0.5113
 3421W        W 6641   1.514   9.467  11.647 -0.1367 -0.0025 -0.5865
 3422W        W 6642   2.197   1.697   9.904 -0.1360  0.0004  0.1863
 3423W        W 6643   4.110   6.879  14.218  0.0451  0.3448  0.2323
 3424W        W 6644  17.553   5.864  11.022 -0.3673 -0.0667  0.3424
 3425W        W 6645  15.510   6.303  10.396 -0.1069  0.1508 -0.1151
 3426W        W 6646   0.461   2.229   8.780 -0.0821  0.1580 -0.3736
 3427W        W 6647  15.049   7.919  10.780 -0.0640 -0.1243  0.3415
 3428W        W 6648   1.609   1.211   3.434  0.2843  0.0751  0.0882
 3429W        W 6649   2.243  11.644   2.827  0.0550  0.0485 -0.0884
 3430W        W 6650   2.451  11.405  13.770  0.2548  0.1969 -0.1177
 3431W        W 6651   3.083   8.584   7.865 -0.1470 -0.1492 -0.1118
 3432W        W 6652   0.392   2.586   8.447 -0.0599  0.1753  0.0316
 3433W        W 6653   3.078   0.976  16.217 -0.2072  0.1606 -0.1353
 3434W        W 6654   6.580   7.886   6.305  0.1647 -0.0320  0.0044
 3435W        W 6655   6.474   1.502  11.133  0.1555 -0.0167 -0.1153
 3436W        W 6656   9.484   5.978   9.193 -0.0012  0.0243 -0.0891
 3437W        W 6657   4.971   0.652   8.816 -0.1653 -0.1669  0.0696
 3438W        W 6658  11.518  14.528  12.643 -0.2027  0.1585  0.3420
 3439W        W 6659   4.731   6.891   5.768 -0.0495 -0.0588 -0.1033
 3440W        W 6660   8.844  17.288  18.152 -0.0626 -0.1699 -0.2444
 3441W        W 6661   7.893   6.616   4.877 -0.1474  0.0518 -0.1553
 3442W        W 6662  12.964   0.846   0.811  0.1081  0.0688 -0.0734
 3443W        W 6663  13.952   6.564  16.000  0.1120 -0.2694 -0.1714
 3444W        W 6664   0.653   5.735  12.232 -0.1253 -0.2448  0.0140
 3445W        W 6665  16.631   9.157   6.916 -0.1345  0.0679 -0.4311
 3446W        W 6666  16.200   6.421  12.286 -0.0529 -0.0729 -0.1428
 3447W        W 6667   5.389   3.042  13.002  0.4349 -0.0190  0.3596
 3448W        W 6668   6.331   5.882  15.892 -0.1383 -0.1267 -0.1283
 3449W        W 6669   1.787   2.128   8.110 -0.5176 -0.1341  0.1243
 3450W        W 6670   4.391   5.589   7.404 -0.1337  0.2124  0.1189
 3451W        W 6671   8.623   9.521   1.311 -0.2140 -0.1059 -0.2010
 3452W        W 6672   0.009   6.315  13.442  0.3060 -0.2777  0.0643
 3453W        W 6673   9.987   1.836  11.073 -0.0048  0.0364  0.2987
 3454W        W 6674   5.143  16.133  12.492 -0.0292 -0.0393  0.1344
 3455W        W 6675   6.798   8.172  13.892  0.1885 -0.1088  0.0727
 3456W        W 6676  13.176   4.850  14.125  0.3975 -0.0598 -0.1514
 3457W        W 6677   2.225   0.013   4.880  0.1251 -0.1723  0.1245
 3458W        W 6678   1.931  17.702   6.978 -0.2944 -0.1063 -0.2723
 3459W        W 6679   1.850  15.112  10.886  0.1844 -0.1244  0.2736
 3460W        W 6680  13.961   2.111  15.182  0.0879  0.0210 -0.0944
 3461W        W 6681   8.489   2.033  14.845  0.0308 -0.0468 -0.1090
 3462W        W 6682   0.694  10.530  11.785 -0.0203  0.0163  0.3002
 3463W        W 6683  16.248  11.966  14.551  0.1535 -0.1820 -0.1992
 3464W        W 6684   1.117   7.360   4.916 -0.4146 -0.1419 -0.1450
 3465W        W 6685  13.291   4.645  10.973  0.1452  0.3501  0.3986
 3466W        W 6686   4.012   3.093  12.555  0.2094  0.3224 -0.0026
 3467W        W 6687   7.789   8.703  13.268  0.0506  0.3362 -0.1647
 3468W        W 6688   5.179  10.220  11.961 -0.1163  0.1703  0.2212
 3469W        W 6689   0.743   2.389  14.509  0.3972  0.1132  0.0452
 3470W        W 6690  11.978   1.516   9.558  0.1048  0.2583 -0.2071
 3471W        W 6691   0.026  15.899   5.671  0.1192 -0.3540 -0.0500
 3472W        W 6692  15.448   3.929   3.543 -0.0301  0.2977 -0.0291
 3473W        W 6693  17.421  14.997  10.230 -0.2654  0.1139 -0.0857
 3474W        W 6694   8.203  11.431  11.573  0.1102 -0.0147  0.1061
 3475W        W 6695   4.330   1.454  14.344 -0.0521  0.1052  0.1271
 3476W        W 6696  16.839  16.608  15.973 -0.0290 -0.0380  0.0105
 3477W        W 6697  16.795   5.094   8.220 -0.3034 -0.0627  0.2717
 3478W        W 6698   2.603   5.227   9.280  0.3848 -0.1007 -0.0304
 3479W        W 6699  14.920   3.703   1.052  0.3958 -0.1583 -0.4371
 3480W        W 6700   6.379   2.754  10.242 -0.2245  0.1161  0.0509
 3481W        W 6701   1.448   6.230  14.585  0.1301  0.1251  0.0016
 3482W        W 6702   8.118  12.054   8.346  0.2811 -0.1692  0.2666
 3483W        W 6703   3.728   4.285  15.889 -0.0188 -0.0340  0.0060
 3484W        W 6704   5.505   8.178   8.759  0.3830 -0.0404 -0.2986
 3485W        W 6705   5.104  17.962   0.102  0.3322  0.2330 -0.1254
 3486W        W 6706   5.964   4.427  15.931 -0.0872 -0.1961 -0.3845
 3487W        W 6707   3.713   4.903  12.590 -0.0944  0.0959 -0.0353
 3488W        W 6708  12.720   5.032  14.289 -0.1478 -0.1715  0.1681
 3489W        W 6709   5.975  11.473   8.674  0.1151 -0.1357 -0.3998
 3490W        W 6710  16.060   3.853  13.443  0.4169  0.0603 -0.2089
 3491W        W 6711  12.099  17.965   3.754 -0.3289  0.0633  0.0469
 3492W        W 6712  15.602   3.291  14.487  0.2402 -0.1634 -0.1032
 3493W        W 6713   2.171  13.256  12.113 -0.0036  0.2749  0.0501
 3494W        W 6714   1.530   3.219   4.533 -0.2513 -0.0381 -0.2469
 3495W        W 6715  18.250  11.128  11.844  0.0125  0.0260  0.1178
 3496W        W 6716  17.413  14.830   3.160  0.1375 -0.4431  0.2952
 3497W        W 6717  16.605   9.148  15.665  0.2516 -0.0901 -0.1574
 3498W        W 6718   4.696  15.003  16.770 -0.0547 -0.0527 -0.0608
 3499W        W 6719   4.248   4.534   8.612 -0.0172  0.2431  0.3635
 3500W        W 6720   5.592  12.318  15.166  0.0472 -0.0453 -0.0179
 3501W        W 6721  14.446  10.777   8.384 -0.2338  0.0848 -0.0416
 3502W        W 6722   8.275  11.120   7.762 -0.0096 -0.0708  0.0362
 3503W        W 6723   2.792   5.511   8.050 -0.2950 -0.1644  0.2166
 3504W        W 6724  14.632   4.795  14.796 -0.1567  0.1497 -0.0906
 3505W        W 6725  17.408  11.932   2.922  0.1652 -0.1554  0.1868
 3506W        W 6726   4.372   4.708  11.417 -0.0600 -0.0966  0.0662
 3507W        W 6727   4.998   7.457  12.621 -0.0031 -0.0357  0.2080
 3508W        W 6728  13.866  10.975   1.677  0.0760 -0.2509 -0.0093
 3509W        W 6729  17.962  10.250  12.188 -0.0051 -0.0014  0.0616
 3510W        W 6730   5.927   9.989  12.818  0.3312  0.0244  0.0597
 3511W        W 6731   0.955   4.418   1.073  0.0586  0.0459 -0.0686
 3512W        W 6732   6.187   3.145  12.498  0.1922  0.4075 -0.1501
 3513W        W 6733   4.827  17.188  12.684  0.0770  0.1003  0.1013
 3514W        W 6734   0.525   5.575   8.865 -0.0748 -0.0537 -0.1908
 3515W        W 6735   1.584   0.501  11.928 -0.0861  0.2518  0.0467
 3516W        W 6736   5.097   2.542  14.003  0.1028  0.2242  0.0096
 3517W        W 6737   5.252  17.843   6.340  0.0975 -0.3170  0.0591
 3518W        W 6738   0.822   3.087  13.449  0.1265  0.0114 -0.1074
 3519W        W 6739   1.016   2.984   4.084 -0.2885  0.2736 -0.0373
 3520W        W 6740   5.389   6.225  14.067  0.2463 -0.1479  0.1801
 3521W        W 6741   4.634   4.812  12.579 -0.3496  0.0732  0.0445
 3522W        W 6742   2.693   1.482   8.774 -0.3389  0.1574  0.0084
 3523W        W 6743   1.961   7.459  14.421 -0.1301  0.0730 -0.1685
 3524W        W 6744  17.682   5.437  12.764 -0.2425 -0.0109  0.0362
 3525W        W 6745  17.692   6.037   9.927  0.0606  0.2274 -0.2754
 3526W        W 6746   6.501   6.473   5.849  0.2730 -0.0284  0.0170
 3527W        W 6747   7.135   6.601  11.446  0.1398 -0.1945  0.1377
 3528W        W 6748  10.001   5.266  15.889 -0.6115 -0.2342  0.1664
 3529W        W 6749  18.117   6.182  13.946  0.0352  0.0655  0.0902
 3530W        W 6750   0.920   7.652  12.449 -0.0760 -0.0256 -0.0988
 3531W        W 6751   3.400   8.155  13.775  0.0953  0.1729 -0.2206
 3532W        W 6752  15.742   4.304   8.507  0.0310 -0.2283 -0.1587
 3533W        W 6753   2.697   9.258   3.375  0.0001  0.1978 -0.0794
 3534W        W 6754  17.774   7.490  12.273  0.0969  0.3003 -0.0078
 3535W        W 6755   4.250   2.093  10.110 -0.2183 -0.2714  0.0650
 3536W        W 6756   5.995   7.623  15.017  0.1174 -0.0042 -0.1859
 3537W        W 6757  13.675   3.050  14.185  0.2385 -0.0486 -0.1140
 3538W        W 6758   0.700   4.117  16.319  0.1828 -0.1208 -0.3793
 3539W        W 6759  14.180   7.042  13.813 -0.0208  0.2609 -0.1028
 3540W        W 6760   3.347   8.266  10.020  0.1085  0.1411 -0.1454
 3541W        W 6761   0.783  15.794   2.150 -0.2914 -0.1191 -0.0613
 3542W        W 6762  18.263   9.999  11.917 -0.2543 -0.1886  0.1159
 3543W        W 6763   8.372   3.632  12.303  0.0048  0.2866  0.0539
 3544W        W 6764   6.466   6.702  10.116  0.3139  0.2452 -0.0080
 3545W        W 6765  15.857  12.840  12.038 -0.0971 -0.0369  0.0370
 3546W        W 6766  15.347   9.861   5.797 -0.5830  0.1332  0.0147
 3547W        W 6767   6.481   8.174   8.426 -0.0453  0.1704 -0.0787
 3548W        W 6768  15.129  13.633  13.310 -0.0163 -0.0523 -0.1267
 3549W        W 6769  17.263   6.823  12.980 -0.3689  0.1156 -0.1449
 3550W        W 6770   9.575  16.884  15.453  0.3614 -0.2081  0.0505
 3551W        W 6771   3.027   0.643   8.984  0.4232  0.0970  0.2799
 3552W        W 6772  17.603  10.157   7.107 -0.0213  0.1545 -0.2342
 3553W        W 6773   3.141  12.755  12.290  0.1021 -0.3676 -0.1314
 3554W        W 6774   0.041  13.504  15.686  0.2785  0.3330 -0.3608
 3555W        W 6775  15.279  17.783  10.870 -0.1148  0.2916  0.2246
 3556W        W 6776  13.929   3.413  11.312  0.1790  0.1044  0.6434
 3557W        W 6777  17.124   1.962  13.916  0.1052 -0.1048  0.2668
 3558W        W 6778   8.958   6.064  10.943 -0.4390  0.3807 -0.3582
 3559W        W 6779   3.023   3.988  14.496 -0.0028  0.1752  0.0400
 3560W        W 6780  18.195   8.170   9.317 -0.0943 -0.0096 -0.1572
 3561W        W 6781   4.634   0.511  14.485  0.1240 -0.1714  0.1347
 3562W        W 6782   3.304   7.823  12.275  0.0480  0.2260 -0.2522
 3563W        W 6783   1.291   0.347   9.930  0.0861 -0.4705  0.2171
 3564W        W 6784  16.705   2.452  15.021 -0.1164 -0.1834  0.0473
 3565W        W 6785  16.265   8.006  13.349  0.1173 -0.2011 -0.1003
 3566W        W 6786   1.508   1.162   2.171  0.0389 -0.0269  0.2304
 3567W        W 6787  17.624   6.331  10.796 -0.1378 -0.1721  0.1694
 3568W        W 6788   4.555   2.520  10.949 -0.1240 -0.2182  0.1239
 3569W        W 6789   0.300  15.940   8.651 -0.0139 -0.1381  0.0340
 3570W        W 6790  18.078   8.850   4.330 -0.3301  0.0348  0.3311
 3571W        W 6791  16.345   5.754   0.346 -0.1300 -0.2293 -0.1468
 3572W        W 6792   7.227   2.177  13.527 -0.1637  0.0478 -0.1508
 3573W        W 6793  14.596   6.464  15.319  0.1408  0.4561 -0.1211
 3574W        W 6794   5.046   7.823  13.326  0.0739  0.0989 -0.0556
 3575W        W 6795  15.811   1.054  10.882 -0.1910  0.0847 -0.0763
 3576W        W 6796  15.744   4.933  10.351 -0.1146 -0.2634  0.1053
 3577W        W 6797   3.324   1.560   8.711  0.2362  0.3596 -0.0409
 3578W        W 6798  11.329  16.678  14.129  0.2435  0.1040  0.0187
 3579W        W 6799   1.282   1.798  12.068 -0.1017  0.1673  0.4361
 3580W        W 6800   2.381  15.676   8.207 -0.0326 -0.0365  0.0029
 3581W        W 6801   3.786  13.476   9.686  0.3659  0.1868 -0.0864
 3582W        W 6802   8.288   4.009  17.354  0.1800 -0.0526  0.0780
 3583W        W 6803  13.947   0.058  14.778 -0.0071  0.0156 -0.2744
 3584W        W 6804  15.297   2.141   0.881 -0.2356 -0.2679 -0.0483
 3585W        W 6805  14.783   4.166  17.513  0.1812  0.1515  0.0416
 3586W        W 6806   5.621   8.861  16.818 -0.1667  0.1376 -0.0229
 3587W        W 6807  12.055   4.558  14.435 -0.1376  0.0431 -0.0662
 3588W        W 6808  12.517   6.680  12.340  0.1383  0.1300 -0.0022
 3589W        W 6809   5.833   6.147   9.268  0.0109  0.2614 -0.2052
 3590W        W 6810   3.003   4.152  17.124 -0.2156 -0.0512 -0.2818
 3591W        W 6811  15.346   5.547   9.770 -0.0052  0.2233  0.2959
 3592W        W 6812   1.945   0.833  11.886 -0.2480  0.0859 -0.0925
 3593W        W 6813   5.066   7.964   3.297  0.0921  0.4477  0.0161
 3594W        W 6814   0.801   6.220   8.170  0.0372  0.3629 -0.2239
 3595W        W 6815   8.920   5.530  10.900 -0.2185  0.4385  0.0375
 3596W        W 6816  14.796   5.629  16.300 -0.1364 -0.2481  0.0020
 3597W        W 6817   1.676   8.533   1.087  0.2044  0.0658  0.2244
 3598W        W 6818   3.094  11.251  14.465 -0.0432 -0.1806 -0.3609
 3599W        W 6819   3.673   7.585  12.551  0.0569 -0.2209  0.1516
 3600W        W 6820  16.153   5.087  12.980 -0.3235 -0.0070  0.3761
 3601W        W 6821   0.002   7.044  11.427  0.0476  0.1377 -0.3552
 3602W        W 6822  15.000   9.283   1.291  0.0374  0.3122 -0.1159
 3603W        W 6823   1.779   0.691  10.599 -0.0453  0.1581 -0.0786
 3604W        W 6824  18.203   2.383  12.339  0.2866  0.1020 -0.0640
 3605W        W 6825   1.536  17.368   6.972  0.3269  0.0106 -0.2102
 3606W        W 6826   1.106  10.406  14.211 -0.1926  0.0240 -0.1205
 3607W        W 6827   2.498   4.218   8.668 -0.0933  0.0999  0.3645
 3608W        W 6828  18.183  10.008  10.790  0.2302  0.4049 -0.0535
 3609W        W 6829   1.332   5.257   5.315 -0.1515  0.0996 -0.0620
 3610W        W 6830  16.069  13.072  17.387  0.2312  0.0025 -0.2576
 3611W        W 6831  16.782   4.076  14.073  0.0661 -0.1723  0.0466
 3612W        W 6832  17.472  16.217  16.274 -0.1781  0.1186 -0.2043
 3613W        W 6833   1.476  13.976   2.359  0.2414  0.1837 -0.0168
 3614W        W 6834  15.745   3.256  15.624 -0.2319  0.0043  0.0350
 3615W        W 6835   1.599  17.325   1.477 -0.1136  0.1114 -0.2507
 3616W        W 6836   2.843   7.152  10.644 -0.2092 -0.2712  0.2024
 3617W        W 6837  12.860   2.942  14.521 -0.0302 -0.3355  0.0600
 3618W        W 6838   6.912  16.856  13.451 -0.1289 -0.2903  0.0936
 3619W        W 6839   1.875   4.052  11.273 -0.0535 -0.0151  0.1131
 3620W        W 6840   1.633   7.492   4.511 -0.1971 -0.2616 -0.1065
 3621W        W 6841   4.057  10.174  12.010  0.2187  0.1281 -0.1305
 3622W        W 6842  12.091   6.064  13.433  0.0563  0.0346  0.0102
 3623W        W 6843   3.681  12.668  14.591 -0.0775  0.3097  0.0991
 3624W        W 6844   1.799  13.385  10.633  0.1883 -0.0750  0.0709
 3625W        W 6845  12.000   9.072  13.699  0.2076 -0.0830 -0.0595
 3626W        W 6846   2.908   3.939   1.037 -0.1243  0.0385  0.2234
 3627W        W 6847   4.898   0.797  16.930  0.2846  0.2589  0.1492
 3628W        W 6848   3.605   9.951   3.446 -0.1028  0.0650  0.1374
 3629W        W 6849   2.430   4.824  14.795  0.0007 -0.0081 -0.2313
 3630W        W 6850   7.530   5.455  13.277 -0.2272  0.2203 -0.0432
 3631W        W 6851  18.188  18.066   0.183  0.2334  0.0094  0.0770
 3632W        W 6852  17.605   2.608   1.430 -0.2736 -0.1916 -0.0115
 3633W        W 6853   5.631  12.166  16.626 -0.1034  0.2337  0.1442
 3634W        W 6854   1.680   2.420   0.093  0.0190 -0.4036 -0.1903
 3635W        W 6855   2.925  10.258   1.007  0.5106 -0.1505 -0.3553
 3636W        W 6856   1.882   6.599   8.564 -0.0083  0.2879 -0.3021
 3637W        W 6857  14.326   4.582   1.159  0.0070 -0.0586  0.2493
 3638W        W 6858  16.186  13.847  12.977  0.0003 -0.1796 -0.1930
 3639W        W 6859   4.040  11.642   3.150 -0.0174  0.2158 -0.1988
 3640W        W 6860  17.325   3.441   1.678  0.3112  0.1339 -0.1123
 3641W        W 6861   3.323   3.969   2.093 -0.0220  0.1455  0.4238
 3642W        W 6862   2.335   2.475   5.324 -0.0434  0.2042  0.2012
 3643W        W 6863  15.259   1.683  17.204  0.0024 -0.2187  0.0966
 3644W        W 6864  14.008  18.035  17.005 -0.1154 -0.0139  0.0482
 3645W        W 6865  11.915   5.188  15.604  0.1083  0.2647 -0.1558
 3646W        W 6866   1.278   0.356   5.112 -0.1175 -0.2552  0.1827
 3647W        W 6867   3.527  16.563  10.707  0.1756 -0.2233 -0.1741
 3648W        W 6868   5.099   3.605   0.815  0.1429 -0.0421  0.0828
 3649W        W 6869   1.043   7.057   1.728 -0.0565 -0.0349  0.2348
 3650W        W 6870   2.381   2.323   7.993 -0.2500 -0.3585 -0.0318
 3651W        W 6871  18.208   3.200  10.538 -0.1560  0.1784 -0.1864
 3652W        W 6872   6.416  10.163   8.725  0.3468  0.1938 -0.0429
 3653W        W 6873   2.146   8.589  15.189 -0.4332 -0.2335 -0.1922
 3654W        W 6874   5.197   7.449   4.072  0.1001 -0.0366  0.0187
 3655W        W 6875   6.333   6.279  15.188  0.2084 -0.1492  0.0000
 3656W        W 6876  17.316   6.732  14.714 -0.1421  0.0395 -0.5462
 3657W        W 6877  12.861   3.939  13.521 -0.2811  0.0117 -0.5016
 3658W        W 6878  17.749  10.330  16.960  0.1741  0.2996 -0.1093
 3659W        W 6879   7.843   8.306  14.770  0.0793 -0.3661  0.2701
 3660W        W 6880   3.822   8.354  14.788  0.1285  0.0166 -0.0909
 3661W        W 6881   0.064   7.065   5.798  0.0843  0.3535  0.0290
 3662W        W 6882  15.894  11.897  18.258 -0.0748 -0.2217  0.0763
 3663W        W 6883   3.541  10.328   0.797 -0.1038  0.1645  0.1817
 3664W        W 6884   5.176  10.523   4.026  0.1642 -0.0220 -0.1557
 3665W        W 6885  15.688   0.500  12.862 -0.2139  0.1175 -0.1505
 3666W        W 6886   4.567   4.517   2.212 -0.0819  0.1329 -0.1907
 3667W        W 6887   7.032   2.818  16.701 -0.1516  0.0625  0.5558
 3668W        W 6888   1.553   5.519  18.140 -0.2538  0.0589 -0.0791
 3669W        W 6889   3.444   2.849  13.266 -0.0793 -0.1377 -0.4708
 3670W        W 6890   3.598  11.111   0.255 -0.2048 -0.0556  0.1673
 3671W        W 6891   0.118   1.995  16.678 -0.2917  0.0165 -0.0230
 3672W        W 6892   0.724   3.280  11.316 -0.1798  0.2082  0.2664
 3673W        W 6893   2.507   6.244  13.252  0.2309  0.0131 -0.2929
 3674W        W 6894   4.107   4.675  13.422  0.3928  0.0696  0.5775
 3675W        W 6895   1.419  12.611  14.209  0.0650 -0.3556  0.2082
 3676W        W 6896   1.286   9.088  14.051 -0.1920 -0.2342  0.2392
 3677W        W 6897  17.741   4.671  11.141  0.1361 -0.2302 -0.0556
 3678W        W 6898   6.823   2.257  15.418  0.0190 -0.4479 -0.1375
 3679W        W 6899   4.513  11.805   4.876 -0.3081 -0.0568  0.1009
 3680W        W 6900   5.432   8.713   3.551 -0.0225  0.0206 -0.1491
 3681W        W 6901   4.358   3.115   2.223 -0.0735  0.0658 -0.0451
 3682W        W 6902  14.038   4.109   0.963 -0.1032 -0.2839 -0.0930
 3683W        W 6903   6.791   4.251  17.174 -0.0244 -0.0138 -0.2304
 3684W        W 6904  15.610   2.371   0.073  0.2386 -0.4707  0.0107
 3685W        W 6905   1.317   7.200  18.174 -0.1736  0.5121  0.2314
 3686W        W 6906   0.831   2.964   0.926  0.0462 -0.2043 -0.0055
 3687W        W 6907  16.363   2.904  16.922  0.0706 -0.1964 -0.0492
 3688W        W 6908   2.997   2.213  11.756  0.0358  0.0379  0.0852
 3689W        W 6909   2.457   1.635   1.223  0.0127 -0.0948  0.1449
 3690W        W 6910   0.681   7.192  15.955 -0.1185 -0.1362  0.0602
 3691W        W 6911  17.724  10.724   1.095 -0.1420 -0.5461  0.1100
 3692W        W 6912   7.698  17.693  15.509 -0.1410  0.3747 -0.0378
 3693W        W 6913  15.369   8.393   7.981 -0.2744  0.0972 -0.1562
 3694W        W 6914  16.277  12.270  16.810  0.0019 -0.0814  0.0079
 3695W        W 6915  14.660   6.628  17.816  0.1316  0.0136  0.3402
 3696W        W 6916   0.645   8.445   5.261 -0.2278  0.0920 -0.0488
 3697W        W 6917  11.756   6.551  16.582  0.0482  0.1940 -0.4733
 3698W        W 6918   4.678   4.593  15.176 -0.1851  0.1789 -0.1692
 3699W        W 6919   5.533  16.634  13.033 -0.0889  0.1857 -0.0481
 3700W        W 6920   1.066   4.137  16.996  0.2101  0.2018  0.1354
 3701W        W 6921  15.885   6.442  13.493  0.0616  0.0087 -0.0930
 3702W        W 6922   1.946   9.503  12.924 -0.0522  0.1155  0.1276
 3703W        W 6923  18.016  18.222   2.053  0.2653 -0.0431 -0.1747
 3704W        W 6924   4.086  11.231  17.344  0.3188 -0.2126 -0.0897
 3705W        W 6925   7.140   4.148  11.696  0.0786 -0.2514 -0.0398
 3706W        W 6926  13.093   8.527   8.657 -0.2650 -0.3015  0.0530
 3707W        W 6927  14.380  10.785   2.492  0.0407  0.1632  0.1258
 3708W        W 6928   5.823   3.999  16.351  0.1713 -0.1055  0.0410
 3709W        W 6929  16.634   5.789   4.704  0.0871  0.0175 -0.1445
 3710W        W 6930  16.122   5.392  14.982 -0.1579 -0.2310  0.0803
 3711W        W 6931   3.821   4.561  12.140 -0.1393 -0.1213  0.0328
 3712W        W 6932   2.862   5.359  13.161  0.0127  0.1074 -0.1428
 3713W        W 6933   6.240   2.019   1.775  0.0491 -0.0319  0.0821
 3714W        W 6934  16.574   7.819   9.929  0.0069  0.1612  0.1387
 3715W        W 6935   6.822   8.105   4.033  0.0165 -0.3659 -0.0484
 3716W        W 6936   6.303  15.502  16.383 -0.1004  0.0975  0.0314
 3717W        W 6937   7.061   5.377  16.002  0.0964 -0.0783 -0.3450
 3718W        W 6938   2.229   8.101  10.895  0.2205 -0.2867 -0.0494
 3719W        W 6939   9.208   5.128  12.999 -0.1149 -0.0611 -0.0870
 3720W        W 6940   1.334  14.488  17.571 -0.2181 -0.2369  0.1556
 3721W        W 6941   3.687  10.911  14.377 -0.2333 -0.0687 -0.0827
 3722W        W 6942  10.981   6.748   0.519 -0.0524 -0.1555 -0.2985
 3723W        W 6943  17.750  13.281  14.711  0.2740 -0.2478 -0.1533
 3724W        W 6944  16.344   6.086   7.334  0.2150  0.0447  0.1158
 3725W        W 6945   6.781   8.570  13.564  0.2965 -0.1844 -0.0523
 3726W        W 6946  17.120   6.093  14.674  0.1007 -0.0751  0.0068
 3727W        W 6947   4.518  15.410  15.544 -0.0499 -0.2264 -0.0450
 3728W        W 6948   3.784   3.460   0.282 -0.0233 -0.0407 -0.2640
 3729W        W 6949  15.145   0.932  17.790  0.2522 -0.0155  0.0458
 3730W        W 6950  17.164  11.838  14.707  0.1027 -0.2310 -0.2488
 3731W        W 6951   8.728   7.581   7.509 -0.1314  0.2154  0.0723
 3732W        W 6952  12.274   2.111   2.239  0.3336  0.0241  0.1236
 3733W        W 6953   7.541   9.758  15.735 -0.1703  0.0393  0.2093
 3734W        W 6954  18.253  17.902  13.337 -0.2790 -0.0245 -0.1963
 3735W        W 6955   0.627  17.112  15.373 -0.1316  0.1982 -0.1311
 3736W        W 6956   0.419   5.945   2.537  0.1290 -0.2561  0.0680
 3737W        W 6957  15.605  12.183  16.146  0.0453  0.2173  0.0371
 3738W        W 6958   0.832   4.986  12.875  0.0003 -0.2101  0.2536
 3739W        W 6959  13.774   5.976   2.674 -0.2008 -0.0750 -0.0267
 3740W        W 6960  13.460  16.848   0.730 -0.0972  0.0085 -0.0090
 3741W        W 6961   3.294  11.318   1.229 -0.1026  0.0555 -0.4624
 3742W        W 6962  10.857  18.098  13.965 -0.1545  0.0450 -0.2609
 3743W        W 6963  14.663   7.126  11.766 -0.1841  0.2039 -0.3172
 3744W        W 6964   6.671   7.177  10.008  0.1888  0.1823  0.0079
 3745W        W 6965   0.043   6.714  10.127  0.3246 -0.0058  0.0409
 3746W        W 6966   6.719  10.506   5.154  0.0415  0.0409  0.0164
 3747W        W 6967   3.981   3.935  12.962 -0.0485 -0.1036  0.2097
 3748W        W 6968   8.258   6.970  18.116 -0.1312  0.1127  0.0270
 3749W        W 6969   6.285   9.410   1.550 -0.0011 -0.5426  0.3486
 3750W        W 6970  13.840  11.816  17.084  0.1403 -0.0947  0.0164
 3751W        W 6971  17.028   9.593   0.696  0.2646 -0.0166  0.1065
 3752W        W 6972   4.985  13.846  14.868 -0.1683  0.2219 -0.2707
 3753W        W 6973   3.540   5.880  15.078  0.0597  0.1475 -0.0514
 3754W        W 6974   2.315   7.966   3.646 -0.3284  0.2880  0.0180
 3755W        W 6975   5.555   0.926  10.056 -0.1729  0.2424 -0.0468
 3756W        W 6976   3.042   6.844   1.143  0.1891 -0.0186 -0.4538
 3757W        W 6977   3.144   6.206  15.791  0.1412  0.1093  0.0544
 3758W        W 6978  16.974   8.438  14.857  0.2416  0.1365 -0.0967
 3759W        W 6979  13.676   5.905  16.895 -0.2138  0.0689 -0.2762
 3760W        W 6980  16.286  18.163   7.340 -0.0005  0.0420 -0.1050
 3761W        W 6981   1.833   1.571  13.823 -0.1698 -0.0905  0.1236
 3762W        W 6982   0.783  11.497  14.648  0.1563 -0.0943 -0.0512
 3763W        W 6983  18.146  12.920  14.954 -0.0698  0.3234 -0.0586
 3764W        W 6984   3.665   2.901   1.293  0.1887  0.3741  0.0442
 3765W        W 6985   5.223  12.530  16.887  0.2030  0.0994  0.3222
 3766W        W 6986   2.200   6.011  17.329  0.3787 -0.2371  0.3988
 3767W        W 6987   6.744  15.287  11.769 -0.2962  0.4276  0.0327
 3768W        W 6988  15.843   8.148  16.791  0.3867 -0.1356  0.1292
 3769W        W 6989   6.822   9.985  16.237  0.1832 -0.1227  0.0942
 3770W        W 6990  15.820   2.856   0.963 -0.0506 -0.2496 -0.4770
 3771W        W 6991   3.591  10.768  16.704  0.0378 -0.0542 -0.1198
 3772W        W 6992  16.940  17.782   3.553 -0.0726  0.0748 -0.1350
 3773W        W 6993   4.286   8.439  11.501 -0.2435 -0.2097 -0.3043
 3774W        W 6994   2.054   8.731   0.781  0.1212 -0.1400 -0.1022
 3775W        W 6995   0.124   4.757  11.280  0.1109 -0.2438 -0.0117
 3776W        W 6996   1.774   3.042  10.353 -0.1426  0.0458  0.2495
 3777W        W 6997   4.660  13.007  11.631 -0.1401  0.1388 -0.1764
 3778W        W 6998   0.707   4.723  17.324 -0.3160 -0.0248  0.2504
 3779W        W 6999   0.158   5.435  13.199  0.1781  0.0454  0.2374
 3780W        W 7000   0.635  15.513  13.046  0.0108  0.2978  0.2144
 3781W        W 7001  16.890   5.246   8.960  0.0967 -0.1307 -0.1492
 3782W        W 7002  18.244  12.458   1.787 -0.0587  0.0349 -0.2004
 3783W        W 7003   2.956  11.185  16.491  0.0600  0.0245 -0.0811
 3784W        W 7004   3.071   4.517  15.301 -0.0017 -0.2251 -0.2182
 3785W        W 7005  17.570   2.944  16.012  0.0722  0.1849  0.2203
 3786W        W 7006  16.690  11.488  17.584 -0.0752 -0.0784  0.2810
 3787W        W 7007  18.139   6.550   1.130 -0.1494  0.1345 -0.1287
 3788W        W 7008   5.788  18.216   3.928 -0.1880  0.2048  0.2576
 3789W        W 7009   4.200   0.574  18.002 -0.0569 -0.0706  0.2358
 3790W        W 7010   2.443   5.793  17.933 -0.4136 -0.2004 -0.0069
 3791W        W 7011   6.965   5.145   2.765 -0.2035 -0.1002 -0.2004
 3792W        W 7012  16.874   6.415  10.133 -0.1718  0.0455 -0.1753
 3793W        W 7013   3.606   5.952  17.405  0.4422  0.0712 -0.1421
 3794W        W 7014   1.717   6.255   1.437 -0.3466  0.0613  0.2074
 3795W        W 7015  18.219   9.748   1.986 -0.1247  0.0145  0.2045
 3796W        W 7016  13.948  10.394   2.188  0.4491 -0.0326  0.0630
 3797W        W 7017   0.252   1.600   2.761 -0.0545 -0.2971 -0.0804
 3798W        W 7018  16.795   3.489  14.864 -0.0636  0.0552  0.1499
 3799W        W 7019  15.889  17.373   0.899  0.0819  0.0341 -0.0020
 3800W        W 7020   5.996  15.507  14.863  0.0260  0.0038 -0.2638
 3801W        W 7021   4.387   9.021  17.488  0.1409 -0.1886 -0.0301
 3802W        W 7022   4.150   7.724  17.991 -0.0302 -0.1588  0.0318
 3803W        W 7023   1.830   5.255   0.890 -0.2006  0.0727 -0.1725
 3804W        W 7024  10.622  16.557  12.746 -0.0521  0.2220 -0.2103
 3805W        W 7025   3.793   2.047   0.819  0.2200 -0.1820 -0.0126
 3806W        W 7026   3.049  16.457   2.204  0.2564  0.3855  0.0706
 3807W        W 7027   3.200   1.668  12.911 -0.3581 -0.0686  0.0377
 3808W        W 7028  17.071   4.832  10.667  0.0061  0.0364  0.0951
 3809W        W 7029  17.313  18.068  14.483 -0.1658  0.2254 -0.1523
 3810W        W 7030   7.001  10.467  14.350 -0.0097  0.0328 -0.0095
 3811W        W 7031  16.687   8.374   7.316  0.2454  0.1368  0.2182
 3812W        W 7032  15.526  16.863  15.960  0.0779  0.2687 -0.3058
 3813W        W 7033   2.497   8.602  11.382  0.2681 -0.1676  0.1337
 3814W        W 7034   0.072   8.768  13.684  0.2705  0.0893 -0.3445
 3815W        W 7035   5.895   0.981  10.446  0.0861 -0.2662  0.2604
 3816W        W 7036   7.014   9.650   1.962  0.1279 -0.1509 -0.1407
 3817W        W 7037   4.455   5.454   0.279 -0.0596 -0.3045 -0.0994
 3818W        W 7038  17.691  12.921  16.686  0.0494  0.3143 -0.0237
 3819W        W 7039   5.562   7.030  11.323 -0.0999  0.1055  0.2013
 3820W        W 7040   4.926   7.602  15.137  0.1612  0.2106 -0.2294
 3821W        W 7041  12.452   8.458   7.032  0.1823 -0.2937  0.2009
 3822W        W 7042  17.766   5.657   0.792  0.3108 -0.1463  0.0727
 3823W        W 7043   4.976  10.177  16.782  0.1434  0.0522 -0.1317
 3824W        W 7044  17.313  18.205  12.724  0.1644  0.2540  0.0182
 3825W        W 7045   1.949   8.625  18.084  0.4372 -0.1211  0.1854
 3826W        W 7046  15.108   4.877   5.235 -0.0268  0.0583 -0.1320
 3827W        W 7047   5.335   7.272  17.526 -0.0534  0.3145 -0.1540
 3828W        W 7048   0.742   5.019   9.760  0.1812 -0.3520 -0.3396
 3829W        W 7049   5.557   5.718  12.087 -0.2381 -0.4958 -0.0831
 3830W        W 7050   0.805   6.001  15.477 -0.1846 -0.0602 -0.1772
 3831W        W 7051   5.284   4.592  15.927 -0.2344  0.2038  0.1021
 3832W        W 7052  16.815  11.439  10.016  0.0876  0.0465 -0.0070
 3833W        W 7053   1.934   9.828  11.550 -0.1953 -0.0961 -0.0359
 3834W        W 7054   4.276   2.080  15.902 -0.2418 -0.0951  0.1786
 3835W        W 7055  16.916  11.038  16.702  0.5594  0.2027 -0.1616
 3836W        W 7056  17.863  11.098   6.694 -0.1044 -0.0997 -0.1742
 3837W        W 7057   3.997   6.006  15.105  0.3755 -0.0055  0.0616
 3838W        W 7058   0.893   6.562  11.600  0.0385  0.2597  0.1796
 3839W        W 7059  16.855   4.240  10.668  0.0046  0.1115 -0.0660
 3840W        W 7060  18.095   7.951  17.410 -0.0446 -0.1056 -0.1704
 3841W        W 7061   5.182  10.178  14.791 -0.0954  0.1402  0.1142
 3842W        W 7062   1.244   5.250  12.580  0.1967  0.0743  0.2816
 3843W        W 7063  18.156   4.705  15.523 -0.1044 -0.0481  0.0063
 3844W        W 7064  15.104   7.046  13.281 -0.3301  0.1854  0.0973
 3845W        W 7065  17.396   7.239  12.755  0.1818 -0.4055 -0.0546
 3846W        W 7066  12.666   5.886  12.602 -0.0743  0.0905  0.2246
 3847W        W 7067   3.759   9.690   3.837  0.1130  0.1343  0.3297
 3848W        W 7068  12.846   3.870   7.174  0.1719 -0.0221  0.1838
 3849W        W 7069  17.529  12.573  11.941  0.2885  0.0654 -0.3235
 3850W        W 7070  16.936   7.820  14.985  0.1626  0.1568  0.3544
 3851W        W 7071  13.423   8.836  16.158 -0.1832 -0.0352  0.0441
 3852W        W 7072   8.126   5.669  14.138 -0.1783  0.0804 -0.1767
 3853W        W 7073   6.779   6.923  17.636  0.2086  0.1459  0.3172
 3854W        W 7074   0.904   4.953   2.402  0.1293 -0.2138  0.1046
 3855W        W 7075   0.751   2.317   0.510  0.0289 -0.0508 -0.0612
 3856W        W 7076  17.924   7.820   9.644  0.1613  0.0596  0.2369
 3857W        W 7077   1.167   6.494   7.396  0.2527  0.1784 -0.1693
 3858W        W 7078   0.557   5.456  17.845 -0.0947 -0.0732  0.1345
 3859W        W 7079   6.712   3.620  16.298  0.1939  0.0554  0.0626
 3860W        W 7080   2.943  16.147  12.531 -0.1216 -0.1842 -0.1796
 3861W        W 7081   3.950   4.726  15.892 -0.1461  0.0780  0.1367
 3862W        W 7082  15.407   6.982  18.162  0.0936 -0.2215 -0.0224
 3863W        W 7083   3.141  10.826  16.901  0.2217  0.2552  0.0022
 3864W        W 7084  17.997  11.665  15.614 -0.0166  0.1989  0.0825
 3865W        W 7085  18.248   7.969  16.234  0.0799  0.2036  0.2757
 3866W        W 7086   0.765   3.453   0.956  0.2208  0.0209 -0.1030
 3867W        W 7087   3.879  13.711  17.186  0.0228 -0.1027 -0.0858
 3868W        W 7088   1.214   5.441  14.919  0.1071 -0.0618 -0.1481
 3869W        W 7089   1.848   5.997  11.321 -0.2298  0.1219 -0.1539
 3870W        W 7090  18.210   7.937  11.636 -0.1014 -0.3199 -0.1235
 3871W        W 7091  15.492   6.273  15.490 -0.1041  0.0697  0.0427
 3872W        W 7092   0.765  16.073  13.803  0.0064 -0.1836 -0.0217
 3873W        W 7093   4.726  17.920   2.807  0.1531 -0.6293  0.0107
 3874W        W 7094  16.327   0.257   0.176 -0.1474 -0.0592 -0.0047
 3875W        W 7095   1.188   2.523  17.565 -0.0310 -0.0303  0.1469
 3876W        W 7096   4.997  17.249  17.940  0.1699  0.1347 -0.0436
 3877W        W 7097   0.680   6.830  16.922 -0.0994 -0.0097 -0.1227
 3878W        W 7098  17.454  15.257   2.798 -0.2331 -0.1787  0.1710
 3879W        W 7099   2.832  10.181   5.064 -0.0593 -0.1307 -0.1423
 3880W        W 7100   0.279   5.237  13.694  0.2200  0.3256  0.1822
 3881W        W 7101   5.479   1.745  17.883  0.2001 -0.4656 -0.1932
 3882W        W 7102   3.281   1.146   0.765 -0.5962  0.2044 -0.0138
 3883W        W 7103  18.132  16.968  18.215 -0.2431 -0.1610  0.0078
 3884W        W 7104   2.623  13.126  12.656 -0.2644  0.1675  0.0966
 3885W        W 7105  17.240  10.653  11.485 -0.0564  0.1528  0.0920
 3886W        W 7106   1.550  18.130   2.732 -0.1850 -0.1055 -0.0676
 3887W        W 7107   0.563   8.983  17.914  0.3997  0.1580 -0.0632
 3888W        W 7108   2.042  11.041   5.020 -0.0715  0.1825 -0.0281
 3889W        W 7109   6.282   0.309  17.779 -0.1389  0.1367  0.2271
 3890W        W 7110   4.685   9.838  16.475  0.0674 -0.1799  0.0653
 3891W        W 7111  17.533   6.329  12.259 -0.1411 -0.2239  0.0530
 3892W        W 7112  16.989   0.626  15.000 -0.1978 -0.4820  0.1267
 3893W        W 7113   1.107   1.824   9.934 -0.5288 -0.0569 -0.0714
 3894W        W 7114   3.761   8.795  11.661  0.0399  0.4318 -0.0387
 3895W        W 7115   9.952  16.497   1.836 -0.1241  0.0334 -0.1306
 3896W        W 7116   1.863   1.178  14.531  0.2491  0.0367 -0.1989
 3897W        W 7117   2.211   7.569  16.131  0.1008 -0.0662 -0.3034
 3898W        W 7118   4.491   7.241  14.404  0.0804 -0.1210  0.2954
 3899W        W 7119   4.054  12.245  14.673 -0.1777 -0.2075 -0.1508
 3900W        W 7120   4.952   3.672  13.054 -0.0439  0.0760  0.2520
 3901W        W 7121   1.075   3.890  16.529  0.1777 -0.3702  0.2108
 3902W        W 7122   3.890   6.610  17.439 -0.1265  0.0107 -0.0652
 3903W        W 7123   1.452   8.385  16.034 -0.1586  0.0235  0.0620
 3904W        W 7124  13.339   6.718  16.629 -0.1932  0.1793  0.0743
 3905W        W 7125   2.122   9.690  10.637  0.0582 -0.0840  0.0796
 3906W        W 7126  18.071   5.584  18.160 -0.0144  0.0158 -0.0231
 3907W        W 7127   3.436   6.896  15.671  0.0687 -0.3460 -0.0139
 3908W        W 7128  17.289   2.605  17.946 -0.2326 -0.1272  0.0445
 3909W        W 7129  14.101   3.825  17.901  0.0478  0.0116 -0.2664
 3910W        W 7130  15.106   1.295   0.536  0.0231  0.0446 -0.1062
 3911W        W 7131   7.911  17.232  14.067 -0.0320 -0.2994  0.0193
 3912W        W 7132  17.779   3.915   2.538  0.1303  0.1770 -0.1481
 3913W        W 7133   4.543   3.444  16.495 -0.1814 -0.0384  0.1489
 3914W        W 7134   4.577   4.844  14.243 -0.1840  0.1115 -0.2214
 3915W        W 7135  16.346   6.541  15.615  0.0100 -0.2414 -0.3591
 3916W        W 7136   6.921  17.876   1.887 -0.0147  0.1257 -0.2521
 3917W        W 7137  13.072   5.622  18.065  0.0939 -0.0367  0.1226
 3918W        W 7138   7.770   9.317   4.013  0.2979 -0.1009 -0.1670
 3919W        W 7139  15.145  11.797   6.052 -0.1310  0.1298  0.4210
 3920W        W 7140  17.108  11.076   1.945 -0.1520 -0.0352  0.2206
 3921W        W 7141   3.500   9.477  12.832  0.0047 -0.0418  0.0772
 3922W        W 7142  18.123  15.364  18.201  0.1718 -0.1544 -0.0357
 3923W        W 7143   2.118   3.935  14.923  0.0316 -0.4309  0.0981
 3924W        W 7144   7.456   6.022  16.720 -0.1236  0.0289  0.1385
 3925W        W 7145  18.072   6.277  17.393 -0.0304  0.1584 -0.0122
 3926W        W 7146  16.924   8.839  14.609 -0.2724 -0.0617  0.1563
 3927W        W 7147   3.757   7.099   1.794 -0.4832  0.0637  0.1396
 3928W        W 7148  16.846   0.655  13.469 -0.1097 -0.3008  0.2777
 3929W        W 7149  16.995   5.464  13.494  0.0429 -0.0074 -0.0292
 3930W        W 7150   1.092   8.062  14.437 -0.2254  0.0087  0.0857
 3931W        W 7151   2.422   4.466  13.452 -0.1813  0.2858  0.2721
 3932W        W 7152   1.209  12.889  16.935 -0.1964  0.5068  0.1896
 3933W        W 7153  15.769  10.190   9.350 -0.1641 -0.0249 -0.2454
 3934W        W 7154  10.822   6.243  15.846  0.0442 -0.0285 -0.0428
 3935W        W 7155  16.884  17.555  16.022 -0.2875 -0.0724  0.0520
 3936W        W 7156  15.246   4.886  14.432 -0.1248  0.0888  0.1187
 3937W        W 7157   0.223  17.010  10.549 -0.2763 -0.1542  0.1167
 3938W        W 7158   0.100   5.715  14.615  0.2031 -0.1423 -0.1022
 3939W        W 7159   4.239   3.620  11.306 -0.0303 -0.0889  0.1156
 3940W        W 7160   0.319   0.947  16.865  0.1838  0.0255  0.2615
 3941W        W 7161  18.067   2.776   0.271 -0.1323  0.0341 -0.0766
 3942W        W 7162  10.297   7.902   3.819  0.1470 -0.2117 -0.1298
 3943W        W 7163   3.216   9.052  17.340 -0.0564 -0.2391 -0.0649
 3944W        W 7164   5.578  12.772   8.233  0.1067  0.0038 -0.0283
 3945W        W 7165   1.226   3.422  16.294  0.3512 -0.1339  0.0483
 3946W        W 7166  13.457   5.371   2.369 -0.3187 -0.1073 -0.0915
 3947W        W 7167  12.380   5.952  12.994  0.0765 -0.3153  0.0991
 3948W        W 7168  14.106   5.351  12.155 -0.1163  0.3127 -0.1330
 3949W        W 7169   3.809   1.069   1.879 -0.0820 -0.0685  0.2253
 3950W        W 7170  14.272   3.698  17.334 -0.4346  0.1366 -0.3235
 3951W        W 7171  14.040  12.460  14.230  0.0311  0.1741  0.1556
 3952W        W 7172   2.355  10.380  15.844  0.2427 -0.0527 -0.0812
 3953W        W 7173  16.897   5.578  14.100  0.0583 -0.1690  0.0448
 3954W        W 7174   6.689   6.676   4.125  0.2188  0.1725 -0.0481
 3955W        W 7175  15.381   7.423  13.547  0.1747 -0.4280  0.1330
 3956W        W 7176   0.360   6.043  13.858  0.3730 -0.1091 -0.3703
 3957W        W 7177  15.432   4.975   0.123  0.0921  0.4257  0.0650
 3958W        W 7178  18.039   9.747  16.785 -0.1128  0.2172  0.0992
 3959W        W 7179  13.951  10.455  13.836 -0.2247  0.3209 -0.0916
 3960W        W 7180  18.048   6.614   5.770  0.0869 -0.3690  0.3019
 3961W        W 7181  13.701  16.258  16.504 -0.3693 -0.4270 -0.1572
 3962W        W 7182  15.993   6.116  17.766 -0.2159  0.1373  0.0516
 3963W        W 7183  13.406   5.330  15.098  0.1521  0.2851  0.0151
 3964W        W 7184   4.123  10.518   2.661  0.2030  0.1448 -0.2224
 3965W        W 7185  14.096   6.359   5.937  0.2344  0.0250 -0.1803
 3966W        W 7186   7.160   2.401   0.604  0.1961 -0.1349 -0.0295
 3967W        W 7187  18.155   2.694  15.448 -0.1084 -0.0829  0.1165
 3968W        W 7188  13.767  14.623  14.016  0.0358  0.1869 -0.2931
 3969W        W 7189   8.929   4.647  15.669 -0.0167  0.5164 -0.0994
 3970W        W 7190  15.537   4.606  18.069 -0.0375 -0.2354  0.2069
 3971W        W 7191   2.494  11.602  11.422  0.2171  0.1284 -0.2166
 3972W        W 7192   2.441  10.126   1.326  0.1391  0.0632 -0.2927
 3973W        W 7193   6.622  17.566  16.927  0.1237  0.0869  0.1242
 3974W        W 7194   0.337   4.989  17.527 -0.2446 -0.0285 -0.2816
 3975W        W 7195   9.063   4.308   0.157 -0.3666  0.3695 -0.3356
 3976W        W 7196   5.218   4.621  12.657 -0.1843 -0.1986 -0.3112
 3977W        W 7197   3.046  14.037  11.745  0.1074  0.0307  0.1935
 3978W        W 7198  13.214  16.758  15.411  0.0089 -0.0290  0.1840
 3979W        W 7199   4.902   2.459  16.365  0.0275  0.0780 -0.0889
 3980W        W 7200  18.218  11.851   1.616  0.0667 -0.2199 -0.1758
 3981W        W 7201  17.236   4.876  18.129  0.0534 -0.2076  0.1826
 3982W        W 7202  15.201   3.014  15.683 -0.2749  0.0597 -0.2087
 3983W        W 7203  11.464   9.479   1.843 -0.0273 -0.2532  0.1209
 3984W        W 7204   4.340   6.692  13.414 -0.0894 -0.3410 -0.0009
 3985W        W 7205   0.179   4.154  14.346 -0.1911  0.1744 -0.3101
 3986W        W 7206   5.915   9.088   5.228 -0.0875  0.0243  0.0681
 3987W        W 7207  17.920  10.433  14.261 -0.1347  0.1858 -0.1156
 3988W        W 7208  13.976   6.627  12.141  0.1111  0.0332  0.0745
 3989W        W 7209   4.052   9.482   4.252  0.1332  0.2790  0.0231
 3990W        W 7210   5.173   2.876   8.758 -0.0034  0.1784  0.1563
 3991W        W 7211   2.843   7.996  12.204  0.0663 -0.1639 -0.0958
 3992W        W 7212  14.783  11.578   4.479  0.1100  0.3334 -0.4489
 3993W        W 7213   1.918  10.892  15.153 -0.1451  0.3760 -0.2342
 3994W        W 7214   7.126   4.399  13.390 -0.1346 -0.3471 -0.2376
 3995W        W 7215   5.870   1.840  16.908 -0.0556 -0.1310 -0.0213
 3996W        W 7216  17.069   7.825   3.081  0.0393  0.0354  0.3300
 3997W        W 7217   4.227   8.072  12.129  0.1252  0.2343  0.4634
 3998W        W 7218   2.852  16.975   4.608 -0.0507  0.0425  0.0929
 3999W        W 7219   7.820   8.316   9.026  0.1800  0.0338 -0.2550
 4000W        W 7220  17.100  17.201  13.817 -0.1295  0.2769  0.2387
 4001W        W 7221   8.961  13.059  16.924 -0.0369 -0.0886  0.0549
 4002W        W 7222  14.882   0.557  15.404 -0.0428  0.1064 -0.0972
 4003W        W 7223   2.797  15.870   4.372 -0.0572 -0.1029 -0.2253
 4004W        W 7224   1.019  10.922  16.685  0.0721  0.1339  0.0421
 4005W        W 7225   2.442   6.806   4.850  0.2303  0.1410  0.1128
 4006W        W 7226  16.665  14.103   6.590  0.1193  0.0094 -0.0223
 4007W        W 7227  16.836   8.181   6.320  0.0794 -0.3860  0.1009
 4008W        W 7228   1.227   7.900   2.702  0.3416 -0.1718 -0.0882
 4009W        W 7229   5.003   4.806   8.263  0.3784  0.0866 -0.1857
 4010W        W 7230  16.689   8.000   3.707 -0.0216 -0.1423 -0.0529
 4011W        W 7231   4.261   3.431   2.578 -0.1912  0.0295 -0.1243
 4012W        W 7232   1.728  14.938  15.285  0.0459  0.1649 -0.0676
 4013W        W 7233   2.011  10.534   7.840  0.0796 -0.0519  0.2855
 4014W        W 7234   6.767   8.588   0.558  0.1003  0.0105  0.0089
 4015W        W 7235  16.054   9.359   0.983  0.2447  0.1931 -0.3840
 4016W        W 7236   9.378   9.823   1.068  0.1656  0.0454 -0.0079
 4017W        W 7237   0.276   7.993   2.947 -0.1511  0.2361 -0.1924
 4018W        W 7238   0.783   7.517  11.410  0.0451  0.0650  0.0358
 4019W        W 7239   3.198  15.572  15.481  0.3216 -0.1362 -0.0300
 4020W        W 7240   7.627  17.247   6.776 -0.2536  0.0126 -0.2011
 4021W        W 7241   7.269  17.210   2.333  0.1299 -0.2027  0.3469
 4022W        W 7242   0.667   2.576   2.684 -0.0327  0.2148 -0.3866
 4023W        W 7243   2.925   8.018   4.354 -0.1743  0.0482  0.1139
 4024W        W 7244  11.722  17.060  15.550 -0.2057  0.0484  0.2273
 4025W        W 7245  11.401   7.112   1.999 -0.2656 -0.0359 -0.1392
 4026W        W 7246   3.354   8.196   0.960  0.3525 -0.0528 -0.1834
 4027W        W 7247   1.335  14.843  13.294  0.0210 -0.3335 -0.2644
 4028W        W 7248   5.473   9.690   0.349  0.2924  0.0001  0.0664
 4029W        W 7249  14.646   9.653  11.008 -0.1170 -0.0222 -0.0375
 4030W        W 7250  16.886  16.105  17.475  0.0414  0.1056  0.0077
 4031W        W 7251  16.994  12.510   8.651  0.1318 -0.0432 -0.3593
 4032W        W 7252  17.789   6.249   0.938  0.0042  0.1758 -0.2163
 4033W        W 7253   6.648  13.967   7.516 -0.2630  0.0531  0.0273
 4034W        W 7254  17.083  11.389   2.909  0.1001  0.1174  0.0787
 4035W        W 7255   5.697  10.023   8.835 -0.1054 -0.0120 -0.2604
 4036W        W 7256   0.841  11.112  12.434 -0.0200 -0.0030  0.1399
 4037W        W 7257   2.703   9.125   1.895 -0.0601  0.0030  0.1499
 4038W        W 7258   3.015   6.185   1.989  0.1483  0.0220  0.1129
 4039W        W 7259   5.533  17.117   4.588 -0.1275  0.2747 -0.0675
 4040W        W 7260  17.592  16.192  12.218  0.0580  0.2723  0.0989
 4041W        W 7261   5.473   9.580   1.235 -0.1830  0.1160 -0.1077
 4042W        W 7262  16.787   9.715   2.823  0.2767  0.2329 -0.0859
 4043W        W 7263  16.966   9.478   8.088  0.1581  0.0144 -0.1664
 4044W        W 7264   4.800   5.563  18.179 -0.1249  0.0002 -0.1884
 4045W        W 7265   3.423   6.045   4.143 -0.0268 -0.0720 -0.1422
 4046W        W 7266   2.009   9.993   2.114  0.0444 -0.0185 -0.0829
 4047W        W 7267   7.212   9.281   4.719  0.4157 -0.3039  0.0930
 4048W        W 7268  17.931  14.014   2.051 -0.3981 -0.0259 -0.0834
 4049W        W 7269  18.202  12.997   3.352 -0.1608  0.0592 -0.1263
 4050W        W 7270  10.022  12.525  14.478 -0.0491 -0.0095  0.5318
 4051W        W 7271  15.933   8.469  13.902  0.0581 -0.0773  0.1569
 4052W        W 7272   4.463  11.592   5.916 -0.1284 -0.1130 -0.0252
 4053W        W 7273   5.969   6.920   2.211 -0.2035 -0.1664  0.0270
 4054W        W 7274   4.516   1.955  17.912  0.2478  0.0643  0.1455
 4055W        W 7275  16.157  15.740   0.075 -0.1404  0.0728 -0.1277
 4056W        W 7276   7.509  10.651  17.495 -0.0492  0.0485 -0.1574
 4057W        W 7277   3.756  15.485   2.419  0.0549  0.0278  0.0755
 4058W        W 7278  13.413  12.257  16.771  0.3106 -0.1858 -0.3777
 4059W        W 7279  10.557  11.046   1.738  0.0608 -0.0579 -0.3602
 4060W        W 7280   4.111  12.701   5.014  0.3747 -0.1798  0.1830
 4061W        W 7281   0.274   8.858  14.418  0.2265  0.1399  0.1570
 4062W        W 7282  15.581  11.987   1.619  0.2801 -0.0042  0.2525
 4063W        W 7283  13.002  16.319   0.229  0.2068 -0.2889  0.3013
 4064W        W 7284  17.292  17.547   0.976 -0.0765 -0.1832 -0.0070
 4065W        W 7285   3.193   0.280   1.555  0.0111  0.1823 -0.0000
 4066W        W 7286   4.761   3.201  15.099  0.1316 -0.1251 -0.0089
 4067W        W 7287  14.210  16.365  10.239  0.2846  0.2289  0.3305
 4068W        W 7288   6.108   9.705   6.846  0.0053 -0.0374 -0.1087
 4069W        W 7289   5.516  10.507  14.612 -0.1672 -0.2629 -0.1424
 4070W        W 7290  15.886   5.949   0.414 -0.2176 -0.0671 -0.1960
 4071W        W 7291   3.198  10.726   2.397 -0.0033  0.1939  0.1666
 4072W        W 7292   8.348  11.717  16.851  0.1036  0.0304 -0.0173
 4073W        W 7293   8.524   9.626   7.037  0.1754  0.2214 -0.2701
 4074W        W 7294  15.410  10.519   6.303 -0.0727  0.0800 -0.0660
 4075W        W 7295  17.061  10.488  16.734 -0.2003 -0.2603  0.5888
 4076W        W 7296   8.325  14.417   2.240 -0.1783 -0.0815 -0.0877
 4077W        W 7297   7.892   6.653  12.030 -0.1712 -0.1316 -0.1514
 4078W        W 7298   2.608  14.425   3.578  0.3065 -0.0170 -0.1055
 4079W        W 7299   3.650  16.407   7.825  0.3314  0.3786 -0.2323
 4080W        W 7300   2.598   6.143  15.008  0.0887 -0.0828 -0.4067
 4081W        W 7301  10.173  12.467  17.030  0.2700 -0.3066 -0.1522
 4082W        W 7302   0.197   6.593  14.564 -0.3817  0.0705 -0.4020
 4083W        W 7303  16.898  14.776   7.234 -0.2079 -0.1098  0.3145
 4084W        W 7304  12.216   3.177   4.273 -0.1807  0.0979 -0.0921
 4085W        W 7305   5.291   9.558   8.135 -0.0851  0.1033  0.1456
 4086W        W 7306   2.583  11.636   2.393  0.1363  0.0619 -0.3043
 4087W        W 7307   8.209   6.131   6.274  0.0968 -0.1582  0.4963
 4088W        W 7308   3.649   5.492   6.892  0.1191  0.0367 -0.0464
 4089W        W 7309   3.440   7.952   5.146 -0.0050 -0.1032  0.0710
 4090W        W 7310   9.014  10.716  13.438  0.1301  0.1675  0.4148
 4091W        W 7311   2.460  10.521   3.125 -0.2675  0.0643 -0.0376
 4092W        W 7312   6.733  14.105   2.573  0.5669 -0.2139  0.4403
 4093W        W 7313   8.096   8.722  14.878  0.0095 -0.2477 -0.0842
 4094W        W 7314   1.375  10.263   5.461 -0.3793  0.1978  0.0652
 4095W        W 7315  16.653   6.805   2.869  0.2407  0.0278 -0.1087
 4096W        W 7316   0.894   3.957   2.407 -0.1954  0.0658 -0.0189
 4097W        W 7317   2.821   0.864   2.242 -0.0889  0.3079  0.1343
 4098W        W 7318   7.081   7.354  17.575 -0.1581  0.0186  0.1853
 4099W        W 7319   3.241   6.535   4.745  0.3166 -0.2927 -0.2172
 4100W        W 7320   8.401  15.749   3.976  0.0488  0.2756 -0.3532
 4101W        W 7321  15.663  13.108   0.021 -0.0510 -0.0495  0.1299
 4102W        W 7322   5.414  11.006   7.889  0.1409  0.1364  0.2005
 4103W        W 7323   7.319   9.661  17.644 -0.0523  0.1519  0.0557
 4104W        W 7324   7.011   2.391   6.785 -0.0641 -0.0674  0.0287
 4105W        W 7325   1.552  13.332   7.646  0.2589 -0.0494 -0.1501
 4106W        W 7326   7.296   6.742   1.902 -0.0962  0.0511  0.0328
 4107W        W 7327   5.364   5.911   6.565 -0.2361 -0.3429  0.3796
 4108W        W 7328   5.557   3.113   3.562  0.2637  0.2013  0.0168
 4109W        W 7329   4.825  14.372   4.367 -0.2137  0.1173 -0.0087
 4110W        W 7330  13.916   5.666  18.117 -0.1241  0.0657 -0.0991
 4111W        W 7331   2.477  13.296   6.600 -0.1890 -0.0962  0.3035
 4112W        W 7332  13.728   8.027  16.827 -0.0477 -0.2147 -0.1930
 4113W        W 7333   5.532   9.634  16.412  0.1050 -0.0979 -0.3427
 4114W        W 7334   1.575   9.771  17.474 -0.1991  0.0369 -0.1015
 4115W        W 7335   5.864  11.182   9.083  0.1494  0.2095 -0.0912
 4116W        W 7336   4.882   3.152   4.860 -0.2107  0.1078 -0.0706
 4117W        W 7337   1.824   4.834   2.476  0.0535 -0.0701  0.1967
 4118W        W 7338   3.166  14.763   2.327 -0.0707  0.1946 -0.1439
 4119W        W 7339  15.371  12.891  13.349 -0.1027  0.2232  0.0885
 4120W        W 7340   5.940   3.793   0.101  0.0730 -0.0585 -0.0633
 4121W        W 7341   4.929  15.167  12.511  0.0430 -0.2878  0.2561
 4122W        W 7342   9.759  14.705  18.263 -0.1989  0.4587  0.5376
 4123W        W 7343  14.122   0.910   3.632  0.0837  0.2306  0.0235
 4124W        W 7344   9.342   5.086   6.290 -0.0953  0.3728 -0.0753
 4125W        W 7345   5.348  13.675   4.515 -0.0851  0.0075  0.1590
 4126W        W 7346  10.220   7.793   2.091 -0.2893  0.0241  0.0886
 4127W        W 7347   3.020  14.044   9.684  0.2188 -0.2716  0.6693
 4128W        W 7348   5.125  15.272   4.375 -0.1981  0.0462  0.0704
 4129W        W 7349   4.351   7.777  14.552 -0.5282  0.0790 -0.2580
 4130W        W 7350   1.620  11.928   2.241 -0.0280 -0.0063 -0.1633
 4131W        W 7351   2.257   0.701   7.881  0.3071  0.0153 -0.2068
 4132W        W 7352   9.685  12.491  17.952  0.0551 -0.0856  0.0056
 4133W        W 7353   3.162   1.998   7.769 -0.0387 -0.0492 -0.1623
 4134W        W 7354   7.040   7.937   7.625 -0.0316 -0.4154  0.0792
 4135W        W 7355  16.677  13.657  17.984 -0.0103  0.0960 -0.4320
 4136W        W 7356  14.756   1.692   6.142  0.1848  0.2081 -0.4281
 4137W        W 7357   5.344   6.287   2.444  0.3445  0.1569 -0.0275
 4138W        W 7358   2.448  11.089  12.523  0.0136 -0.0419 -0.3294
 4139W        W 7359  17.545  12.342   0.009  0.0965 -0.0244 -0.0180
 4140W        W 7360   8.815   5.628   0.252  0.0075 -0.0966 -0.1961
 4141W        W 7361   2.750  10.014  15.817 -0.0605  0.3574  0.2230
 4142W        W 7362   1.421  12.141  15.736 -0.2176  0.0503 -0.1378
 4143W        W 7363   5.832  10.918   2.411 -0.0174 -0.0060 -0.4898
 4144W        W 7364   5.584  10.034   2.159  0.1477 -0.0997  0.1137
 4145W        W 7365  16.952  10.310   8.813  0.1069 -0.1054 -0.2556
 4146W        W 7366  14.443  13.227   4.521  0.0526  0.0336  0.0975
 4147W        W 7367   3.946  11.548   5.356  0.3308  0.2821  0.0595
 4148W        W 7368   2.054  17.114  15.999  0.1641 -0.0196 -0.1512
 4149W        W 7369   3.143   8.151   6.076  0.0243  0.0410  0.0541
 4150W        W 7370   1.547   8.313   6.685 -0.2365  0.0040 -0.0962
 4151W        W 7371   8.255   1.323   0.256 -0.0974  0.0284 -0.2334
 4152W        W 7372  18.099   1.967  17.289  0.2265 -0.0267  0.0352
 4153W        W 7373   2.178   9.324  12.459  0.2016  0.3556 -0.1777
 4154W        W 7374   4.006   8.829   1.264  0.0991  0.1001 -0.2286
 4155W        W 7375   8.063  10.067  14.111  0.2369  0.1020 -0.2625
 4156W        W 7376   2.584  10.447  17.905  0.1587  0.1518 -0.1265
 4157W        W 7377  16.299   4.707   2.667  0.1774 -0.2592 -0.4249
 4158W        W 7378   5.800   3.169   8.071 -0.0026  0.1062 -0.1404
 4159W        W 7379   5.006  11.074   2.301 -0.2353 -0.0091  0.2378
 4160W        W 7380   0.541  15.478  13.558  0.2478 -0.0725  0.3865
 4161W        W 7381  18.225   3.820   4.043  0.0372 -0.0543 -0.2250
 4162W        W 7382   7.222   5.476   1.209  0.0105  0.0579 -0.1940
 4163W        W 7383   6.161  10.710   5.308 -0.3160 -0.0285  0.0484
 4164W        W 7384  14.068   8.686   0.106 -0.0955  0.0195 -0.0797
 4165W        W 7385  15.817  13.112   8.475  0.3145  0.1566  0.4899
 4166W        W 7386  13.362   7.821   3.328 -0.1276 -0.3837  0.2904
 4167W        W 7387  16.791   6.197  16.512 -0.0646 -0.0966 -0.3623
 4168W        W 7388   9.451  11.766  12.123 -0.0501  0.2570  0.0389
 4169W        W 7389  17.116  10.535   2.516  0.3452 -0.0794 -0.2873
 4170W        W 7390  17.606   8.908   3.528 -0.0165  0.0736  0.1111
 4171W        W 7391   0.805  16.186   0.380  0.2144  0.1191 -0.1597
 4172W        W 7392   3.725  12.125   1.146 -0.1160  0.0360  0.1087
 4173W        W 7393  17.562  17.117   3.819  0.2704 -0.2685 -0.1057
 4174W        W 7394  14.264  16.342   4.267 -0.0851  0.0318  0.0274
 4175W        W 7395   5.833   9.713   1.587  0.0667  0.1131 -0.2728
 4176W        W 7396   1.426  17.128   0.615 -0.0144 -0.1110 -0.0876
 4177W        W 7397   5.534   4.066   4.602  0.0578  0.0288 -0.0449
 4178W        W 7398   2.019   9.227   6.485  0.1569  0.0991 -0.4260
 4179W        W 7399  14.562  12.488   6.647 -0.2524 -0.6301  0.0402
 4180W        W 7400   2.628  11.588  10.444  0.1545  0.0227 -0.1537
 4181W        W 7401   7.877  11.435  15.511 -0.2974  0.0539  0.0558
 4182W        W 7402   8.105  15.828   2.504 -0.2307 -0.0144 -0.0289
 4183W        W 7403   0.461  16.264  13.041  0.1051  0.0882 -0.0735
 4184W        W 7404   6.007   2.554   4.590 -0.0941 -0.0641 -0.1373
 4185W        W 7405  13.477  11.661   1.905  0.2864  0.0620 -0.0890
 4186W        W 7406   2.718   8.366  17.208  0.0663  0.2558 -0.1260
 4187W        W 7407   5.615  16.411   4.130  0.0813 -0.1297  0.2463
 4188W        W 7408   4.904   6.143   8.902  0.4878 -0.1214 -0.3998
 4189W        W 7409   2.250   8.217   3.079 -0.1293 -0.0092 -0.1280
 4190W        W 7410   5.778  11.263   4.651  0.1393  0.0197  0.1723
 4191W        W 7411   3.124  14.213   2.467 -0.0336 -0.0688  0.0299
 4192W        W 7412   0.956   4.121   4.337  0.1296 -0.1021  0.3433
 4193W        W 7413  17.595   1.121   0.324 -0.2003 -0.1143  0.0097
 4194W        W 7414  13.860   6.795   5.253  0.1986  0.3243  0.0975
 4195W        W 7415   2.346   5.913   1.868 -0.0280  0.1246  0.0409
 4196W        W 7416   1.626   4.173   5.915  0.2139  0.2141  0.1481
 4197W        W 7417   5.522  14.111   9.867 -0.0869  0.1907 -0.1173
 4198W        W 7418  17.325  16.362  18.016 -0.3051  0.0265 -0.1078
 4199W        W 7419   5.335   5.842   5.889 -0.1985 -0.1312 -0.1068
 4200W        W 7420   1.258  11.511  15.023 -0.0545  0.0545  0.0423
 4201W        W 7421   2.087  13.896  17.976 -0.0484 -0.1812  0.1750
 4202W        W 7422   2.802   5.846  13.198 -0.0391 -0.1637 -0.0672
 4203W        W 7423   5.060   9.559   0.075 -0.1983  0.3581  0.0612
 4204W        W 7424  13.095  12.225  14.165 -0.0031 -0.2977 -0.3977
 4205W        W 7425   2.349  10.371   4.354 -0.1148 -0.3267 -0.1428
 4206W        W 7426   4.103   8.323   1.433 -0.3074  0.2864 -0.2884
 4207W        W 7427  14.511  15.619   2.847 -0.1627  0.1431 -0.0684
 4208W        W 7428  16.012   8.016   0.911  0.5378  0.1302 -0.0782
 4209W        W 7429   5.719  11.449  14.735 -0.3146 -0.1221  0.3583
 4210W        W 7430   1.771  17.547   5.872 -0.3075 -0.1069  0.0274
 4211W        W 7431   1.866   6.851  17.400  0.2050 -0.0054 -0.0370
 4212W        W 7432   2.308  12.166   6.765 -0.0508  0.4531  0.1181
 4213W        W 7433  16.461  15.420   4.882  0.2334 -0.3446 -0.2169
 4214W        W 7434  17.755   6.965   5.654  0.2694  0.0613 -0.1233
 4215W        W 7435  17.358   1.668  15.263  0.1094  0.1157  0.0626
 4216W        W 7436   5.558  13.214   1.533  0.2867  0.1810 -0.0362
 4217W        W 7437   4.544  15.156   1.742 -0.0831 -0.3980  0.0530
 4218W        W 7438   2.677   7.020  16.834 -0.1634 -0.1397 -0.1551
 4219W        W 7439   5.088  10.478   8.676 -0.1942 -0.0780  0.3240
 4220W        W 7440  15.241  10.151   4.021  0.2009  0.3865  0.1959
 4221W        W 7441   3.723  12.832   2.070  0.5136  0.1860  0.3112
 4222W        W 7442   7.239  13.439   3.900 -0.1501 -0.0637  0.1222
 4223W        W 7443   1.265  12.862  16.394  0.3642  0.1487 -0.2270
 4224W        W 7444   0.460  10.791   0.085  0.0268  0.0551 -0.0864
 4225W        W 7445   7.974  17.053  16.003 -0.1060 -0.2124  0.0259
 4226W        W 7446   4.434   7.992   7.121  0.0463  0.1374  0.3058
 4227W        W 7447   3.299   9.453   8.359 -0.1643  0.0884  0.1506
 4228W        W 7448  16.931   2.302  16.330 -0.1411 -0.3895  0.0331
 4229W        W 7449   0.181   6.084   5.621 -0.1660 -0.1926 -0.0350
 4230W        W 7450   2.880   5.768   7.007 -0.0637 -0.0623 -0.1262
 4231W        W 7451   9.368  13.311  16.228 -0.1677  0.0517  0.0990
 4232W        W 7452  16.730  12.242   7.812 -0.2375 -0.2902 -0.2796
 4233W        W 7453   5.395  14.720   7.857  0.0577 -0.3538  0.2587
 4234W        W 7454   3.722   3.254  14.169  0.2189  0.2936 -0.3630
 4235W        W 7455   5.722  16.541   0.897  0.0370 -0.2655 -0.0180
 4236W        W 7456  15.415  15.155   4.078 -0.0269 -0.2481  0.1488
 4237W        W 7457  18.236   8.251  18.088  0.1164  0.2123 -0.3714
 4238W        W 7458   1.958   7.059   6.239 -0.0247 -0.0344 -0.0439
 4239W        W 7459   6.069  12.846  10.670 -0.2157 -0.1118 -0.1015
 4240W        W 7460  17.770  11.217   1.026 -0.0464 -0.1370  0.1521
 4241W        W 7461   1.542   4.522   7.257  0.0395 -0.1417 -0.1776
 4242W        W 7462   4.051   4.063   6.249 -0.2164  0.1315 -0.2495
 4243W        W 7463   3.330  16.766   2.455  0.5587 -0.4035  0.2070
 4244W        W 7464  16.595  12.640   6.690  0.1178 -0.1778  0.2959
 4245W        W 7465  14.900   6.052   0.570 -0.1193 -0.0632 -0.0655
 4246W        W 7466   0.972  13.815   8.388 -0.1035 -0.1684  0.0054
 4247W        W 7467   4.313  11.742   1.464  0.1134 -0.2155  0.2469
 4248W        W 7468   4.816  11.361   5.028  0.4282 -0.0861 -0.1429
 4249W        W 7469  17.843  12.164   1.325  0.1460  0.2380  0.2070
 4250W        W 7470   1.034  11.831   4.193  0.3579 -0.4051  0.0637
 4251W        W 7471  13.913  17.390   3.575 -0.1816 -0.0397 -0.1763
 4252W        W 7472   9.026  10.946   3.567  0.1437 -0.0143  0.3564
 4253W        W 7473   9.222  17.274   7.608  0.0480  0.0572  0.1749
 4254W        W 7474   6.607   7.676   3.907 -0.1406  0.0945  0.1657
 4255W        W 7475   4.193  11.558  13.873 -0.2918 -0.3106  0.0675
 4256W        W 7476   7.145  13.729   0.652  0.1988 -0.0606  0.4097
 4257W        W 7477   2.040  11.768   0.159  0.0550 -0.1040  0.1216
 4258W        W 7478   3.639  10.213   3.040  0.1707  0.1463 -0.1425
 4259W        W 7479   5.201   9.726   0.784 -0.0273  0.2216 -0.5450
 4260W        W 7480  12.974  17.332   3.696 -0.0642  0.1020  0.2646
 4261W        W 7481   4.690   2.509   0.971 -0.0997  0.0682  0.2361
 4262W        W 7482   2.145  15.506   7.789 -0.1855 -0.1365  0.3769
 4263W        W 7483   5.744  12.824   4.156  0.0834 -0.0049  0.1550
 4264W        W 7484   6.195   8.584   5.243 -0.0014  0.3349 -0.0147
 4265W        W 7485  15.118   6.854  16.376 -0.1080  0.0298  0.0646
 4266W        W 7486  17.801  17.735  17.095 -0.1503  0.0215 -0.0396
 4267W        W 7487   5.411   8.745  17.859  0.1098  0.0580 -0.1976
 4268W        W 7488   7.682  11.549   6.818 -0.1658  0.0840  0.0818
 4269W        W 7489   3.651   5.230   4.314  0.2599 -0.1653 -0.3137
 4270W        W 7490   9.543   6.958   1.731 -0.2151  0.1337 -0.1143
 4271W        W 7491   9.630   8.389  16.459  0.1165  0.0366 -0.0415
 4272W        W 7492  16.148  15.340  16.401  0.0699  0.3506 -0.0415
 4273W        W 7493  12.945   8.977  14.513  0.2488  0.1079  0.2157
 4274W        W 7494   0.744   4.375   3.330  0.1199  0.2230  0.0399
 4275W        W 7495  14.831  15.565   1.749 -0.0849 -0.1343  0.2818
 4276W        W 7496   2.471  10.669   1.754  0.0101 -0.0682 -0.2222
 4277W        W 7497  13.162   8.772   0.958  0.3479  0.1439  0.1808
 4278W        W 7498   2.925  13.516   0.467  0.0725 -0.0469 -0.1175
 4279W        W 7499   3.625  13.817   3.259 -0.1301  0.2061 -0.3539
 4280W        W 7500   5.256  12.934  17.820  0.0818  0.1033  0.1187
 4281W        W 7501   3.383   0.266  11.091 -0.0451 -0.5005 -0.3856
 4282W        W 7502  14.778  15.435   9.414 -0.0597 -0.1912  0.3945
 4283W        W 7503   4.689   6.434   2.323  0.0075  0.1283 -0.2394
 4284W        W 7504   4.948   5.654  16.039  0.0824  0.1754  0.2004
 4285W        W 7505   2.893   6.845   1.624 -0.3747 -0.1276  0.2155
 4286W        W 7506  17.483   2.956   1.973 -0.0563  0.2302  0.0902
 4287W        W 7507   4.149  13.387  17.406 -0.2224 -0.0947 -0.0404
 4288W        W 7508   7.020   3.207  12.069  0.1462  0.1701  0.1701
 4289W        W 7509   7.567   9.222   1.474  0.1705 -0.0355 -0.1235
 4290W        W 7510  16.912  12.188  15.017  0.4692  0.1361  0.2448
 4291W        W 7511  15.279  11.537  17.771 -0.0507  0.3157  0.2933
 4292W        W 7512   8.188   5.777   5.933 -0.3529 -0.1355 -0.1501
 4293W        W 7513  17.178  12.653   0.682 -0.1326  0.1941 -0.0193
 4294W        W 7514   0.521  15.053   1.309  0.0132  0.0933  0.0644
 4295W        W 7515  15.168  10.343   5.840 -0.3439  0.2521  0.0626
 4296W        W 7516  14.824  13.209   4.194 -0.0625  0.0105 -0.0102
 4297W        W 7517   8.422  10.958   2.383  0.2538 -0.1641 -0.0601
 4298W        W 7518  17.654   6.371   3.536 -0.1483 -0.0631  0.3435
 4299W        W 7519   2.748  16.323   2.999 -0.1293 -0.0351  0.1373
 4300W        W 7520   6.877   7.580   5.166 -0.1001  0.1832  0.1402
 4301W        W 7521   1.842   5.380   4.573 -0.2588  0.1839 -0.1038
 4302W        W 7522  17.292  10.208   2.135  0.1997 -0.0506 -0.0391
 4303W        W 7523  13.450  13.510   8.187 -0.1659  0.1023  0.0276
 4304W        W 7524   2.935   6.204  12.460  0.0547 -0.0547 -0.0180
 4305W        W 7525   5.346   6.508   5.025  0.1529  0.0679 -0.3143
 4306W        W 7526  11.587   0.487  14.553  0.1750  0.1678 -0.1433
 4307W        W 7527  17.570   9.640   2.825  0.0846  0.1030 -0.1173
 4308W        W 7528  10.297   5.683   0.371 -0.2088 -0.1123  0.1224
 4309W        W 7529  10.464  11.029   5.018  0.0511  0.0941  0.1314
 4310W        W 7530  15.328   8.151   5.085 -0.0120  0.1490  0.3575
 4311W        W 7531   0.330  14.215   0.953 -0.1906  0.0735  0.0646
 4312W        W 7532   2.673   2.769   7.451 -0.1069  0.2125 -0.0647
 4313W        W 7533   4.994   8.464   3.670  0.0321 -0.1164  0.3059
 4314W        W 7534   4.063   9.429   2.623 -0.1503  0.2613 -0.1548
 4315W        W 7535   0.368  16.682   6.290 -0.5628 -0.0307  0.3415
 4316W        W 7536  14.070   8.351   2.235  0.1303  0.1426 -0.0326
 4317W        W 7537  15.457  12.484   3.210  0.0025  0.2982 -0.2217
 4318W        W 7538  17.209   3.773   0.916  0.1122  0.1330  0.0533
 4319W        W 7539   4.627  16.124   0.095  0.2339 -0.0175  0.1753
 4320W        W 7540  15.194  14.738  13.135 -0.1020  0.0763 -0.1757
 4321W        W 7541   2.903  11.638  16.796 -0.0448  0.1091 -0.0569
 4322W        W 7542   3.916   4.342  17.095 -0.0140  0.0194 -0.0553
 4323W        W 7543   0.325  15.423   2.087  0.1736 -0.1069 -0.1566
 4324W        W 7544  14.731   9.613  17.447 -0.1013 -0.0195  0.0204
 4325W        W 7545   5.082   6.496   3.636 -0.3854  0.2707  0.2808
 4326W        W 7546   0.329  12.410  12.484 -0.0434 -0.2093  0.1271
 4327W        W 7547   5.125   9.747  16.126  0.1325  0.2301 -0.0281
 4328W        W 7548   7.626   7.814  12.807 -0.3491  0.0815 -0.0408
 4329W        W 7549   3.678  15.635   9.462 -0.1510  0.0398 -0.0016
 4330W        W 7550   4.538   8.723   4.479  0.0447 -0.1125  0.0797
 4331W        W 7551   9.267  10.906   3.995 -0.0448  0.0922  0.0192
 4332W        W 7552   0.652   2.802   1.730 -0.1507  0.3599 -0.0415
 4333W        W 7553   5.044   6.986   0.029  0.1294  0.2028 -0.1377
 4334W        W 7554   3.193  13.721  17.618  0.1255 -0.2733 -0.0459
 4335W        W 7555   4.658   9.296  11.049 -0.0595 -0.2612  0.0960
 4336W        W 7556   6.574  11.059   4.305 -0.3253 -0.2250  0.1734
 4337W        W 7557   4.220   4.712  14.819  0.2454  0.1244 -0.0423
 4338W        W 7558   9.798  10.944   5.965 -0.0608  0.0709 -0.0757
 4339W        W 7559  16.666   5.821   4.061  0.2052 -0.0936  0.1688
 4340W        W 7560   6.356  16.095   2.868  0.1629  0.0667 -0.1732
 4341W        W 7561   0.025  16.931   3.212  0.0799  0.2029 -0.4374
 4342W        W 7562  14.737   8.286   1.564 -0.0261  0.0348 -0.0379
 4343W        W 7563   2.245   4.301   1.934 -0.0059  0.0015 -0.1277
 4344W        W 7564   3.043   7.279   6.401  0.1444  0.0660  0.0256
 4345W        W 7565   6.353   3.295   1.785  0.1082  0.1221 -0.1668
 4346W        W 7566   3.352   9.232  10.054  0.1816  0.1454  0.1418
 4347W        W 7567   0.323  10.703   1.104 -0.0309 -0.1570  0.0411
 4348W        W 7568   0.021   7.383   0.268 -0.0057  0.0242 -0.3027
 4349W        W 7569   0.045   5.116   4.430 -0.0887 -0.3110 -0.1226
 4350W        W 7570   2.405   9.233   4.974  0.0742  0.2646  0.0344
 4351W        W 7571   1.135  14.769   3.315 -0.1843  0.2507 -0.1249
 4352W        W 7572  17.033  10.542   9.650  0.1285 -0.2482 -0.1151
 4353W        W 7573  18.021  11.607   2.062 -0.2072  0.3239  0.1066
 4354W        W 7574  17.612  11.843   2.184 -0.3506  0.1069 -0.1412
 4355W        W 7575   5.010  10.312  12.530  0.0752  0.2708  0.3398
 4356W        W 7576   2.880  15.796   8.110  0.1312  0.0585 -0.0789
 4357W        W 7577   5.633   4.610  17.657  0.0321  0.0485  0.1628
 4358W        W 7578  14.924   3.177   8.880  0.0859  0.0830 -0.0092
 4359W        W 7579  10.135  15.437   1.873  0.0772 -0.0582 -0.0516
 4360W        W 7580   7.341   6.680  18.209  0.2501 -0.3571 -0.0232
 4361W        W 7581   0.462  11.969   0.939 -0.1498  0.0294  0.0979
 4362W        W 7582   2.393  12.319   7.975  0.3452 -0.0494 -0.1463
 4363W        W 7583  17.848  11.517  16.918  0.1316  0.1307  0.0566
 4364W        W 7584   8.758   2.165   1.384 -0.1916 -0.1329  0.0947
 4365W        W 7585   4.102  17.242   4.934 -0.1505  0.0099 -0.2573
 4366W        W 7586  16.123   4.533  14.693  0.3910 -0.5067  0.0657
 4367W        W 7587  16.756   6.165   7.730 -0.0433 -0.1063 -0.1575
 4368W        W 7588   5.675  14.970   5.897 -0.1604 -0.3549 -0.0908
 4369W        W 7589  11.268   7.509   0.246 -0.1532  0.1649  0.0879
 4370W        W 7590  16.236   9.003   0.688  0.0377  0.2227 -0.2566
 4371W        W 7591   9.225   7.016   3.750  0.1138  0.1334 -0.0302
 4372W        W 7592  17.729   1.138   8.497 -0.1171  0.0997  0.2965
 4373W        W 7593   6.461  11.350  17.754 -0.2686  0.1083  0.0573
 4374W        W 7594   4.516   6.451   0.466 -0.0014  0.4311  0.1648
 4375W        W 7595   1.991   8.730  17.006 -0.2119  0.1398 -0.1293
 4376W        W 7596   5.643  14.119   8.429  0.0759  0.1249  0.3589
 4377W        W 7597   3.116  15.487   3.124 -0.0897 -0.0956 -0.0733
 4378W        W 7598   7.175   7.605   2.134  0.2393  0.3101 -0.1572
 4379W        W 7599   2.229  10.987   2.848  0.2799 -0.0288 -0.1261
 4380W        W 7600   7.928   9.825   4.114  0.0083  0.0064  0.0931
 4381W        W 7601   4.077  10.803  16.979  0.1230 -0.0156 -0.0289
 4382W        W 7602   7.290   7.008   5.583 -0.2112 -0.0090  0.1344
 4383W        W 7603   6.392  10.067   5.590  0.0010  0.1661 -0.1226
 4384W        W 7604   3.262  11.774   8.850  0.1421  0.0232  0.1473
 4385W        W 7605  15.400  10.617  13.745  0.0354  0.3471 -0.0652
 4386W        W 7606  10.184  11.343   6.179  0.0490 -0.1947 -0.1132
 4387W        W 7607   4.917  13.762   0.083  0.1799 -0.2039  0.0201
 4388W        W 7608  16.855  13.810   8.977 -0.1394  0.0704  0.3683
 4389W        W 7609   3.108   9.027   3.697 -0.0716  0.0553 -0.1026
 4390W        W 7610   7.296   9.715   1.532 -0.0930 -0.0424  0.2272
 4391W        W 7611  16.472  10.282   4.186  0.0626  0.0374  0.0685
 4392W        W 7612   0.158  17.842  15.892  0.0453  0.0420  0.3142
 4393W        W 7613   5.328  10.058  12.870 -0.0498 -0.1114  0.1619
 4394W        W 7614  15.479  12.679   8.212  0.1303  0.0882  0.1875
 4395W        W 7615  16.932  13.668   9.828 -0.1839 -0.2172 -0.1717
 4396W        W 7616   1.319  10.932   7.012  0.0245  0.1836 -0.2776
 4397W        W 7617   1.836  12.665  10.176 -0.0778  0.2718  0.1483
 4398W        W 7618  16.762   8.815   8.005  0.3692 -0.1740  0.1860
 4399W        W 7619   5.106  11.637   8.712  0.0461  0.2184  0.3486
 4400W        W 7620   4.267   6.056   3.358  0.0439  0.3034 -0.1769
 4401W        W 7621   0.136   1.615   1.637 -0.1492  0.1982  0.2424
 4402W        W 7622   3.395  14.335  17.584 -0.3654 -0.1799  0.2238
 4403W        W 7623   2.952  10.891  17.958 -0.0410 -0.3075 -0.0412
 4404W        W 7624  15.375   4.810   4.732  0.0198  0.4764  0.3952
 4405W        W 7625  16.137   7.112   7.314  0.0594  0.0745 -0.2413
 4406W        W 7626   0.231   9.870   6.128  0.0853  0.0238 -0.3443
 4407W        W 7627   4.630   6.625   1.845  0.1690  0.0988  0.0098
 4408W        W 7628   1.334   9.929   6.295 -0.1664 -0.0667 -0.1665
 4409W        W 7629   0.325   6.340   8.918  0.2541  0.0008  0.1652
 4410W        W 7630   4.858  16.170   8.155 -0.0420 -0.3148  0.3878
 4411W        W 7631  14.578  10.225   3.333 -0.2330 -0.3072 -0.0583
 4412W        W 7632   1.236   8.309  10.857  0.1747  0.0437  0.0247
 4413W        W 7633   1.298   1.054  10.783  0.0925  0.1910 -0.1137
 4414W        W 7634  16.681   7.984  17.807 -0.3902  0.4502  0.1403
 4415W        W 7635  15.614   8.239  11.431 -0.3415  0.1749  0.0151
 4416W        W 7636  16.125  16.154  11.781  0.3136 -0.4272 -0.4648
 4417W        W 7637  16.326   7.716   6.805  0.0084  0.0016  0.0520
 4418W        W 7638   8.063   8.687   8.799 -0.3222  0.0792 -0.2103
 4419W        W 7639   2.999   9.428   3.964  0.3056  0.0451  0.0066
 4420W        W 7640   7.034  10.945   1.671 -0.1938  0.1902 -0.0357
 4421W        W 7641   5.959  10.463   8.898  0.0194 -0.1251 -0.0995
 4422W        W 7642  16.926   4.537   4.253 -0.1837 -0.3231  0.1986
 4423W        W 7643   0.014   8.795  15.764 -0.4011  0.0263  0.1950
 4424W        W 7644  16.164   0.891  13.557 -0.2716 -0.1860 -0.1354
 4425W        W 7645  15.387   4.642   8.175  0.0070 -0.1128  0.3433
 4426W        W 7646   3.962   4.312   2.880 -0.0582 -0.0810  0.0239
 4427W        W 7647  17.136   9.677  15.062 -0.0119  0.1476 -0.0602
 4428W        W 7648   4.340   9.698   4.778  0.0490  0.1394 -0.1278
 4429W        W 7649  16.710   3.513  15.840 -0.1001  0.0401 -0.0608
 4430W        W 7650   4.960   6.890   6.707  0.0525  0.0844  0.0260
 4431W        W 7651  16.861  14.474   9.136 -0.3468 -0.1010  0.0579
 4432W        W 7652  11.471   9.054   1.591 -0.4772  0.0120  0.1022
 4433W        W 7653  10.619  12.073   6.092 -0.2984  0.1997  0.0572
 4434W        W 7654   2.352  15.243  10.824 -0.2591 -0.3438  0.2445
 4435W        W 7655  17.552  13.459   6.002  0.3494 -0.2028  0.3584
 4436W        W 7656   0.731  12.807   2.804  0.2701  0.1299  0.1547
 4437W        W 7657  16.928   8.592  10.286 -0.1178 -0.0920 -0.1311
 4438W        W 7658   0.383  15.101   4.070  0.1399 -0.4426  0.0820
 4439W        W 7659   5.834  11.411  17.138 -0.2539 -0.2390  0.1865
 4440W        W 7660  14.589  10.590   4.714  0.2591  0.1770  0.1512
 4441W        W 7661   0.205  13.121   6.945  0.1284 -0.2077  0.1372
 4442W        W 7662   3.508  16.294   3.262 -0.0536 -0.1320 -0.1448
 4443W        W 7663   0.835  14.342   9.127  0.1153 -0.2276 -0.1356
 4444W        W 7664  17.175  13.080   3.565  0.2096 -0.1614  0.2424
 4445W        W 7665   1.828   3.486   1.602 -0.0612  0.1996  0.2296
 4446W        W 7666   7.695   5.137  14.692 -0.0283 -0.1004  0.3159
 4447W        W 7667   2.819  10.301   8.218 -0.2513 -0.1240  0.1041
 4448W        W 7668  16.787   8.149  10.953 -0.0153  0.1947  0.0716
 4449W        W 7669   3.692  11.301   2.938  0.0527 -0.0331  0.2961
 4450W        W 7670  13.420  12.675   5.952  0.0099 -0.0022  0.2258
 4451W        W 7671   4.270   7.865   1.928  0.0917 -0.1132  0.0638
 4452W        W 7672   3.607   6.403  18.243 -0.1599  0.2088 -0.0409
 4453W        W 7673   0.902  11.883   8.701  0.1821 -0.2110 -0.1334
 4454W        W 7674  18.052  14.814   9.517 -0.0455  0.1269 -0.2832
 4455W        W 7675   6.891   4.668   3.953 -0.0432 -0.2934  0.1099
 4456W        W 7676  15.789   8.003   4.932  0.0712 -0.2523 -0.3003
 4457W        W 7677   3.424  11.135  15.381 -0.0719 -0.0718  0.1069
 4458W        W 7678   1.041   2.009   9.417  0.3304  0.1741 -0.2291
 4459W        W 7679  17.441  11.310   0.567  0.3955 -0.1263  0.1201
 4460W        W 7680   3.120  14.577   9.522  0.0221 -0.0944 -0.0877
 4461W        W 7681   7.215  13.720  12.656  0.1702 -0.2647 -0.0664
 4462W        W 7682   3.792   6.663   2.082 -0.1094  0.0867  0.0531
 4463W        W 7683   4.030  13.047   3.464  0.4658 -0.2268  0.1104
 4464W        W 7684  13.073   9.832   5.520 -0.1288 -0.3595  0.0398
 4465W        W 7685  17.548  14.529  17.228  0.3215  0.1829  0.1127
 4466W        W 7686   8.746  10.844   5.579  0.1690  0.3397 -0.3371
 4467W        W 7687   4.233   9.924   5.193  0.1029 -0.0890  0.2317
 4468W        W 7688  17.592   5.375   5.816  0.1958  0.1199  0.0954
 4469W        W 7689   3.851  12.027   6.899  0.0555  0.1551 -0.0149
 4470W        W 7690  16.562   6.491   5.373  0.1586 -0.0696  0.0280
 4471W        W 7691   1.471  15.334   1.586 -0.0175 -0.1300 -0.4598
 4472W        W 7692   7.547   9.778   3.715  0.1389  0.0769 -0.4065
 4473W        W 7693  14.357   4.626   0.092 -0.1967 -0.1287  0.0901
 4474W        W 7694   6.868   9.870   6.843  0.2521  0.0780  0.0477
 4475W        W 7695  15.839  10.080   3.287  0.0566 -0.3712  0.0169
 4476W        W 7696   4.676   9.316   1.623 -0.0533 -0.4265 -0.0828
 4477W        W 7697  14.283  11.207   3.269 -0.3401  0.3383 -0.1374
 4478W        W 7698   1.761  10.490   7.084  0.1761 -0.1560  0.2584
 4479W        W 7699  15.902   9.449   9.955 -0.3353  0.2673 -0.2193
 4480W        W 7700   8.026  10.778  11.056  0.4004 -0.1620 -0.0525
 4481W        W 7701  14.990  11.918  15.227 -0.1408  0.0213  0.4553
 4482W        W 7702  17.937   7.574  10.513 -0.2398  0.2209  0.2695
 4483W        W 7703   5.276  10.814  10.754 -0.3690 -0.2388  0.2426
 4484W        W 7704   2.048  12.117  10.869 -0.1931  0.4647  0.1578
 4485W        W 7705  17.137   0.806   5.873 -0.3915  0.0159 -0.2826
 4486W        W 7706   7.656  10.532   2.646 -0.0885  0.0100 -0.0997
 4487W        W 7707   2.435  11.633   3.309 -0.1551  0.1005 -0.1061
 4488W        W 7708  13.561  10.019   2.055  0.0241  0.1193  0.3573
 4489W        W 7709  12.777  12.793   2.343 -0.2640  0.0297 -0.0205
 4490W        W 7710   3.390  10.844   1.601  0.0962  0.1956  0.3897
 4491W        W 7711   4.348   8.699   7.742  0.0366  0.0320  0.0097
 4492W        W 7712   0.200  16.519   5.428 -0.1555  0.1717 -0.2413
 4493W        W 7713  17.116   5.618   0.520 -0.1888  0.1935 -0.1041
 4494W        W 7714   7.187  14.558   7.176 -0.1653 -0.2767 -0.1170
 4495W        W 7715   5.143  17.672   4.178  0.0530  0.0324  0.2944
 4496W        W 7716   2.114  16.692  12.001  0.0307 -0.1758 -0.1166
 4497W        W 7717   2.779  10.800  10.834 -0.0409 -0.2741 -0.2288
 4498W        W 7718  16.988  12.367   5.286  0.0212 -0.1975 -0.0686
 4499W        W 7719   0.924   9.077   6.261  0.2497 -0.3589 -0.2086
 4500W        W 7720   0.944   6.725  13.590  0.0368  0.2540  0.0524
 4501W        W 7721   2.800   0.034   0.276 -0.0477  0.0098  0.1489
 4502W        W 7722   7.069   6.085  11.272  0.0065  0.0573 -0.0561
 4503W        W 7723   6.023  13.353   7.315 -0.1046 -0.0635 -0.1339
 4504W        W 7724   8.212   4.197   3.354  0.0516  0.2212  0.3302
 4505W        W 7725   1.576  12.633   3.440 -0.0128 -0.0636  0.3145
 4506W        W 7726  16.519   4.609   5.549  0.0331 -0.0339 -0.0239
 4507W        W 7727   7.246   5.489   7.573  0.0462  0.1767  0.0336
 4508W        W 7728   1.918  13.469   2.889  0.2341  0.1935 -0.1510
 4509W        W 7729   5.979  15.294   8.973 -0.1995 -0.1597 -0.1069
 4510W        W 7730   5.516  10.481   3.665  0.0382  0.0755  0.2292
 4511W        W 7731  15.631  11.955   6.050  0.1403  0.2088 -0.0436
 4512W        W 7732   3.350   5.393   0.075 -0.1053  0.2815  0.1189
 4513W        W 7733   6.988  15.945  17.431  0.0055 -0.0453 -0.0353
 4514W        W 7734   2.739   7.146   9.416 -0.3402 -0.2464 -0.4845
 4515W        W 7735  18.239   7.082   3.846  0.0685 -0.1708  0.0181
 4516W        W 7736  18.019   6.752  11.002  0.0504 -0.0202 -0.3185
 4517W        W 7737   3.480  17.635  10.693  0.1302 -0.1733  0.0283
 4518W        W 7738   1.669   6.590  14.858 -0.0076 -0.0948  0.2098
 4519W        W 7739  17.920  10.278   5.002 -0.3491 -0.0859  0.1823
 4520W        W 7740   1.971   8.111   7.829 -0.1186 -0.0066 -0.0841
 4521W        W 7741   2.225   7.707   7.873  0.1787  0.1857  0.0316
 4522W        W 7742  15.200  11.024  11.785  0.1076  0.0898 -0.2244
 4523W        W 7743  12.388  11.450   2.648  0.1763 -0.0204  0.0784
 4524W        W 7744   6.979  11.410   3.695 -0.2960  0.1750 -0.1076
 4525W        W 7745   4.824  12.052   3.709  0.3381  0.0144  0.2004
 4526W        W 7746   2.906  13.329   8.330 -0.2167 -0.0005 -0.0777
 4527W        W 7747   2.515   8.631  12.885 -0.1058  0.0923  0.0169
 4528W        W 7748   5.885  12.469   5.437  0.1057  0.1662  0.0331
 4529W        W 7749   3.929   3.647   4.104  0.1906 -0.1481  0.3116
 4530W        W 7750  12.568   8.725   7.504 -0.1998 -0.3665 -0.1992
 4531W        W 7751  14.891   4.222  11.209  0.3841  0.0400  0.1966
 4532W        W 7752  16.682   8.839   7.425  0.3288 -0.2275 -0.1937
 4533W        W 7753   4.263   4.728  12.295  0.0484 -0.1678  0.0325
 4534W        W 7754   5.439   5.142   5.602  0.1017 -0.1140  0.0248
 4535W        W 7755   8.048  10.017   8.050 -0.1821  0.2854 -0.1193
 4536W        W 7756   1.552  15.709  17.059 -0.0574  0.1969  0.2379
 4537W        W 7757   7.172  12.617   6.557 -0.2124 -0.1116 -0.1003
 4538W        W 7758  10.646  11.772  16.917 -0.0765  0.0919  0.0206
 4539W        W 7759   3.344   6.893  10.759  0.1478 -0.0402 -0.1009
 4540W        W 7760   1.431   7.829   6.630  0.4677 -0.1808  0.0189
 4541W        W 7761   9.611   8.684   0.028 -0.0406  0.2407  0.2351
 4542W        W 7762   6.184  17.344   0.693  0.0354  0.0048 -0.1828
 4543W        W 7763   7.182   8.584  11.601 -0.0834 -0.0253 -0.3257
 4544W        W 7764   6.446  12.824   2.955 -0.2293 -0.1713 -0.0099
 4545W        W 7765   1.122   6.983  16.832  0.1342  0.3471 -0.3332
 4546W        W 7766   4.562   7.364   8.879  0.2055  0.1412  0.0847
 4547W        W 7767   7.093  11.332  10.642 -0.1017 -0.1639 -0.0778
 4548W        W 7768   2.045   4.792   8.236 -0.3639 -0.0367 -0.0188
 4549W        W 7769   3.818   3.023   8.482 -0.1097 -0.0070 -0.0125
 4550W        W 7770   3.715  12.471   7.074 -0.1092 -0.2557  0.1295
 4551W        W 7771   5.075   9.183   5.285 -0.1438 -0.0591 -0.0177
 4552W        W 7772   2.451   6.597   6.501  0.1133 -0.3451 -0.0018
 4553W        W 7773   2.725   9.650  12.206 -0.1097  0.2832  0.1440
 4554W        W 7774   4.539   7.462  17.874  0.2296 -0.4543  0.1334
 4555W        W 7775   3.060  10.815   8.669  0.0762 -0.0968  0.0502
 4556W        W 7776   0.157   7.929   7.879  0.0314  0.0619 -0.2541
 4557W        W 7777   5.424  11.477  18.052 -0.2700 -0.0721  0.0572
 4558W        W 7778  15.905   1.740  11.329 -0.0543  0.0844  0.2028
 4559W        W 7779  14.890  13.034  11.364 -0.0848 -0.1479 -0.1198
 4560W        W 7780   6.465   8.837  10.882 -0.0536 -0.1045  0.1299
 4561W        W 7781   9.837  11.110   0.737 -0.0254 -0.0061 -0.0290
 4562W        W 7782   5.515  10.714   0.252  0.1407  0.1188 -0.2806
 4563W        W 7783   2.621   0.456  10.658 -0.1502  0.0286 -0.0011
 4564W        W 7784   5.439   7.998   9.717 -0.0232  0.1284 -0.1812
 4565W        W 7785  16.630  15.474  14.135 -0.0078  0.0860 -0.0815
 4566W        W 7786   6.833   7.662  10.119  0.2062 -0.1395 -0.1895
 4567W        W 7787   2.396  13.138   0.083  0.0888  0.0473  0.0956
 4568W        W 7788   5.803   9.480   8.861 -0.1305 -0.1566  0.0443
 4569W        W 7789   7.566  11.085   4.397  0.0719  0.0560  0.0058
 4570W        W 7790   3.892  11.139  16.625  0.0795  0.0594 -0.0885
 4571W        W 7791   8.593   8.459   8.684  0.1009  0.1377 -0.0393
 4572W        W 7792   5.500  12.397   4.043  0.0268  0.2527 -0.0117
 4573W        W 7793   3.271   5.910   3.015 -0.1583  0.1064  0.2094
 4574W        W 7794   4.527   9.551   4.244  0.1553  0.1132  0.1093
 4575W        W 7795   4.231   8.498   8.232  0.0221 -0.0987  0.3088
 4576W        W 7796  15.062  17.038   3.273 -0.2091  0.0888  0.1340
 4577W        W 7797   3.598  13.789   7.317  0.1635  0.0430 -0.1230
 4578W        W 7798   8.434  17.594  16.518 -0.2585 -0.1330 -0.0076
 4579W        W 7799   3.875   4.770   5.005  0.0623 -0.0296 -0.2011
 4580W        W 7800   5.147   7.002  13.697  0.0997  0.2464  0.1833
 4581W        W 7801  17.821   4.639   3.837  0.3487  0.3550 -0.0295
 4582W        W 7802   7.077  10.353   3.110 -0.0070  0.0235 -0.1389
 4583W        W 7803   1.601  11.891   6.362  0.3544  0.0431  0.3099
 4584W        W 7804   2.635   8.441  12.413  0.3705 -0.0296 -0.0180
 4585W        W 7805  16.538   8.873  10.423 -0.0415  0.3673  0.0079
 4586W        W 7806  14.054   4.003   9.028  0.3497 -0.3535 -0.1195
 4587W        W 7807  16.910  13.119   4.673 -0.1198 -0.1441 -0.0811
 4588W        W 7808   3.017   1.606   0.561  0.0540 -0.2018 -0.2265
 4589W        W 7809   3.858  13.300   0.910 -0.1522 -0.2339  0.1493
 4590W        W 7810   0.347  14.521   5.722  0.0298  0.2502 -0.0961
 4591W        W 7811  14.351  16.699  11.170 -0.1006  0.0844 -0.0601
 4592W        W 7812   0.562   8.169   3.264  0.0672  0.1443 -0.1683
 4593W        W 7813   5.377   1.373  14.321 -0.3655  0.4391 -0.1942
 4594W        W 7814  16.997   4.259   4.772 -0.3673 -0.1658 -0.2206
 4595W        W 7815   6.399   2.195   6.740 -0.1108  0.2993 -0.3735
 4596W        W 7816  17.912   9.764   7.039  0.0585  0.1805 -0.0432
 4597W        W 7817  17.221  13.237   7.427 -0.1824 -0.0622  0.1197
 4598W        W 7818   7.352   8.569   8.585 -0.0275 -0.1150 -0.1383
 4599W        W 7819   7.682   6.254   8.677  0.1658  0.3298  0.1727
 4600W        W 7820   3.277  15.743   0.370 -0.0314  0.0860 -0.1134
 4601W        W 7821  17.383  11.031   5.820 -0.3433 -0.4086  0.1045
 4602W        W 7822   2.663   7.389   6.697  0.1196  0.1268  0.2870
 4603W        W 7823   4.809  15.622  13.541  0.0076 -0.1917 -0.0446
 4604W        W 7824  13.439   6.186   0.890 -0.0935 -0.0529 -0.0481
 4605W        W 7825   4.096   9.909   5.708  0.1806  0.1065  0.0528
 4606W        W 7826  18.200  15.347   8.500  0.0020 -0.2611 -0.0644
 4607W        W 7827   7.011   6.179   9.005  0.1151  0.0216  0.1414
 4608W        W 7828   1.557  11.776  11.463  0.0765 -0.1842 -0.2096
 4609W        W 7829   6.481   9.750   6.479  0.2617  0.0520 -0.0296
 4610W        W 7830   8.482   7.712  12.779 -0.1040  0.0604  0.0330
 4611W        W 7831   5.957  15.227   1.583 -0.1174 -0.1139  0.2463
 4612W        W 7832   6.022  12.608   1.700 -0.3078 -0.3007  0.0285
 4613W        W 7833   5.923  14.183   7.756 -0.0009 -0.1924 -0.1506
 4614W        W 7834   4.026  17.944   5.740 -0.1476  0.2364  0.0490
 4615W        W 7835  14.561   5.976  10.352 -0.0110  0.3156 -0.2811
 4616W        W 7836  14.523  14.254   5.443  0.2481 -0.0551 -0.0709
 4617W        W 7837   4.700  12.824   6.453 -0.0984 -0.0447 -0.4342
 4618W        W 7838   1.661   8.478  10.157  0.2361 -0.0277  0.2086
 4619W        W 7839  10.860   9.916  13.181 -0.4459  0.0991  0.0840
 4620W        W 7840   9.101  12.052  12.109  0.0479 -0.2353  0.4149
 4621W        W 7841   1.101   1.668   8.489 -0.0091 -0.2543  0.0666
 4622W        W 7842   1.477   9.874   9.585  0.0545  0.2269 -0.2612
 4623W        W 7843  17.306  11.206   8.268  0.0737  0.1166  0.0849
 4624W        W 7844   5.059  14.897   3.198  0.0527  0.0018 -0.0147
 4625W        W 7845   7.008   5.472   4.065 -0.0444  0.0903 -0.3473
 4626W        W 7846   2.101  16.257   6.687  0.1116 -0.0054  0.2728
 4627W        W 7847   0.308  13.928   1.379  0.0834 -0.2813  0.2047
 4628W        W 7848   1.138  13.059  14.933  0.0595 -0.1357 -0.0410
 4629W        W 7849   1.695  16.197  17.890 -0.2413 -0.2038 -0.2868
 4630W        W 7850   0.765  10.291  15.467 -0.1275 -0.2365  0.0906
 4631W        W 7851  18.062  11.072   9.329  0.0180 -0.1597  0.0456
 4632W        W 7852   0.652  11.530   9.451 -0.0066  0.0839  0.0008
 4633W        W 7853   0.541   9.908   2.883 -0.0182 -0.0445  0.0793
 4634W        W 7854   2.710  12.410   4.523 -0.2605 -0.1311 -0.2003
 4635W        W 7855   9.106   7.777  10.354  0.0755  0.1031 -0.2842
 4636W        W 7856   2.613  12.777  10.679  0.2166  0.0061  0.1243
 4637W        W 7857   2.164   7.059   8.589  0.3221 -0.3934 -0.1730
 4638W        W 7858   3.642   6.212   6.503 -0.1413 -0.0116  0.0445
 4639W        W 7859   1.556  10.551  11.911  0.0246 -0.0734 -0.1664
 4640W        W 7860   4.492   6.281   9.544  0.1350 -0.2362 -0.4592
 4641W        W 7861  16.042  12.371   5.139 -0.0331 -0.0067  0.0302
 4642W        W 7862   2.168  10.802   4.634  0.2619  0.0501  0.1864
 4643W        W 7863   2.767   3.767   6.814  0.0329  0.0833  0.0586
 4644W        W 7864   6.624   7.145   5.422 -0.2213  0.0635  0.0893
 4645W        W 7865   2.457   7.371   9.817 -0.0083  0.0769  0.0405
 4646W        W 7866   8.067  17.381   7.971 -0.2858 -0.1764  0.0164
 4647W        W 7867  18.245   5.470   4.917  0.1125 -0.2758  0.0364
 4648W        W 7868  15.977   8.655   4.585 -0.1203  0.2139  0.0995
 4649W        W 7869   1.388  17.289   7.474 -0.1222  0.3841  0.0701
 4650W        W 7870  10.211  11.811   5.501 -0.0696 -0.0073  0.0346
 4651W        W 7871   1.312  15.173  17.221 -0.0323  0.2923  0.2365
 4652W        W 7872  10.159   4.582   5.979 -0.1272 -0.0137  0.2104
 4653W        W 7873   6.424   8.686   7.957  0.1292  0.0698  0.2044
 4654W        W 7874  15.160  14.735   7.392 -0.1233 -0.0386 -0.1912
 4655W        W 7875   2.918  15.119   2.799 -0.2873 -0.0853  0.1750
 4656W        W 7876   8.554   5.388  11.305 -0.0562 -0.4677 -0.0704
 4657W        W 7877  18.210   9.514   7.361  0.0125  0.0456 -0.0165
 4658W        W 7878  15.756  12.115  13.997 -0.1915  0.0204  0.0554
 4659W        W 7879   7.025  11.192   8.805  0.2004 -0.1232  0.0379
 4660W        W 7880   2.460   5.036  10.378 -0.3881  0.0697  0.1388
 4661W        W 7881   5.763   7.529   7.498  0.1180 -0.0667 -0.3932
 4662W        W 7882   5.596  13.557   3.600  0.0557 -0.0155 -0.0337
 4663W        W 7883   2.586   9.972   6.868  0.2836  0.1197  0.0821
 4664W        W 7884  10.546   3.322  17.132  0.2198  0.0572 -0.0872
 4665W        W 7885   4.857   5.943   6.738 -0.0992  0.1521 -0.2307
 4666W        W 7886  16.966   8.822   5.746 -0.0188  0.0331 -0.0821
 4667W        W 7887  16.580   8.090   8.669  0.0848  0.1307 -0.0841
 4668W        W 7888   8.709   8.807   1.924 -0.0668  0.2707  0.0129
 4669W        W 7889   9.121   8.610  17.271  0.2855  0.4486  0.0497
 4670W        W 7890   4.546  13.964   7.090  0.0781 -0.0400 -0.0306
 4671W        W 7891  16.711  14.184   5.118 -0.1052 -0.2120 -0.0583
 4672W        W 7892   1.596   4.277   9.035  0.0117  0.1435 -0.0647
 4673W        W 7893   8.498   9.383  16.833 -0.2580  0.0722  0.1512
 4674W        W 7894   3.494  13.035  10.558  0.2398  0.1539  0.0205
 4675W        W 7895   4.544   3.842   3.911  0.0859 -0.0504 -0.0869
 4676W        W 7896   3.744  12.693   9.665 -0.2508 -0.3829 -0.2385
 4677W        W 7897   4.483  12.892   2.518 -0.0328  0.2343  0.0119
 4678W        W 7898   4.042   8.390   0.435  0.0542  0.0348  0.0648
 4679W        W 7899   7.598   9.645  10.669 -0.1555  0.0314  0.3232
 4680W        W 7900   5.416   7.574  16.298 -0.0900  0.2466  0.0583
 4681W        W 7901   3.562   3.574  17.321  0.2275  0.3580 -0.0776
 4682W        W 7902  15.458   7.227   4.709 -0.0981 -0.4027  0.3208
 4683W        W 7903   2.114   8.435  11.724 -0.2541 -0.2659 -0.0542
 4684W        W 7904   5.892   7.644   9.846 -0.0287  0.0072 -0.1557
 4685W        W 7905   4.652  13.915  13.571  0.1546 -0.2154  0.3120
 4686W        W 7906   3.367  12.814   4.268 -0.1463 -0.0904 -0.5155
 4687W        W 7907  10.984  14.984  11.884 -0.2832  0.2324  0.0448
 4688W        W 7908   2.932   3.879   4.795  0.0093  0.3495  0.2372
 4689W        W 7909   1.333  12.139  11.072  0.0865 -0.0731  0.1744
 4690W        W 7910   2.532   2.783   2.657 -0.2524  0.2678  0.0797
 4691W        W 7911   0.275  14.281   7.785  0.0159 -0.0893  0.2896
 4692W        W 7912   0.450   7.266   3.636  0.3048 -0.2491 -0.1468
 4693W        W 7913   4.871  16.531   3.492 -0.0834 -0.1632 -0.1266
 4694W        W 7914  13.851   8.120  10.939  0.1974 -0.0897 -0.1530
 4695W        W 7915   6.889   8.561   3.716 -0.0648  0.1363  0.2102
 4696W        W 7916   2.671  10.880  12.137  0.0904 -0.1999  0.1331
 4697W        W 7917  10.506  11.107  12.433 -0.0051 -0.1005  0.0381
 4698W        W 7918  17.253  14.587   5.950 -0.2121  0.1171 -0.1261
 4699W        W 7919   0.911   5.647  16.750  0.1061  0.2416 -0.1852
 4700W        W 7920   8.552   6.089   7.478  0.1973  0.1135  0.2702
 4701W        W 7921   7.765   7.463   7.355 -0.1330  0.2019 -0.0469
 4702W        W 7922   7.061  12.048   9.485  0.0428  0.3038  0.0339
 4703W        W 7923   5.147   7.934   1.401  0.3120 -0.1314 -0.4114
 4704W        W 7924  15.771   2.906  11.993  0.1018 -0.0476 -0.0271
 4705W        W 7925  15.327   8.198   3.203  0.2333 -0.4930 -0.0839
 4706W        W 7926   5.860  15.212  11.781  0.1263  0.0490 -0.1769
 4707W        W 7927   2.444   8.620   8.611  0.0866 -0.2908 -0.1545
 4708W        W 7928   3.896   5.048   6.823  0.2294  0.0720  0.0758
 4709W        W 7929  18.008   9.234   3.534 -0.1124 -0.1016 -0.0035
 4710W        W 7930  17.937  11.021   4.246 -0.0169 -0.0573  0.2445
 4711W        W 7931   6.737  11.640   8.881 -0.4598  0.0439 -0.1456
 4712W        W 7932   4.568   8.573   6.328  0.2945  0.0698 -0.0928
 4713W        W 7933   2.874  12.489   0.814  0.0175  0.0148  0.1559
 4714W        W 7934   3.005   5.024   5.509 -0.1458  0.0788 -0.0070
 4715W        W 7935   6.122  12.929  16.891  0.1039  0.1153  0.1274
 4716W        W 7936   5.158  13.522   6.055 -0.0922 -0.1079 -0.2145
 4717W        W 7937   2.878  10.384   6.358  0.0152 -0.3469  0.0350
 4718W        W 7938   4.326  10.892   1.404  0.0175 -0.0498 -0.0201
 4719W        W 7939   1.081  16.300   9.225  0.0528  0.2597 -0.1986
 4720W        W 7940   4.519  12.071   2.362  0.2175 -0.0588 -0.0743
 4721W        W 7941  17.067  13.738   5.563 -0.1429  0.1425  0.2153
 4722W        W 7942  15.422  11.044   3.711 -0.1584  0.1938  0.0162
 4723W        W 7943   4.927   9.342   2.011 -0.1420  0.0161  0.1217
 4724W        W 7944  12.975   8.907   5.813 -0.0689 -0.1288  0.0763
 4725W        W 7945   7.309   6.689  12.419 -0.0326  0.0323 -0.4646
 4726W        W 7946   3.775  11.547  10.891 -0.1570 -0.2385  0.1428
 4727W        W 7947   6.308   4.764   7.510  0.1253 -0.0766  0.0142
 4728W        W 7948   3.011  11.596   3.847  0.1525 -0.0129  0.1559
 4729W        W 7949   1.570  10.636   8.636 -0.1310 -0.0013 -0.0206
 4730W        W 7950   5.586   9.312   9.872 -0.0933  0.1826 -0.1324
 4731W        W 7951   3.590   4.144  15.182 -0.0581 -0.0305 -0.1510
 4732W        W 7952   3.437   9.943   7.005 -0.2114 -0.2265 -0.0377
 4733W        W 7953   6.477  12.579   9.643  0.1406 -0.0654  0.0255
 4734W        W 7954  17.371  13.290   7.944  0.1403  0.1325  0.1235
 4735W        W 7955   5.279  12.144   4.565 -0.2499 -0.0895  0.1129
 4736W        W 7956   0.532   3.113   9.575  0.0916  0.2042 -0.0371
 4737W        W 7957   0.478   7.810  11.733 -0.2008  0.0142  0.0206
 4738W        W 7958  17.905   9.309   0.276 -0.2220  0.1237  0.1297
 4739W        W 7959   6.750   7.561  11.385 -0.0609  0.2238  0.1048
 4740W        W 7960  17.608  12.766   6.558 -0.1576 -0.1561  0.3182
 4741W        W 7961  16.531  14.946  14.264  0.3774 -0.0556  0.1355
 4742W        W 7962   4.506  13.870   8.151  0.1072 -0.0815 -0.1104
 4743W        W 7963   4.860   5.484   8.225  0.1589 -0.1566 -0.3231
 4744W        W 7964  14.185   9.090   7.323  0.1144  0.1403  0.0997
 4745W        W 7965   0.990   1.032  12.560  0.0302 -0.0939  0.2526
 4746W        W 7966   9.769   7.017   5.089 -0.0129  0.0073 -0.2580
 4747W        W 7967   9.545  17.157   5.390  0.4073  0.0641 -0.3576
 4748W        W 7968   6.346   4.345  14.435  0.3090 -0.0306  0.3959
 4749W        W 7969  13.811   6.977   4.336  0.3431 -0.4270 -0.0455
 4750W        W 7970  10.249   9.390  18.006 -0.1648 -0.0794 -0.1276
 4751W        W 7971   8.186   8.691   6.654  0.0303 -0.1049  0.0024
 4752W        W 7972   1.586   5.428   6.642 -0.1374  0.1906 -0.0746
 4753W        W 7973  10.098   3.463   3.675 -0.0822 -0.1005  0.0751
 4754W        W 7974   1.460  16.523   7.161 -0.2310 -0.0803  0.1638
 4755W        W 7975   5.854  18.103   2.048 -0.2204 -0.1148 -0.0725
 4756W        W 7976   1.435   8.245  11.335 -0.1187 -0.1592 -0.0319
 4757W        W 7977   3.774   7.637  13.373  0.0331 -0.0491 -0.1338
 4758W        W 7978   4.400  17.750   4.140  0.0157  0.0831 -0.0428
 4759W        W 7979   1.571   9.327   3.928  0.0824 -0.0364 -0.5141
 4760W        W 7980   5.330   9.917  11.578  0.0722 -0.3789 -0.1281
 4761W        W 7981  15.016   6.432   4.922  0.2023  0.1276 -0.0529
 4762W        W 7982  16.394  10.754   6.295 -0.2328 -0.0268  0.1578
 4763W        W 7983   1.241   6.343  10.074  0.3418 -0.1681 -0.0442
 4764W        W 7984  11.382  13.314   7.314 -0.0344 -0.3688 -0.2471
 4765W        W 7985   0.430   1.573   7.630  0.1086  0.1618 -0.0685
 4766W        W 7986   0.156  13.659   8.705  0.0947 -0.1290 -0.0182
 4767W        W 7987   8.901   6.783   7.018 -0.0012 -0.0691  0.2081
 4768W        W 7988   0.575   7.870   7.522 -0.0327  0.0090 -0.1389
 4769W        W 7989  17.514  12.430  13.796  0.2278 -0.0353  0.1263
 4770W        W 7990  12.537  10.567   6.657 -0.0345 -0.0452  0.1454
 4771W        W 7991   6.450  14.314  10.976 -0.2335 -0.0026  0.3167
 4772W        W 7992  10.749  11.643   3.455 -0.2550 -0.1139  0.2753
 4773W        W 7993   5.147   6.508   5.901  0.1781  0.2426  0.2878
 4774W        W 7994   1.903   4.588  13.627  0.1228  0.0117  0.3846
 4775W        W 7995  14.190   9.878   6.273  0.0594  0.2909 -0.0165
 4776W        W 7996  15.737  13.159  16.523  0.2533  0.1096 -0.0146
 4777W        W 7997  17.563  11.910   6.221 -0.0496  0.3049 -0.1753
 4778W        W 7998   7.155   6.854   4.118 -0.3666 -0.0044 -0.1518
 4779W        W 7999  18.149  11.810  12.887  0.1027  0.0837 -0.4102
 4780W        W 8000   2.665  13.498  13.556  0.0224 -0.0235  0.0626
 4781W        W 8001   7.123   4.960   6.353 -0.1057  0.1668  0.1549
 4782W        W 8002   1.968  13.163  17.600  0.2127  0.2198  0.2018
 4783W        W 8003   4.099   8.624   6.025  0.1908 -0.0835  0.0434
 4784W        W 8004  17.588  10.871  10.716 -0.1601  0.0524  0.0187
 4785W        W 8005   9.727  11.080   9.848  0.2195 -0.0841  0.0951
 4786W        W 8006   6.435  13.157  13.805  0.6311  0.4403 -0.0814
 4787W        W 8007   5.045  11.339  15.427  0.1330  0.0494 -0.0968
 4788W        W 8008  15.970   4.234   0.644  0.0610 -0.1435  0.2924
 4789W        W 8009   2.556   8.037  15.465 -0.1355 -0.0310 -0.2432
 4790W        W 8010  18.082   3.299  14.341 -0.0616  0.0142  0.2234
 4791W        W 8011  17.277   7.456  11.118 -0.0217 -0.0781 -0.1260
 4792W        W 8012   3.347   8.983  10.516 -0.0223 -0.2055  0.3123
 4793W        W 8013   2.607   0.956  16.197 -0.1616 -0.2472  0.1685
 4794W        W 8014   1.155  14.925   9.313 -0.0820  0.0648 -0.0437
 4795W        W 8015   9.301  18.217   5.504 -0.3287 -0.1117 -0.2258
 4796W        W 8016   0.910  14.336  13.907  0.1359 -0.0614  0.0647
 4797W        W 8017   1.359   6.479   8.481  0.1525 -0.2181  0.1003
 4798W        W 8018   8.509   7.792  11.922 -0.1838 -0.0035 -0.0724
 4799W        W 8019  15.709   5.894   2.310 -0.2219  0.2455  0.2143
 4800W        W 8020  11.923   5.487  14.627 -0.0293  0.0548  0.2201
 4801W        W 8021   1.424   6.122   7.150  0.1179 -0.0711 -0.2772
 4802W        W 8022   3.160   4.583   6.768  0.1905  0.2049 -0.3680
 4803W        W 8023  11.176   7.263   5.445 -0.1473 -0.1020  0.0037
 4804W        W 8024   1.906   6.648   9.545  0.1993 -0.0244 -0.1483
 4805W        W 8025   6.659   9.680   6.031 -0.0354  0.0011  0.0358
 4806W        W 8026   5.349   9.644   8.715  0.1290  0.0841 -0.3623
 4807W        W 8027   6.186   8.442  11.176  0.0723  0.2166  0.1235
 4808W        W 8028   1.726   8.938   6.050 -0.0992  0.0709  0.0954
 4809W        W 8029   2.169  10.950   8.715 -0.1374 -0.0795 -0.0350
 4810W        W 8030   2.350   4.610  12.187 -0.1197  0.0931 -0.0886
 4811W        W 8031  17.513  10.976  15.850  0.1904  0.1453 -0.0007
 4812W        W 8032   5.990  11.603   5.803  0.1450  0.2864 -0.0123
 4813W        W 8033  13.964   3.168  12.192 -0.0823  0.2760 -0.0426
 4814W        W 8034   2.057  13.389  18.137 -0.2222  0.2049  0.2174
 4815W        W 8035   0.598   8.242   5.729  0.1700 -0.1866  0.0893
 4816W        W 8036  12.490  12.385   0.559 -0.2078 -0.0656 -0.1986
 4817W        W 8037   5.304   2.006  12.026 -0.0487 -0.0550  0.3060
 4818W        W 8038  13.713  11.830   7.980  0.2736 -0.2788 -0.0091
 4819W        W 8039   6.672   8.620   5.211 -0.0920  0.1507 -0.2375
 4820W        W 8040   8.120   0.562   1.070 -0.1483 -0.2354  0.0028
 4821W        W 8041  10.140   8.075   5.286 -0.0682  0.1479  0.0570
 4822W        W 8042   3.968   5.505  10.551 -0.1401  0.0838 -0.0890
 4823W        W 8043   1.667  15.474   9.339  0.0686  0.1214  0.0836
 4824W        W 8044   1.836  12.627   2.645  0.1192  0.0262 -0.0550
 4825W        W 8045   0.322  12.205  15.625  0.0529  0.1982  0.2012
 4826W        W 8046  11.189   3.542   5.826  0.0135  0.0236 -0.1737
 4827W        W 8047  16.903   9.452   4.917 -0.3500  0.1287  0.2961
 4828W        W 8048   2.414  11.398   9.091 -0.2346  0.1687  0.0456
 4829W        W 8049   7.459  12.462   7.010 -0.0340  0.0556 -0.1358
 4830W        W 8050  13.919  10.770  11.815 -0.1604 -0.1260 -0.1178
 4831W        W 8051   1.383   8.219   9.864  0.0441  0.0496  0.4057
 4832W        W 8052   8.258   4.447   5.945 -0.1212 -0.1023  0.2353
 4833W        W 8053   1.770   9.905   3.527  0.3585  0.0479  0.2323
 4834W        W 8054   9.405   8.659   9.818 -0.1075  0.2704 -0.3207
 4835W        W 8055   5.661   5.658   7.388  0.1749  0.1953 -0.1986
 4836W        W 8056   9.127   7.053  13.850 -0.2090  0.0342  0.0015
 4837W        W 8057  17.207  15.395  12.850 -0.0564 -0.0312  0.1096
 4838W        W 8058   2.724  13.553   9.624  0.0826  0.1529 -0.0618
 4839W        W 8059   5.715   6.259  13.279  0.2967  0.0536  0.1749
 4840W        W 8060   8.072   3.616  11.302  0.1888 -0.1245 -0.2573
 4841W        W 8061  17.945   5.809   5.147  0.0299 -0.0985  0.0299
 4842W        W 8062   4.771   9.295   9.439 -0.0661  0.2085 -0.2160
 4843W        W 8063  14.537   1.698  14.746 -0.2649 -0.1732 -0.0365
 4844W        W 8064   2.734   8.679   6.986  0.0364 -0.3739  0.1109
 4845W        W 8065   2.966   2.570   9.844 -0.0941 -0.0116  0.2893
 4846W        W 8066  17.578  13.104  17.971  0.1045  0.0635 -0.0457
 4847W        W 8067   5.570   7.250  13.059 -0.1762  0.1224  0.2388
 4848W        W 8068   6.598  13.229   8.171  0.1900  0.3237  0.0297
 4849W        W 8069   6.885   8.996  11.117  0.1913 -0.0039  0.0724
 4850W        W 8070   2.055  15.323   9.018 -0.0238  0.1914  0.2150
 4851W        W 8071   8.619   2.548  14.382 -0.2389 -0.0867 -0.0506
 4852W        W 8072   8.579   4.421  16.272  0.1723 -0.0752 -0.2178
 4853W        W 8073   5.321  10.784   8.328  0.1911 -0.1232  0.0461
 4854W        W 8074  17.258   5.299   6.216 -0.0922  0.3056 -0.1415
 4855W        W 8075   5.835   8.158   7.537  0.3405  0.0059  0.2436
 4856W        W 8076   9.414   8.881  11.629  0.0764 -0.0115 -0.0592
 4857W        W 8077   2.904   5.698   9.519  0.2765  0.0142 -0.1994
 4858W        W 8078   0.167   7.047  16.016 -0.1975  0.1080  0.2442
 4859W        W 8079  16.092   3.599  12.451 -0.1446 -0.0294 -0.0160
 4860W        W 8080   8.124  11.467   8.566 -0.0755  0.0140  0.1543
 4861W        W 8081   7.212   6.687   8.164  0.0021  0.2698 -0.0898
 4862W        W 8082  13.718   9.189   2.537  0.2037 -0.0392 -0.0407
 4863W        W 8083  11.209   7.767  11.281 -0.1290  0.1812  0.1249
 4864W        W 8084   7.355  10.769   7.995 -0.0730 -0.0925 -0.1374
 4865W        W 8085  13.192  15.595  14.310  0.1236 -0.1267  0.1717
 4866W        W 8086  17.534   4.059  13.481  0.0837  0.1949  0.2981
 4867W        W 8087  17.203   9.919   9.662 -0.1448  0.0229  0.2740
 4868W        W 8088   8.834   7.887   7.078 -0.1475 -0.0216 -0.0403
 4869W        W 8089  14.025   7.345  14.440  0.2302 -0.0580  0.3191
 4870W        W 8090   0.719   8.174  12.506 -0.0868 -0.2225  0.1509
 4871W        W 8091   2.717  13.661   6.866  0.2672 -0.3469 -0.2158
 4872W        W 8092  10.937   4.396   5.123  0.2472  0.1045  0.2596
 4873W        W 8093  11.707   9.612   9.061 -0.1210 -0.1220 -0.2870
 4874W        W 8094   5.023   4.101   9.939 -0.0625  0.0544  0.1764
 4875W        W 8095   6.002  10.819  10.209 -0.2697  0.2419  0.0564
 4876W        W 8096   1.536  12.862  14.649 -0.0067  0.0380 -0.2731
 4877W        W 8097   2.090   7.511   9.376  0.0661 -0.0211 -0.1629
 4878W        W 8098   6.531   9.664   7.285  0.1657 -0.0150 -0.0192
 4879W        W 8099   2.495  12.533   3.023  0.0930 -0.0096  0.0364
 4880W        W 8100   8.501   0.326  11.331 -0.2018  0.5207 -0.1002
 4881W        W 8101   8.214  10.080   4.588 -0.0246 -0.2380 -0.0970
 4882W        W 8102   2.937  12.070   7.449  0.0272 -0.0950 -0.0853
 4883W        W 8103  12.048   7.187  14.754 -0.0895  0.0718 -0.1337
 4884W        W 8104   5.626   5.110  11.948 -0.0557  0.0977  0.0318
 4885W        W 8105  15.112   6.118   5.503 -0.1294  0.0469 -0.0496
 4886W        W 8106   5.206  10.631   1.907  0.0478 -0.0895  0.2506
 4887W        W 8107   0.759  10.830  17.617  0.1746 -0.0359  0.3429
 4888W        W 8108   1.164  14.222  17.991 -0.0287  0.2315 -0.1917
 4889W        W 8109  16.135  14.593  15.892  0.1444  0.0973  0.5019
 4890W        W 8110   7.715   8.595   1.027  0.2236  0.0154  0.0795
 4891W        W 8111  11.038  11.868   6.391  0.0796 -0.3868  0.2797
 4892W        W 8112   0.459   3.838   9.440 -0.0346 -0.0055  0.0357
 4893W        W 8113   5.099  17.081   8.629 -0.0891 -0.2339 -0.0148
 4894W        W 8114   3.211   1.838  11.982  0.1493  0.0653  0.2352
 4895W        W 8115   1.979   4.508   9.174 -0.2807 -0.2025  0.3909
 4896W        W 8116   3.145  14.615  11.150  0.2582 -0.4024  0.0757
 4897W        W 8117   3.402  10.360   4.296 -0.4255  0.1267  0.1246
 4898W        W 8118   0.553  11.389   9.961 -0.0323  0.0776 -0.2754
 4899W        W 8119  17.076  15.577  10.868 -0.1381  0.0501  0.0447
 4900W        W 8120   4.825   1.457   8.315  0.0235  0.0502  0.4460
 4901W        W 8121   9.979   3.730   5.824  0.2795 -0.0148 -0.0119
 4902W        W 8122  17.746  10.718  13.554  0.0114  0.0248 -0.3301
 4903W        W 8123  14.388   4.010  12.984  0.1529  0.0680  0.1137
 4904W        W 8124   3.657   6.671  14.066 -0.0194  0.0566  0.0001
 4905W        W 8125  17.413   2.468   0.144 -0.2512 -0.0448 -0.1711
 4906W        W 8126   1.856   8.525   6.984 -0.1284 -0.2089 -0.2165
 4907W        W 8127  13.314  12.382  16.296  0.0630  0.0614  0.3164
 4908W        W 8128  11.248   9.060  11.618 -0.2494 -0.1084  0.0475
 4909W        W 8129   6.155   1.940  11.231  0.2232 -0.1515  0.2226
 4910W        W 8130   8.883   4.149   6.347  0.0375 -0.1490  0.0761
 4911W        W 8131  16.909  13.048  10.664 -0.1238  0.2165 -0.1650
 4912W        W 8132   1.121  10.450  12.091  0.1627 -0.2532  0.1568
 4913W        W 8133   8.999   7.472  12.108 -0.1997  0.0497  0.1651
 4914W        W 8134   3.543   8.613  16.820 -0.0076  0.0196 -0.1491
 4915W        W 8135  10.857   8.327   1.852  0.0121 -0.0039  0.2081
 4916W        W 8136  14.089   9.631  11.072  0.0191 -0.2368  0.1461
 4917W        W 8137   4.941  14.929   8.119  0.4905 -0.0251  0.4186
 4918W        W 8138   8.841  13.817   7.858  0.0433 -0.2543  0.0015
 4919W        W 8139  16.965  12.550   6.141  0.1597 -0.1700  0.4567
 4920W        W 8140  13.885   7.632  12.463  0.1978 -0.2676 -0.1824
 4921W        W 8141  15.061  11.171   9.455  0.4471 -0.0483 -0.0029
 4922W        W 8142   2.864   6.067   8.696  0.1422 -0.1626  0.1150
 4923W        W 8143   1.644  11.800  10.855  0.3299  0.0926 -0.0338
 4924W        W 8144  17.971  12.664  10.450  0.0321  0.0508 -0.0163
 4925W        W 8145   5.389  12.761  12.703 -0.0077 -0.1642 -0.2433
 4926W        W 8146  14.905  13.034  13.474 -0.0112  0.1534  0.0202
 4927W        W 8147   8.797  12.092  14.378  0.0180  0.1727 -0.2537
 4928W        W 8148  10.578   3.380  15.997  0.0892  0.0763  0.1118
 4929W        W 8149   5.333  17.445   6.827  0.0028 -0.1000  0.1224
 4930W        W 8150   1.611   9.543  11.007 -0.0389 -0.1657  0.2286
 4931W        W 8151   6.524   7.790   9.371 -0.0314 -0.0658 -0.0102
 4932W        W 8152  16.808   8.922  11.522 -0.0028 -0.1489  0.1345
 4933W        W 8153   3.780   6.625   6.761  0.1444  0.3057  0.1238
 4934W        W 8154  17.439  15.865   7.635  0.1336  0.0073  0.0158
 4935W        W 8155   3.382   3.216   5.394  0.0175  0.1855  0.3372
 4936W        W 8156   6.708   9.091  13.716 -0.2671 -0.3239  0.5101
 4937W        W 8157   6.094   8.504   6.130 -0.2594 -0.1677  0.0792
 4938W        W 8158  18.230   4.705   7.937 -0.1009  0.0636 -0.0366
 4939W        W 8159   3.684   8.967   6.868  0.1047 -0.3833 -0.4861
 4940W        W 8160   8.253  10.356   6.813 -0.2109 -0.4159  0.0796
 4941W        W 8161   6.840   2.907   9.853  0.4151  0.0131 -0.0649
 4942W        W 8162   5.156   4.951  11.977 -0.4134 -0.2818 -0.0972
 4943W        W 8163   6.252   5.327  14.689  0.0051 -0.4043 -0.0504
 4944W        W 8164   1.825   7.281   3.770 -0.0507 -0.0549  0.1302
 4945W        W 8165   6.805  12.420   5.165  0.2982 -0.1743 -0.2122
 4946W        W 8166  15.397   7.774  11.287 -0.0732 -0.0387  0.0164
 4947W        W 8167   0.421  10.934   9.192  0.3507 -0.1717 -0.3609
 4948W        W 8168   2.258  14.799   0.364 -0.2329  0.0707  0.4766
 4949W        W 8169  16.178   9.445  12.678 -0.0249  0.3475  0.1640
 4950W        W 8170   0.318  11.489  15.001  0.1575 -0.0843  0.3286
 4951W        W 8171  12.446   2.724   9.142 -0.3312  0.0601  0.0295
 4952W        W 8172   0.493  10.449   9.594 -0.0103 -0.0156 -0.0575
 4953W        W 8173  12.477   2.677  13.023  0.1380 -0.0311  0.0519
 4954W        W 8174   2.573  18.149  10.505 -0.0859  0.0101  0.0809
 4955W        W 8175  12.545  11.939  11.447 -0.3045 -0.2421  0.2021
 4956W        W 8176   6.819   8.176  12.277  0.0280  0.0753 -0.0385
 4957W        W 8177   3.069  15.148  14.372 -0.1345  0.0897  0.2137
 4958W        W 8178  17.530   0.858   6.768  0.1597 -0.2511 -0.0545
 4959W        W 8179   0.106   7.587  11.991 -0.1534  0.1375  0.1027
 4960W        W 8180   7.517  12.813   2.768  0.2864 -0.0294  0.1305
 4961W        W 8181  17.458   8.093   1.657  0.1154 -0.0367  0.1836
 4962W        W 8182   0.035  11.014   8.857  0.0825 -0.2955  0.1841
 4963W        W 8183   7.368  13.792   8.624 -0.2320  0.1592  0.0893
 4964W        W 8184   2.194   5.661  12.154  0.3905 -0.0303 -0.1033
 4965W        W 8185   6.872   4.192  12.169 -0.0592 -0.2244  0.1286
 4966W        W 8186  14.339   5.757  12.427 -0.1266 -0.2001 -0.0712
 4967W        W 8187  17.371   9.757  13.244  0.1684  0.1062 -0.2522
 4968W        W 8188   0.675   3.797   8.454 -0.0651  0.2547 -0.0743
 4969W        W 8189  17.237  12.073  10.795  0.2411 -0.3357 -0.1189
 4970W        W 8190   0.939  12.748   5.103  0.1695  0.0430 -0.0312
 4971W        W 8191  17.619  14.261   8.492  0.1307 -0.0717 -0.1052
 4972W        W 8192   9.216   5.652  12.712 -0.1915  0.2129  0.1045
 4973W        W 8193   5.048   4.907  13.400  0.1929 -0.0563  0.0862
 4974W        W 8194  18.266   9.331   5.232  0.1924 -0.0037 -0.0546
 4975W        W 8195   3.990  16.560   4.135 -0.0669  0.1794 -0.1142
 4976W        W 8196   3.764  10.817   6.081  0.2264 -0.2816 -0.1925
 4977W        W 8197   2.584   0.541  15.905 -0.1354 -0.0225 -0.0774
 4978W        W 8198   0.901   2.760   8.729  0.2295 -0.2686 -0.1143
 4979W        W 8199   4.487   9.375   5.900 -0.0369 -0.0765 -0.2183
 4980W        W 8200   3.258   4.906   0.113 -0.0219 -0.2066 -0.2387
 4981W        W 8201   6.668   6.692   2.214 -0.0008 -0.2435 -0.0429
 4982W        W 8202   0.256   8.836   7.712  0.1745 -0.0356  0.2271
 4983W        W 8203   5.363   8.841  13.526  0.0098  0.3999  0.0740
 4984W        W 8204  17.962   8.677   9.503 -0.0630  0.1490  0.1549
 4985W        W 8205  17.808  15.916  10.982  0.2888 -0.0547 -0.3118
 4986W        W 8206  17.289  10.936  17.067  0.0523  0.0185 -0.0381
 4987W        W 8207   6.948  17.381   9.309 -0.1142  0.3189 -0.2307
 4988W        W 8208   1.689  13.644  12.229  0.0674  0.0926  0.1148
 4989W        W 8209   3.605   4.849  15.569 -0.0554 -0.0936  0.1082
 4990W        W 8210  16.768   4.180   7.804 -0.1530 -0.2813  0.0399
 4991W        W 8211   9.405   6.849  11.678 -0.0788 -0.2398 -0.0693
 4992W        W 8212  10.909  11.187  10.883  0.0755 -0.2156 -0.0541
 4993W        W 8213   5.550   7.828   5.377  0.2755 -0.1362 -0.1692
 4994W        W 8214   6.273   0.545   7.698 -0.1185  0.1346  0.3191
 4995W        W 8215  14.596  13.231   7.928 -0.1207  0.0934  0.4201
 4996W        W 8216   4.856   0.178   8.957  0.4148 -0.0512 -0.2034
 4997W        W 8217   6.899  15.480   4.661  0.2972  0.1765 -0.0055
 4998W        W 8218  12.319  14.258  10.138  0.2412 -0.0164 -0.0743
 4999W        W 8219  16.043   6.876  12.603  0.1752  0.0224 -0.0055
 5000W        W 8220   2.070   7.355   8.184 -0.1501 -0.3209  0.0779
 5001W        W 8221  17.490   1.129  11.014  0.2954  0.3600 -0.0629
 5002W        W 8222  10.492   5.500   6.989 -0.1004  0.1353 -0.2208
 5003W        W 8223  16.564   9.642   8.530 -0.1373  0.1715  0.0615
 5004W        W 8224   0.484   3.922  10.480  0.0824  0.1294 -0.2470
 5005W        W 8225   4.184  14.444   9.914  0.1250 -0.0203 -0.3319
 5006W        W 8226   2.843   4.898  17.619 -0.2299 -0.0467 -0.4698
 5007W        W 8227   4.665  12.521  10.376 -0.1234  0.5071 -0.0012
 5008W        W 8228   1.465  15.234   5.363  0.2882  0.2554 -0.1177
 5009W        W 8229  15.015  12.741   7.460  0.1947  0.0866  0.1425
 5010W        W 8230   3.835  10.664  13.866 -0.1444  0.0485  0.2039
 5011W        W 8231  17.993  14.219  17.869  0.2883  0.0826  0.0155
 5012W        W 8232   5.505  17.590  16.479  0.2881  0.1807  0.1503
 5013W        W 8233   1.049  11.508  10.270  0.2050  0.1871  0.2309
 5014W        W 8234   5.020  13.611   8.671  0.3994  0.1942  0.2305
 5015W        W 8235   8.441   6.505   1.288  0.2964 -0.1431 -0.1780
 5016W        W 8236  14.675   3.224  10.888  0.1893  0.0192  0.2481
 5017W        W 8237   5.955   9.340  13.186 -0.2178 -0.0296  0.0350
 5018W        W 8238   9.434  18.188   9.570  0.0570 -0.0149 -0.0242
 5019W        W 8239  18.038   9.185   8.589 -0.0511  0.1094  0.0530
 5020W        W 8240   3.590   7.912   6.995  0.1718  0.0006 -0.4062
 5021W        W 8241   5.703  10.614   9.835 -0.0856  0.1482 -0.1627
 5022W        W 8242   3.413  10.364  14.089  0.1533  0.1948  0.2697
 5023W        W 8243   8.091   8.772   9.270  0.2538 -0.2794 -0.1308
 5024W        W 8244   3.508  13.281  12.362 -0.3734  0.0690 -0.2161
 5025W        W 8245   1.610  16.127   5.282  0.0369 -0.0742 -0.0025
 5026W        W 8246   5.800   2.997   7.118 -0.1434 -0.1870  0.0939
 5027W        W 8247   4.572   7.776   5.947  0.0034 -0.2787 -0.3030
 5028W        W 8248  14.453  10.594   5.539  0.3208  0.1100 -0.1876
 5029W        W 8249   5.478  10.270  12.371  0.0448  0.2473 -0.1295
 5030W        W 8250   5.191   3.623  10.234 -0.0856  0.1815 -0.1365
 5031W        W 8251   2.130   7.543  13.057  0.1155 -0.1863 -0.1896
 5032W        W 8252  11.413   5.312   7.506  0.0665  0.1078  0.1924
 5033W        W 8253  15.643   3.631  14.911 -0.2056  0.2518 -0.2459
 5034W        W 8254   4.075  13.543  15.397 -0.0464 -0.0148 -0.1421
 5035W        W 8255  17.715   6.388   9.420  0.0400  0.0077 -0.2126
 5036W        W 8256   6.066  12.987  11.787 -0.1396 -0.1594 -0.1169
 5037W        W 8257   5.240   7.913   9.151  0.2202 -0.1796  0.0058
 5038W        W 8258  13.420   4.252   8.996  0.0178 -0.2115  0.0738
 5039W        W 8259   2.502  11.131   9.813  0.0056 -0.0160 -0.0531
 5040W        W 8260   1.881   7.358  12.714  0.0941  0.0715  0.1609
 5041W        W 8261  15.134   2.331   9.268 -0.2325  0.1014 -0.0177
 5042W        W 8262   1.673   7.369  13.259  0.0614  0.2440  0.0883
 5043W        W 8263   6.464  11.252   9.163 -0.2899 -0.0424 -0.1030
 5044W        W 8264  12.608   3.241  16.043  0.1335  0.2679  0.1300
 5045W        W 8265   4.381  14.116   9.222 -0.0344  0.1483 -0.2525
 5046W        W 8266   7.293   9.451  13.809 -0.1574 -0.1871  0.2280
 5047W        W 8267   1.318   7.418   3.634  0.3334 -0.0064  0.2112
 5048W        W 8268  17.270  13.426  10.672  0.0476  0.0618 -0.0149
 5049W        W 8269  17.925   7.165   7.872  0.0414  0.0087 -0.0728
 5050W        W 8270  17.891   6.322   6.897 -0.0535  0.0989 -0.0479
 5051W        W 8271   3.477   5.914  11.137 -0.0688  0.0136  0.0519
 5052W        W 8272  17.122   9.567  16.915 -0.0838  0.0940  0.0628
 5053W        W 8273   2.074   7.214  16.547  0.1473  0.2780 -0.4708
 5054W        W 8274   3.871   5.257   3.328 -0.0298  0.0696 -0.1940
 5055W        W 8275   2.220   5.449  11.672  0.0585  0.1031  0.1258
 5056W        W 8276  15.987   4.629  12.801  0.0426 -0.1332 -0.2554
 5057W        W 8277   2.261  10.937  13.589  0.0766  0.2376  0.1870
 5058W        W 8278   6.238  17.977  12.063  0.0382 -0.1486 -0.1052
 5059W        W 8279   2.560   5.741   6.118 -0.0254  0.0944  0.0187
 5060W        W 8280   5.226   8.574   8.612 -0.0178 -0.5557  0.1883
 5061W        W 8281   7.929  10.791   6.189  0.2507 -0.3940 -0.2300
 5062W        W 8282   3.344  11.929  13.295 -0.0275 -0.0309  0.2815
 5063W        W 8283   7.302   8.393   6.450  0.0455 -0.0922  0.0724
 5064W        W 8284   9.083   5.220   8.044  0.1175  0.1565  0.1347
 5065W        W 8285  10.146   8.102  12.178  0.0488 -0.0839 -0.1363
 5066W        W 8286   8.370   7.752  11.066 -0.4105 -0.0355  0.0839
 5067W        W 8287   2.053   1.750   6.101 -0.2723  0.0733 -0.2039
 5068W        W 8288   0.041  13.304   4.933  0.1471 -0.3845 -0.0232
 5069W        W 8289  11.870  13.844  18.034 -0.1837 -0.0217 -0.0135
 5070W        W 8290   2.946   7.422   2.206  0.1471  0.1530 -0.1240
 5071W        W 8291   0.136   5.369   2.784  0.0673  0.0433  0.1494
 5072W        W 8292  11.703  12.810   6.553 -0.5409  0.1522  0.1613
 5073W        W 8293   7.212   6.020  14.898 -0.0963  0.0038 -0.0532
 5074W        W 8294   7.903  11.488  10.340  0.1004 -0.2604  0.2342
 5075W        W 8295  16.399   3.075   2.722  0.2175 -0.1698 -0.1606
 5076W        W 8296   3.750   5.790   5.111  0.2464 -0.1238  0.2010
 5077W        W 8297   5.734  13.409   2.349 -0.0710 -0.3271 -0.0324
 5078W        W 8298  16.531  11.618  14.332 -0.0432  0.1236 -0.2505
 5079W        W 8299   3.391   5.861   6.760 -0.2135 -0.1116 -0.0571
 5080W        W 8300  13.512   9.729  14.688 -0.3695 -0.1339  0.1884
 5081W        W 8301   1.787  14.288  10.381 -0.1041  0.1136  0.0301
 5082W        W 8302   5.609   4.216   9.574  0.1184 -0.1424  0.0582
 5083W        W 8303   8.105   9.062  14.186  0.1456 -0.0368 -0.1394
 5084W        W 8304   8.764  11.948   6.453 -0.2122  0.0631 -0.0247
 5085W        W 8305  17.898  10.564  12.869 -0.1311  0.1929 -0.0226
 5086W        W 8306   7.393   8.173  12.276  0.0437  0.0466  0.1516
 5087W        W 8307   1.948   9.656   9.588 -0.0405 -0.2799 -0.2042
 5088W        W 8308  16.565  14.043  15.404 -0.3661  0.0987  0.0923
 5089W        W 8309   4.051   6.525   9.404 -0.2820 -0.1307  0.1072
 5090W        W 8310   2.134  13.104  15.684 -0.2767  0.1175 -0.2501
 5091W        W 8311  15.689   4.383  14.961 -0.5155  0.0841 -0.1204
 5092W        W 8312   6.296  10.860   8.264  0.0950 -0.1113 -0.0160
 5093W        W 8313  17.344   2.287   2.288 -0.2953  0.0320  0.2503
 5094W        W 8314   1.489   9.060  10.769  0.1196 -0.2038 -0.0391
 5095W        W 8315   7.737   5.673  13.848  0.3175 -0.0372 -0.1291
 5096W        W 8316   5.715   7.694   8.894 -0.1233 -0.1059 -0.0798
 5097W        W 8317   0.407  13.937  17.429 -0.1868 -0.4982 -0.1408
 5098W        W 8318   0.953   9.677  11.998  0.1086  0.0840  0.2770
 5099W        W 8319   4.761  15.610  12.665  0.0448  0.0411  0.1087
 5100W        W 8320   7.127   9.557   8.399  0.3151  0.1577  0.1586
 5101W        W 8321  16.716  11.460   7.257 -0.2570  0.1193  0.2693
 5102W        W 8322   8.267  12.574   3.718  0.1329  0.0991 -0.0458
 5103W        W 8323   0.962  14.742  14.180  0.0181 -0.1659 -0.1623
 5104W        W 8324   1.808   8.041   0.509 -0.1604 -0.2433  0.0911
 5105W        W 8325  17.255  12.935  14.793 -0.1451  0.0207 -0.0490
 5106W        W 8326  13.005  13.155   6.460 -0.1095 -0.1779  0.0744
 5107W        W 8327   3.243   0.866  11.265  0.0248  0.2243 -0.1025
 5108W        W 8328  15.543   9.467   6.926 -0.0727  0.2939  0.0510
 5109W        W 8329   4.508   4.356  14.682  0.1160  0.2460  0.0453
 5110W        W 8330   3.137  12.374   4.240 -0.2727  0.1165  0.3443
 5111W        W 8331  10.504   8.396   6.261 -0.0348  0.1966 -0.2989
 5112W        W 8332   3.760  11.312   7.563  0.1782  0.1855  0.1498
 5113W        W 8333   6.027  11.425   9.484  0.1132  0.5261 -0.0021
 5114W        W 8334   1.466  17.979  17.876 -0.2450  0.1563 -0.2182
 5115W        W 8335   4.565  10.437  17.652  0.0163 -0.2048  0.0671
 5116W        W 8336   6.634  17.254  17.366  0.0504 -0.3663 -0.1166
 5117W        W 8337  17.027   8.724  16.989 -0.3361  0.0621 -0.0451
 5118W        W 8338   3.860  13.082   9.372 -0.2743  0.0180  0.0774
 5119W        W 8339   0.700  11.371   1.351 -0.1681  0.1455 -0.0595
 5120W        W 8340  17.710   8.022  13.003  0.0186 -0.2136 -0.0960
 5121W        W 8341   2.166   8.819  16.530  0.0077 -0.0310 -0.2415
 5122W        W 8342   6.148   9.467   9.250 -0.1154  0.0701 -0.1185
 5123W        W 8343   8.012   7.833   6.429 -0.0921  0.0169 -0.0048
 5124W        W 8344   8.452   8.747  12.279 -0.0752 -0.2915  0.1534
 5125W        W 8345  13.616  10.577  13.412  0.1872  0.0719  0.0766
 5126W        W 8346   0.072   9.550   6.863  0.3836  0.2061 -0.2674
 5127W        W 8347   6.221   8.710   2.134 -0.1121 -0.0493 -0.1535
 5128W        W 8348   0.168   5.099   6.283 -0.0104 -0.0426 -0.0365
 5129W        W 8349   9.504   6.075  10.958 -0.4140 -0.2458  0.1089
 5130W        W 8350   0.871   9.512   2.525 -0.0943 -0.2598  0.0070
 5131W        W 8351   5.531   5.877   9.888 -0.0409  0.0518 -0.1286
 5132W        W 8352  16.187   2.647  10.751  0.3796 -0.2142  0.1323
 5133W        W 8353   6.181   7.997   1.844 -0.3491  0.3149  0.2836
 5134W        W 8354   5.253   5.472   3.630  0.2680  0.0193 -0.0902
 5135W        W 8355  17.326   4.037  14.089  0.1194 -0.1841 -0.1527
 5136W        W 8356   5.111   7.662  15.775 -0.1488  0.0760 -0.0375
 5137W        W 8357   3.496   3.926  14.695 -0.2368  0.0548 -0.1938
 5138W        W 8358  11.603   9.545  11.502 -0.2878  0.2673 -0.4244
 5139W        W 8359   1.072   6.759   6.985 -0.2127 -0.0643  0.0908
 5140W        W 8360  13.706   5.698   7.590  0.1240 -0.2007 -0.2587
 5141W        W 8361   1.440   6.832  13.824 -0.1824  0.0227 -0.0623
 5142W        W 8362   0.639  11.112   5.459 -0.1997  0.0879  0.1990
 5143W        W 8363   8.711   5.342   2.162  0.0747  0.2456  0.2154
 5144W        W 8364   4.510   0.156   6.592 -0.2060 -0.0701 -0.0717
 5145W        W 8365   6.453   7.778  10.523  0.1268 -0.0708 -0.0631
 5146W        W 8366   5.090  10.592   2.738 -0.2823  0.2284  0.0732
 5147W        W 8367  17.869  14.960   7.620 -0.0073  0.1559 -0.2206
 5148W        W 8368   2.015   7.825  11.230 -0.0663 -0.1083 -0.2515
 5149W        W 8369  14.948   1.750   3.089 -0.1117 -0.1605  0.0840
 5150W        W 8370   8.172   9.842   9.389  0.3056  0.1366 -0.0033
 5151W        W 8371   2.028   4.223   4.777  0.1122 -0.3690 -0.3541
 5152W        W 8372  11.923  10.476  17.303 -0.3455  0.1240  0.0857
 5153W        W 8373   0.465  12.732   9.735  0.0308 -0.1373  0.0410
 5154W        W 8374   0.527   9.479   9.623  0.0728  0.2000  0.1698
 5155W        W 8375  16.409   9.681   8.984  0.0861 -0.2203  0.0460
 5156W        W 8376   9.155   3.379  14.497  0.1606  0.0868 -0.1430
 5157W        W 8377  15.488   8.390  13.640  0.1432  0.3288  0.1680
 5158W        W 8378   2.133   7.874  16.562 -0.1657  0.1993  0.2517
 5159W        W 8379  10.204   6.545  10.338 -0.1472 -0.0127  0.2697
 5160W        W 8380   0.530   7.513   7.921  0.1484 -0.1394 -0.2179
 5161W        W 8381   6.397   6.765  13.039 -0.0572  0.0086  0.3581
 5162W        W 8382  13.242   7.575   7.113  0.0762  0.1123 -0.0935
 5163W        W 8383   1.291   8.478   8.293 -0.1021 -0.0140 -0.1240
 5164W        W 8384   6.094   6.470   8.289 -0.2051  0.2458 -0.0820
 5165W        W 8385  13.510   0.122  12.928 -0.0908  0.1107  0.0303
 5166W        W 8386  17.994  12.013   4.266  0.0501 -0.2139 -0.1093
 5167W        W 8387  15.443  11.965  14.975  0.0691 -0.1093 -0.1126
 5168W        W 8388   7.253  12.801  16.446  0.6360  0.0778  0.0605
 5169W        W 8389   0.859  13.020   0.769  0.0839  0.2870  0.2898
 5170W        W 8390   2.098   5.994   3.405 -0.1870 -0.2067 -0.2049
 5171W        W 8391   8.609   7.571   5.296 -0.1166  0.0092  0.2318
 5172W        W 8392   3.593   5.119  16.602  0.1444 -0.0198  0.3298
 5173W        W 8393   3.272  14.759  13.772 -0.2558 -0.0421  0.1495
 5174W        W 8394   0.286   8.608  11.512  0.1965 -0.1941 -0.0106
 5175W        W 8395   3.708  11.666  14.020 -0.2211  0.0046  0.5511
 5176W        W 8396   3.879   5.401   9.672 -0.1362  0.4929 -0.0032
 5177W        W 8397   8.906  15.146   4.421  0.1688  0.3750  0.2848
 5178W        W 8398  16.905   5.255   2.765  0.0309  0.0314  0.0182
 5179W        W 8399   1.658   7.968   2.477 -0.3734  0.3142 -0.0269
 5180W        W 8400   4.326   6.658  11.008 -0.5478  0.2025  0.1309
 5181W        W 8401   3.682   4.669  15.080  0.2212  0.2180  0.1262
 5182W        W 8402   2.242   4.937  13.836  0.0069 -0.3124  0.1139
 5183W        W 8403  17.555   7.067  10.783 -0.0207 -0.0713 -0.0789
 5184W        W 8404  17.272  13.759  15.305  0.1440  0.0501  0.1682
 5185W        W 8405  16.256  12.360  11.533  0.0482 -0.1696  0.2220
 5186W        W 8406  10.159   6.246  16.389  0.0455 -0.1855 -0.1559
 5187W        W 8407   2.360   7.671  12.480  0.1236 -0.0424  0.1466
 5188W        W 8408   4.928  11.225   1.300  0.2782 -0.0172 -0.0983
 5189W        W 8409   2.415   9.623  11.624 -0.4230  0.0890  0.1140
 5190W        W 8410   9.451   0.952  16.360  0.0369  0.0885  0.0541
 5191W        W 8411   4.248  10.804   0.881  0.1947  0.0397 -0.0502
 5192W        W 8412   0.110   8.259  14.816  0.0930 -0.1835  0.0154
 5193W        W 8413  15.866  14.196  16.515 -0.0713 -0.0312  0.1082
 5194W        W 8414  16.847   2.090  12.036  0.0734  0.1933 -0.2400
 5195W        W 8415  17.598   4.228  15.731 -0.0714  0.1241  0.1358
 5196W        W 8416   8.148   5.094  12.727 -0.1235 -0.1135 -0.0207
 5197W        W 8417  14.807   5.718  12.589 -0.2441  0.0065  0.0650
 5198W        W 8418   4.330   8.492   9.632 -0.2983 -0.1355 -0.0584
 5199W        W 8419  16.688  17.966  14.018  0.1196  0.1978  0.0901
 5200W        W 8420   0.284  13.186  15.258 -0.2908 -0.1768 -0.1744
 5201W        W 8421   7.639  13.805   2.278  0.1548  0.2354  0.0139
 5202W        W 8422   2.552  13.063  16.889  0.1034  0.1333  0.1767
 5203W        W 8423   5.097  11.632  11.288  0.1660  0.2266 -0.0090
 5204W        W 8424  17.351   5.532  15.452  0.2772  0.0410 -0.2805
 5205W        W 8425   3.294   5.243  16.983  0.1160 -0.1524 -0.0443
 5206W        W 8426  11.375   9.342   2.583 -0.2027 -0.1712  0.0821
 5207W        W 8427   1.549  12.442  12.171 -0.0414  0.1272  0.0567
 5208W        W 8428   5.983   2.520  12.424  0.3564 -0.1955 -0.1196
 5209W        W 8429  17.799  12.466   7.824  0.4033  0.0575 -0.0232
 5210W        W 8430   4.080   7.011  13.717 -0.2285 -0.2067  0.0516
 5211W        W 8431  10.722  12.075   0.964 -0.0185  0.0529 -0.0366
 5212W        W 8432   0.533  16.550  13.971 -0.0777 -0.4115  0.0724
 5213W        W 8433   5.294   4.299   7.164 -0.0559 -0.0936 -0.3765
 5214W        W 8434   0.354   6.153  14.441 -0.1759 -0.1832 -0.2109
 5215W        W 8435   0.539   5.182   2.144  0.0846  0.1474 -0.1139
 5216W        W 8436   3.153   5.569  15.169  0.0804 -0.0104 -0.0299
 5217W        W 8437  17.456   8.696   9.542 -0.0405 -0.0359 -0.0824
 5218W        W 8438   0.938   9.081  15.617 -0.1396 -0.2033  0.1098
 5219W        W 8439   4.550  15.268  13.401  0.2002 -0.0498  0.1552
 5220W        W 8440  12.356  11.199  12.915 -0.0515  0.0224  0.2803
 5221W        W 8441  12.927   9.867   9.558  0.1240  0.0585  0.0735
 5222W        W 8442   1.100   7.473  14.541  0.1543 -0.3206  0.0255
 5223W        W 8443   6.729   3.657   9.295 -0.2546  0.0402 -0.1777
 5224W        W 8444   3.381   6.362  10.862 -0.1142 -0.1027 -0.0609
 5225W        W 8445   2.227   7.917   9.720 -0.0016  0.1442  0.0817
 5226W        W 8446   1.705   8.528   0.507 -0.0689  0.0282  0.1854
 5227W        W 8447  16.654   4.845  17.763  0.1615 -0.2195 -0.1614
 5228W        W 8448   3.020  16.030  17.189 -0.0467 -0.1965  0.0428
 5229W        W 8449  17.826   9.606  10.907 -0.3454  0.2108 -0.0969
 5230W        W 8450  11.729   5.817  11.122 -0.2875 -0.1099 -0.0292
 5231W        W 8451   2.464  10.438  13.720  0.0003 -0.3086  0.1370
 5232W        W 8452   4.593  12.064  15.274 -0.0840  0.0806 -0.2645
 5233W        W 8453  15.872   4.343  16.520  0.1220  0.1543  0.1273
 5234W        W 8454   3.555   8.106   7.443 -0.0078  0.0376  0.1071
 5235W        W 8455   6.033   8.471   8.842  0.0046  0.2446 -0.1096
 5236W        W 8456   3.344  10.080   1.816  0.0393 -0.2494  0.3055
 5237W        W 8457  13.388   9.704  12.379 -0.1732 -0.0062  0.0689
 5238W        W 8458  17.064   4.435  14.287 -0.0083 -0.2365 -0.1411
 5239W        W 8459   4.906  10.062  11.085  0.0234  0.0747  0.0806
 5240W        W 8460   4.436   6.419  17.186 -0.1765 -0.0012 -0.0153
 5241W        W 8461   5.153   8.632   0.605  0.0403  0.0457  0.0744
 5242W        W 8462   0.684   7.286  15.414  0.2528  0.1234  0.0565
 5243W        W 8463   3.261   8.354  14.777  0.3837 -0.3152  0.1716
 5244W        W 8464  15.367  11.552  14.256  0.3725 -0.2354 -0.0633
 5245W        W 8465   0.473   7.505  12.601  0.1423 -0.1377 -0.1107
 5246W        W 8466   1.679  15.437   7.907 -0.1090 -0.2146  0.0286
 5247W        W 8467   0.352   7.854   6.805  0.0762  0.1100 -0.1282
 5248W        W 8468  17.834   9.680  14.518  0.1290  0.0904 -0.0037
 5249W        W 8469   8.653   6.806  12.733  0.2104 -0.1187 -0.3100
 5250W        W 8470   2.620   3.383   9.104  0.0157 -0.0271 -0.3934
 5251W        W 8471  16.669   2.383  13.759 -0.0308 -0.2459 -0.1406
 5252W        W 8472   2.688   8.518  10.915 -0.0665  0.1968  0.2689
 5253W        W 8473   1.111   3.896   7.680  0.3216 -0.0440  0.0925
 5254W        W 8474   0.341   0.654   3.691 -0.0151 -0.0254  0.1555
 5255W        W 8475  16.929  16.748  12.796  0.1036 -0.1237  0.0504
 5256W        W 8476  17.866   8.087  14.134 -0.0829  0.1020 -0.0767
 5257W        W 8477   7.871   9.588  14.340  0.1517  0.1581  0.0549
 5258W        W 8478   8.349   8.423  11.778 -0.2022 -0.4196  0.0693
 5259W        W 8479   4.193   6.621  15.966  0.0321  0.0341  0.2269
 5260W        W 8480   5.418  10.481  18.081 -0.0258 -0.1743 -0.1849
 5261W        W 8481   2.711  13.357  10.700 -0.1979  0.1806  0.5658
 5262W        W 8482   7.119  12.331  13.685  0.0147 -0.0621 -0.1816
 5263W        W 8483  14.023   1.310  17.502 -0.0111  0.1183 -0.0616
 5264W        W 8484   4.311  11.117  15.199 -0.2970 -0.0803  0.0128
 5265W        W 8485   7.432   4.922   1.145 -0.0159 -0.1332  0.1296
 5266W        W 8486   1.784   3.292   0.584  0.0621  0.1417 -0.2806
 5267W        W 8487   2.099   0.278  10.496 -0.0225 -0.1232 -0.3730
 5268W        W 8488   1.792  11.283  11.020  0.0888 -0.2448 -0.2849
 5269W        W 8489  16.918  17.457   6.766  0.0148  0.2223  0.1726
 5270W        W 8490   1.707   7.350  15.944  0.1918 -0.1936  0.2039
 5271W        W 8491   5.750   5.551   8.587  0.1171 -0.0205  0.2783
 5272W        W 8492   8.716   0.429  15.321  0.1600 -0.2942  0.1522
 5273W        W 8493   6.987   2.886   0.285  0.1691 -0.1477  0.1017
 5274W        W 8494   4.014   2.481   3.797 -0.2365 -0.2447  0.0731
 5275W        W 8495   1.809   8.973   9.073 -0.0117  0.2169  0.0091
 5276W        W 8496   2.564   8.297   9.567 -0.0198 -0.0688  0.2495
 5277W        W 8497  16.975  12.447   2.303  0.0576  0.3908 -0.2751
 5278W        W 8498  17.442   4.562  13.270 -0.1354  0.2432 -0.1969
 5279W        W 8499  17.411  12.352   1.042  0.0004 -0.0495  0.2176
 5280W        W 8500  18.050   7.092  18.049  0.0553 -0.0665 -0.1288
 5281W        W 8501   5.192  11.256  13.069 -0.0274  0.0016  0.2932
 5282W        W 8502  15.792   5.062  15.476 -0.0017 -0.0855 -0.3059
 5283W        W 8503   1.317   0.142   3.008  0.2780 -0.2336  0.0503
 5284W        W 8504  13.910   3.253  10.794 -0.0043 -0.0560 -0.1239
 5285W        W 8505   0.265   8.284  12.006  0.4521  0.2480  0.2708
 5286W        W 8506   0.400   4.323  11.078 -0.0864  0.1522 -0.0513
 5287W        W 8507   5.370  14.003  17.110 -0.2403 -0.0038  0.1918
 5288W        W 8508   3.483   2.720   0.017  0.0099 -0.0176 -0.2786
 5289W        W 8509   5.686   8.225  11.780  0.2350  0.1238 -0.1668
 5290W        W 8510   2.834  16.444  12.120  0.0673  0.0372  0.0896
 5291W        W 8511   2.947  12.053   2.356  0.0703 -0.0334  0.0766
 5292W        W 8512  13.712  13.154  11.183  0.2684 -0.4871 -0.0915
 5293W        W 8513   1.560   3.176   7.681  0.0655 -0.1026 -0.1296
 5294W        W 8514  13.423   4.774  11.867 -0.0466 -0.0355 -0.1478
 5295W        W 8515   3.231  14.649   1.228  0.2024  0.1157 -0.3218
 5296W        W 8516   2.499   8.876   5.767 -0.1263 -0.0499  0.1415
 5297W        W 8517   2.964  10.644   5.961  0.1228 -0.0564 -0.0327
 5298W        W 8518  18.230  12.721  12.674  0.2926  0.0591 -0.0198
 5299W        W 8519   7.017   8.681  16.328  0.2993 -0.0239  0.0640
 5300W        W 8520   0.932  10.583   9.271  0.2333  0.0170 -0.0234
 5301W        W 8521  15.262  12.417  12.641 -0.2105 -0.1352 -0.1577
 5302W        W 8522   3.314   8.332  17.910  0.0905  0.0735  0.0971
 5303W        W 8523   2.734   7.834  14.964  0.0471  0.0761 -0.0614
 5304W        W 8524  14.260   7.088  12.977  0.0246  0.0428 -0.1248
 5305W        W 8525   0.484  13.474  17.538 -0.1355  0.0372 -0.4493
 5306W        W 8526   3.384  13.174  13.980  0.0765  0.1533  0.0316
 5307W        W 8527   8.836  12.538  10.402  0.2775  0.2168 -0.0434
 5308W        W 8528   3.363  11.543   7.371 -0.2469 -0.0177 -0.0340
 5309W        W 8529  17.664   3.529   2.257 -0.4358  0.1149 -0.0053
 5310W        W 8530  16.562  12.803  12.838 -0.1505 -0.0875 -0.3046
 5311W        W 8531   7.416   6.691   9.987  0.2804  0.0389 -0.0746
 5312W        W 8532   8.289  12.263  12.214 -0.2979  0.0067 -0.0480
 5313W        W 8533   4.244  13.197   9.653  0.0578  0.0848  0.0387
 5314W        W 8534   4.290   6.955   9.611 -0.1399 -0.1388 -0.0521
 5315W        W 8535  14.413   5.676  14.300 -0.0003  0.2349  0.1801
 5316W        W 8536   4.092   5.675  17.352  0.1856 -0.0627  0.0068
 5317W        W 8537   3.644   9.873  11.978  0.1020 -0.1198 -0.1821
 5318W        W 8538   5.606   9.716  11.977  0.1717  0.1972  0.1347
 5319W        W 8539  17.994  12.758  17.430  0.0646  0.0316 -0.0644
 5320W        W 8540   8.277   9.192  17.257  0.1412  0.1107  0.0685
 5321W        W 8541  10.249  10.235  14.764 -0.0677 -0.0340  0.0588
 5322W        W 8542   2.983   1.113  12.711 -0.0608  0.1730  0.3353
 5323W        W 8543   2.248   5.293   0.565  0.1146  0.1812 -0.0187
 5324W        W 8544   7.092  11.681  16.206  0.2101 -0.1425  0.1264
 5325W        W 8545  12.741   7.357  14.159 -0.0527  0.2217 -0.0500
 5326W        W 8546  17.526  14.011   3.795  0.0501  0.0237 -0.1519
 5327W        W 8547   1.394   5.534  10.941  0.2610 -0.1109 -0.0729
 5328W        W 8548  13.765  14.259  14.345  0.0028  0.1093  0.0763
 5329W        W 8549  13.466  14.769  14.496  0.0682 -0.0145 -0.3904
 5330W        W 8550  17.096  14.641  17.532  0.3453 -0.0418 -0.1307
 5331W        W 8551   3.529   2.464  16.211 -0.0219  0.2227 -0.1270
 5332W        W 8552   7.780   3.887  15.660 -0.2133 -0.1511 -0.0716
 5333W        W 8553   0.163   6.262  11.896  0.2827  0.1202 -0.1031
 5334W        W 8554   5.648   8.934   3.977  0.0607  0.0126  0.3017
 5335W        W 8555  13.740  13.240  14.460  0.1693  0.3437 -0.4140
 5336W        W 8556   5.351   8.789  14.222  0.3741  0.1006  0.1751
 5337W        W 8557   2.989   8.745  11.317  0.0885  0.2064 -0.0116
 5338W        W 8558   1.889   3.766  15.671  0.2287 -0.1550 -0.1907
 5339W        W 8559   0.216   5.604  13.997 -0.2078  0.0270 -0.0265
 5340W        W 8560   2.981   7.911   8.625  0.3529 -0.0759 -0.0756
 5341W        W 8561   2.459  15.612  16.206  0.1177 -0.1117  0.1188
 5342W        W 8562   2.726  14.370  13.894 -0.0647 -0.0820  0.0983
 5343W        W 8563  13.793   8.185  12.659  0.0000  0.0123  0.1091
 5344W        W 8564   5.531   8.538   9.490  0.4144 -0.1339  0.1476
 5345W        W 8565   1.752  14.134  16.646 -0.0269  0.3632  0.0933
 5346W        W 8566  14.882  17.467  14.376  0.5059  0.0573 -0.0063
 5347W        W 8567   1.567  10.063  11.124 -0.0660 -0.0583 -0.1087
 5348W        W 8568   2.002  14.188   6.757 -0.1067  0.0420 -0.0558
 5349W        W 8569  15.943  10.113   6.901  0.2910  0.2184  0.0351
 5350W        W 8570  17.121  12.541  12.210  0.2122 -0.3275  0.2089
 5351W        W 8571  15.767   5.197   8.850 -0.1168  0.0858  0.0687
 5352W        W 8572  16.143   2.173  17.452 -0.0947 -0.1920 -0.3236
 5353W        W 8573   1.565   7.209  14.877 -0.0068  0.2223  0.1970
 5354W        W 8574   4.762  10.865   0.951  0.1305 -0.2390  0.0021
 5355W        W 8575   0.098  15.229  13.585  0.0407  0.1010  0.0157
 5356W        W 8576   2.872  11.283  15.413  0.0840  0.1508  0.0789
 5357W        W 8577   6.289  12.227   9.279 -0.3663  0.3121  0.0322
 5358W        W 8578   7.390  10.778  14.075 -0.0998  0.2361  0.3319
 5359W        W 8579  10.717   5.962  11.400 -0.0385  0.0249  0.0595
 5360W        W 8580  14.995  11.953  10.676 -0.0392 -0.0217  0.2104
 5361W        W 8581   1.423   8.993  15.443  0.1246  0.0841 -0.0873
 5362W        W 8582   6.051  11.681   7.765 -0.1023 -0.0959 -0.1472
 5363W        W 8583  17.405  10.770  12.860 -0.0185  0.2416 -0.3509
 5364W        W 8584  15.684  13.674  14.485  0.0241  0.0308  0.1903
 5365W        W 8585   0.320   6.943   9.788  0.3304  0.0118 -0.1045
 5366W        W 8586   2.244   5.469   4.274  0.3211  0.1388  0.1126
 5367W        W 8587   3.760   9.379   0.460  0.1087  0.0234 -0.1595
 5368W        W 8588  14.917   3.965  12.962 -0.1988  0.1904  0.0271
 5369W        W 8589  16.839   2.764  17.229 -0.0747 -0.0447 -0.2014
 5370W        W 8590   8.537   9.829  17.144  0.1662  0.3372 -0.2579
 5371W        W 8591  14.830  12.100  13.785 -0.2779  0.1481  0.0796
 5372W        W 8592   6.468   7.036  14.284  0.0356  0.0846 -0.0206
 5373W        W 8593  11.690  12.746   9.394  0.1696  0.1042  0.2605
 5374W        W 8594   1.967   6.724  16.417 -0.0011  0.0004 -0.0538
 5375W        W 8595   0.085  14.350  15.216 -0.1180  0.3497 -0.2382
 5376W        W 8596   0.375  16.764  14.502 -0.0373  0.1496 -0.0329
 5377W        W 8597  16.716  15.677  18.246  0.1005  0.0506 -0.0773
 5378W        W 8598   3.102   8.343  15.585 -0.2015  0.0589 -0.0563
 5379W        W 8599   2.839   0.645  12.476 -0.1204  0.0207  0.3462
 5380W        W 8600   1.641  11.010  18.163  0.2476 -0.1645  0.0788
 5381W        W 8601   2.163   6.231  14.116 -0.2469  0.1882  0.0445
 5382W        W 8602   6.420  10.926  10.527 -0.0146 -0.2629  0.1018
 5383W        W 8603   4.709  11.377   8.520  0.0635 -0.2310 -0.2743
 5384W        W 8604  17.928  15.289  13.845 -0.0133 -0.2066  0.1986
 5385W        W 8605  17.157   7.043   5.506 -0.3449  0.2736  0.1898
 5386W        W 8606   2.531   9.523   4.166 -0.0590 -0.4950  0.1588
 5387W        W 8607  15.049   6.723  15.456  0.0595 -0.0005 -0.2300
 5388W        W 8608  15.113  16.660   6.720 -0.0856 -0.0739 -0.2461
 5389W        W 8609   5.742  12.797  17.778  0.0723  0.2600  0.1665
 5390W        W 8610  14.951   8.996  15.141 -0.1054  0.0591 -0.0708
 5391W        W 8611   8.645  17.487   2.978 -0.2674 -0.2308  0.1366
 5392W        W 8612   0.442   8.333   0.828 -0.3293 -0.0161 -0.0333
 5393W        W 8613   7.770  13.290   4.708 -0.0825 -0.1042 -0.0249
 5394W        W 8614   2.790   2.437   9.061 -0.0203 -0.2412 -0.1823
 5395W        W 8615   2.068  10.367  12.401 -0.0165 -0.0502 -0.0584
 5396W        W 8616  14.731  10.533  15.380 -0.1552 -0.1336 -0.0070
 5397W        W 8617   4.866   7.384   1.974  0.0665  0.0355  0.0510
 5398W        W 8618   3.135  11.325  11.945 -0.0322  0.0320 -0.3740
 5399W        W 8619   6.738   4.901   5.397 -0.0020 -0.1429  0.1379
 5400W        W 8620   3.161   9.797  11.428 -0.0705  0.1707  0.0820
 5401W        W 8621  16.007   4.764  10.717 -0.1121  0.3304  0.2044
 5402W        W 8622  13.248  15.222  14.981 -0.0031 -0.0471  0.0206
 5403W        W 8623   4.353  10.825  16.602  0.1310 -0.0660 -0.0343
 5404W        W 8624   3.125   0.269  12.418 -0.1774 -0.1087  0.1622
 5405W        W 8625  18.041  13.639  14.479 -0.0411  0.1905  0.1146
 5406W        W 8626   1.220   6.466  14.173  0.7669  0.2515 -0.2080
 5407W        W 8627   8.665  13.454  16.781  0.1613  0.1969 -0.0354
 5408W        W 8628   6.611  13.670   8.531 -0.0691  0.1692 -0.0474
 5409W        W 8629  17.119   8.644  11.797 -0.4934 -0.4593  0.1621
 5410W        W 8630  17.077   2.783  12.878 -0.0292  0.1496 -0.0360
 5411W        W 8631   6.249   6.493   2.097 -0.0174  0.0116 -0.4118
 5412W        W 8632  16.238  11.219  11.203 -0.0651  0.2608  0.0773
 5413W        W 8633   3.903  11.185  13.812 -0.1544  0.0367  0.0274
 5414W        W 8634   0.938   1.278  15.242 -0.3244  0.0394  0.2218
 5415W        W 8635   2.588  15.180  15.347 -0.0390 -0.1750 -0.1121
 5416W        W 8636   7.838  10.156  16.678  0.2051  0.4181  0.1326
 5417W        W 8637   2.583   8.651   3.134 -0.1600  0.3491 -0.1112
 5418W        W 8638   0.779  13.944   6.044 -0.0370  0.1458 -0.1269
 5419W        W 8639  12.411  14.245  10.690  0.4130 -0.1572 -0.0690
 5420W        W 8640   5.881  16.186  10.302 -0.1144 -0.0189  0.0741
 5421W        W 8641   1.543  10.628  12.950 -0.1503 -0.0607  0.2619
 5422W        W 8642   4.603   9.510   2.420  0.1661 -0.2928  0.4324
 5423W        W 8643   1.875   4.159   4.076  0.0893  0.1669 -0.2269
 5424W        W 8644   5.544   8.286  10.965 -0.2837  0.1857  0.2256
 5425W        W 8645  18.247  12.829   9.759  0.1211  0.0096 -0.0460
 5426W        W 8646  15.544   4.581  11.182  0.0982  0.0093  0.1135
 5427W        W 8647   7.521  10.549  14.518 -0.2189 -0.1189 -0.1080
 5428W        W 8648   6.052  11.364  15.086 -0.2987  0.0698  0.1242
 5429W        W 8649   5.052   5.926  10.923  0.0548  0.2553 -0.2038
 5430W        W 8650   9.941  11.859  12.094 -0.1343 -0.1894 -0.1638
 5431W        W 8651   2.324  13.115  15.181 -0.2631  0.3350  0.1867
 5432W        W 8652   1.071  15.152  13.778 -0.0768 -0.2185  0.1990
 5433W        W 8653   6.987  10.397  11.855  0.0477 -0.1877  0.3432
 5434W        W 8654  13.434  14.958  16.811 -0.1030 -0.0918 -0.2520
 5435W        W 8655   0.058  14.306   8.596  0.4267 -0.0805  0.1763
 5436W        W 8656   7.420  10.473  13.362 -0.1426  0.2416 -0.0848
 5437W        W 8657   6.391   3.201   5.225  0.0726  0.0380  0.2742
 5438W        W 8658   2.881   7.286  11.543  0.3284 -0.1359  0.1126
 5439W        W 8659   2.377   5.263  14.590  0.2448 -0.1788 -0.1704
 5440W        W 8660   6.040  14.384  12.735 -0.1784 -0.2670 -0.2862
 5441W        W 8661   0.269   5.414  14.988 -0.1216 -0.3536 -0.1806
 5442W        W 8662   3.905   7.927  15.445  0.2464 -0.1608  0.2506
 5443W        W 8663   4.509  12.993   8.528 -0.1745 -0.0066 -0.0456
 5444W        W 8664   3.718  12.356   0.147  0.0675  0.0409  0.0631
 5445W        W 8665   4.899   6.775  13.242 -0.0559 -0.1119 -0.2732
 5446W        W 8666  14.955  10.206  11.825  0.0555 -0.0677 -0.1520
 5447W        W 8667  15.150   5.951  11.284  0.0701 -0.2492  0.1102
 5448W        W 8668   5.290  13.157   5.710 -0.0477 -0.2346  0.0928
 5449W        W 8669   6.387   7.325  12.963  0.0400  0.4440  0.1532
 5450W        W 8670  15.320  12.817   0.198  0.3548  0.1061 -0.3788
 5451W        W 8671  17.203  14.255  10.379 -0.0356  0.0499  0.2045
 5452W        W 8672   5.462   7.989  14.238  0.0349 -0.1818 -0.0367
 5453W        W 8673  15.850   6.693  15.761 -0.0107  0.0029  0.2233
 5454W        W 8674   6.524  13.844  10.016  0.1639 -0.2346 -0.0940
 5455W        W 8675   9.619   6.102  16.037 -0.0826  0.1207  0.1338
 5456W        W 8676   0.006  12.397  12.058  0.1733 -0.1314  0.3495
 5457W        W 8677   7.637   9.028   8.483  0.2540 -0.1385  0.1438
 5458W        W 8678  16.575   6.904   9.872 -0.2080 -0.1244  0.2075
 5459W        W 8679   4.539  12.996  13.197  0.0397 -0.0278 -0.0852
 5460W        W 8680  14.655   8.734   9.668 -0.1181 -0.2063  0.0671
 5461W        W 8681  16.858  14.073  11.253  0.1742  0.3444  0.1861
 5462W        W 8682   1.626   8.378  17.078 -0.1879  0.1580 -0.0165
 5463W        W 8683  16.323   7.102  11.603  0.6378 -0.0708 -0.0759
 5464W        W 8684   2.709  15.320  13.130  0.2047 -0.1763 -0.2266
 5465W        W 8685   4.779   7.186  15.451 -0.0098  0.5278 -0.1306
 5466W        W 8686  17.738   1.971  18.130  0.0594  0.2202  0.1705
 5467W        W 8687   8.131   9.305  16.445 -0.0579 -0.1928  0.4161
 5468W        W 8688   4.901   9.760  14.889 -0.0276 -0.1417  0.0976
 5469W        W 8689  10.113   0.634  16.983  0.0029  0.2545 -0.1345
 5470W        W 8690   6.072  10.962  12.869  0.2670 -0.0425  0.1186
 5471W        W 8691  15.677  14.880  10.638  0.2342 -0.4373  0.1573
 5472W        W 8692   1.164  13.074  11.701  0.1223 -0.1450  0.0748
 5473W        W 8693   0.653   9.387   8.916  0.0312 -0.1533  0.0495
 5474W        W 8694   2.262   3.065   9.247 -0.2197  0.1774  0.0582
 5475W        W 8695  15.952   9.019  15.495 -0.0025 -0.0221  0.1189
 5476W        W 8696   0.735   8.705  16.584  0.0123  0.0537 -0.0773
 5477W        W 8697   4.138   4.603  10.913 -0.0505 -0.0513 -0.3302
 5478W        W 8698  14.377  14.400  15.494  0.0221 -0.0278 -0.1693
 5479W        W 8699   0.492  13.430  13.858  0.0392  0.2613  0.0822
 5480W        W 8700   1.463   5.008  12.158 -0.0580 -0.1373 -0.1200
 5481W        W 8701   2.559  10.593  11.495 -0.1013 -0.1588 -0.1647
 5482W        W 8702  12.673  15.803  15.625  0.0533  0.1910  0.0975
 5483W        W 8703  16.039  10.237   9.765 -0.2192  0.1529 -0.1283
 5484W        W 8704   3.277  14.031  13.127 -0.0130 -0.2124  0.1084
 5485W        W 8705  17.909   0.030  14.824  0.2747 -0.0364 -0.0427
 5486W        W 8706  13.200  16.102   8.639 -0.0079 -0.1371  0.4053
 5487W        W 8707  14.581   8.692   2.583 -0.1238  0.1717 -0.0631
 5488W        W 8708   2.585   7.678   9.440  0.1679 -0.0824  0.0374
 5489W        W 8709   3.252   8.935  11.801  0.0966  0.3022 -0.1519
 5490W        W 8710  16.436   6.310  13.388 -0.1023 -0.0947  0.0091
 5491W        W 8711   2.502   5.519  10.276 -0.1191  0.0385 -0.0209
 5492W        W 8712  13.106   5.086  18.066  0.0674 -0.1689  0.0708
 5493W        W 8713   3.380   9.259   6.645  0.1581 -0.3829  0.1442
 5494W        W 8714   4.636  12.528   1.069 -0.1796 -0.2797 -0.1860
 5495W        W 8715   4.022  14.438  16.463  0.1290  0.0554  0.0902
 5496W        W 8716   4.884  10.217   6.448  0.0572 -0.3407  0.0711
 5497W        W 8717   4.429  11.817  12.523  0.1222  0.2940 -0.0306
 5498W        W 8718   0.420   0.459   1.162  0.0335  0.2289  0.2543
 5499W        W 8719  17.182   6.013  12.140  0.0766  0.2755 -0.0389
 5500W        W 8720   3.025   7.389  16.400  0.1302 -0.3090 -0.3181
 5501W        W 8721   6.106   3.295  13.692  0.0861  0.1240  0.3607
 5502W        W 8722   2.744   4.576   5.458  0.1426 -0.0723  0.0957
 5503W        W 8723   0.149  17.262   1.314  0.1318  0.1289  0.0571
 5504W        W 8724   0.855   7.971   7.038 -0.1912 -0.0178  0.1085
 5505W        W 8725  13.513   2.088  15.501  0.1547 -0.0259 -0.1096
 5506W        W 8726   4.507   7.923  17.673 -0.1760 -0.0242 -0.1030
 5507W        W 8727   8.219  11.486   4.563 -0.0934 -0.1058 -0.0628
 5508W        W 8728   1.440   3.344  13.980 -0.0432 -0.3529 -0.1710
 5509W        W 8729  14.873   7.646  17.474  0.1337 -0.0806 -0.1230
 5510W        W 8730   0.613   7.334  10.421 -0.1253 -0.0570  0.0196
 5511W        W 8731  16.374   3.620  16.221  0.1976 -0.0037  0.0051
 5512W        W 8732  17.890  12.800  10.979  0.3140  0.1802 -0.1494
 5513W        W 8733   4.203   5.672   1.613  0.1708  0.0698 -0.0794
 5514W        W 8734   3.062  12.000   9.300  0.1525 -0.2939 -0.0365
 5515W        W 8735   7.178  10.686   0.751 -0.2952 -0.2273  0.1155
 5516W        W 8736   3.143  10.530  13.174 -0.1551 -0.3279  0.0223
 5517W        W 8737  16.453  11.080   9.212  0.2252 -0.2646 -0.1351
 5518W        W 8738   2.435   9.244  13.344 -0.0947 -0.1096  0.0730
 5519W        W 8739  15.078  10.436  12.973  0.1364  0.0185  0.0494
 5520W        W 8740  17.531   9.996  17.247 -0.0662  0.2312  0.0504
 5521W        W 8741  15.676   2.822  15.499 -0.2409 -0.2249  0.0734
 5522W        W 8742   4.177  18.045  13.174  0.0535 -0.2211  0.0997
 5523W        W 8743   3.294  12.240   0.913  0.2595  0.1776  0.1363
 5524W        W 8744   6.500   8.387  15.985 -0.1650 -0.0053 -0.1979
 5525W        W 8745   1.961   6.230   0.951  0.2955  0.1589 -0.0183
 5526W        W 8746   1.802   5.507  11.305 -0.1462 -0.2100 -0.0765
 5527W        W 8747   9.763  13.179  13.118  0.0981 -0.1246  0.0624
 5528W        W 8748  17.021   9.243  15.970  0.1270  0.1246 -0.1328
 5529W        W 8749   0.228  14.994   0.638  0.0920  0.1638 -0.0434
 5530W        W 8750   3.710  12.150  11.626 -0.0891 -0.2599 -0.0504
 5531W        W 8751  14.111  14.297  11.349 -0.1705 -0.1026  0.0814
 5532W        W 8752  16.410   5.244   4.267 -0.1170  0.1505 -0.3074
 5533W        W 8753  14.732   5.232  13.367 -0.0355 -0.1968  0.0588
 5534W        W 8754  17.307  11.133  13.290  0.1773 -0.1811 -0.0371
 5535W        W 8755   0.479   4.840  16.890 -0.2793 -0.4416  0.1417
 5536W        W 8756   6.532  11.511   1.238  0.0920  0.0065  0.1335
 5537W        W 8757   3.712   4.106   9.384 -0.0305  0.0347  0.1661
 5538W        W 8758   1.999  13.532  15.019 -0.1775  0.1583  0.1336
 5539W        W 8759   5.182  11.057  16.301 -0.0704  0.1074  0.2619
 5540W        W 8760   2.891   5.140  12.141 -0.0259  0.3037  0.2675
 5541W        W 8761  11.385   4.452  16.370 -0.2639  0.1278  0.1446
 5542W        W 8762   3.026   9.519  17.393  0.1152 -0.1929  0.0099
 5543W        W 8763  10.235   4.963   8.967  0.0936 -0.1075  0.2188
 5544W        W 8764   1.067   4.050  15.104 -0.1611 -0.2977  0.1222
 5545W        W 8765  12.384  12.123  11.901  0.0294  0.1199 -0.1016
 5546W        W 8766   1.761  10.446  15.209 -0.0052 -0.1276 -0.0305
 5547W        W 8767   4.649  10.822  13.867  0.0688 -0.0708 -0.1340
 5548W        W 8768   2.311   3.254  17.877 -0.1196  0.1030  0.0108
 5549W        W 8769   3.211  18.017  10.889 -0.0582 -0.1495 -0.1722
 5550W        W 8770  16.015   9.425  13.737  0.0365  0.2008  0.1763
 5551W        W 8771   0.902   1.490  11.859 -0.4343 -0.3489  0.2972
 5552W        W 8772  14.268  10.554  16.131 -0.1226  0.0601  0.0806
 5553W        W 8773   3.755  18.047   7.097  0.0773 -0.2093 -0.1294
 5554W        W 8774   4.804  10.673  16.440  0.3258 -0.0352  0.0531
 5555W        W 8775  12.249  12.184  16.341  0.0228 -0.3369  0.3760
 5556W        W 8776   5.771   5.494  13.746  0.0723 -0.3079  0.2082
 5557W        W 8777  17.210  17.724  14.146  0.0577  0.0051 -0.0821
 5558W        W 8778   0.494  13.227   0.136 -0.0031  0.2459  0.2466
 5559W        W 8779   5.417   7.943  11.313  0.1169 -0.1641 -0.0268
 5560W        W 8780  15.104   4.050   6.359  0.0578 -0.0820  0.0407
 5561W        W 8781  15.694  10.703   4.195 -0.1529 -0.0336 -0.2670
 5562W        W 8782   5.593  12.483  13.188  0.0673 -0.0014  0.0781
 5563W        W 8783   3.433   6.488  15.408 -0.0890  0.3307 -0.1885
 5564W        W 8784  17.479  10.861   0.178 -0.0082 -0.3405  0.0988
 5565W        W 8785  15.967  14.007  13.948  0.0286  0.0216 -0.0410
 5566W        W 8786  12.882   8.789  13.016 -0.2705 -0.0270 -0.1317
 5567W        W 8787   3.423   6.056  16.313 -0.2424 -0.0994 -0.1541
 5568W        W 8788   6.483   6.390  17.563 -0.0931  0.2018 -0.3188
 5569W        W 8789   2.417  14.810   4.372 -0.0151  0.1265  0.0437
 5570W        W 8790  13.375  14.969   5.162 -0.0537  0.0853  0.2470
 5571W        W 8791   0.388   9.455   4.389  0.0250 -0.0732  0.2007
 5572W        W 8792   2.715  16.780  13.048 -0.1365  0.0363  0.0249
 5573W        W 8793   1.369   8.041  10.365 -0.2899 -0.2620 -0.4095
 5574W        W 8794   1.512  13.379  17.654 -0.5724 -0.1211  0.0524
 5575W        W 8795   2.821   7.904   2.348  0.2525 -0.3462 -0.1061
 5576W        W 8796   3.582   1.074  16.039 -0.1087  0.3537  0.0801
 5577W        W 8797  17.931   6.116  14.528 -0.1562  0.3524  0.1670
 5578W        W 8798   1.489   0.577   0.374  0.0719 -0.0459 -0.1281
 5579W        W 8799   2.472   9.641   4.641  0.0413 -0.1338  0.1029
 5580W        W 8800   2.342   4.709  17.466  0.0516 -0.3224  0.0757
 5581W        W 8801   4.381  13.869  12.872 -0.1738  0.0229 -0.0629
 5582W        W 8802   1.356  11.503   1.968  0.1089 -0.1374  0.0076
 5583W        W 8803  17.992  15.362  16.804  0.2489  0.2660  0.1865
 5584W        W 8804   2.800   9.203   0.844  0.0921 -0.1364  0.2866
 5585W        W 8805  16.774   7.899   1.548  0.0564 -0.0526  0.1376
 5586W        W 8806   1.679   6.965   2.801  0.2023  0.3191  0.3733
 5587W        W 8807  16.876   8.868  12.208 -0.2201  0.3262  0.2681
 5588W        W 8808   6.484   9.740  16.627 -0.0640 -0.1126 -0.0656
 5589W        W 8809   0.717   6.644  12.618  0.0578 -0.1255 -0.1264
 5590W        W 8810   3.700   9.030  12.230  0.0705 -0.3355  0.1365
 5591W        W 8811   0.497  15.884   2.891 -0.1805 -0.1321 -0.1561
 5592W        W 8812   3.397  11.661   6.271  0.0962  0.2432 -0.0569
 5593W        W 8813   3.106  10.062   3.315 -0.0397 -0.5172  0.1621
 5594W        W 8814  16.967  15.097   6.876  0.4210 -0.0168 -0.1337
 5595W        W 8815   7.022  13.698   6.636 -0.0964 -0.0105 -0.1010
 5596W        W 8816   1.126  14.147  12.087 -0.1346 -0.0784 -0.4126
 5597W        W 8817  14.561   1.445  15.316 -0.1274 -0.1956  0.1352
 5598W        W 8818   0.127  14.974   2.237 -0.1225  0.1479 -0.2114
 5599W        W 8819   0.895  16.071  17.541  0.0564 -0.0513 -0.2921
 5600W        W 8820  14.106   7.267   5.130  0.1568  0.2350 -0.2072
 5601W        W 8821   5.875  11.054  16.486 -0.0027 -0.1919 -0.1214
 5602W        W 8822  17.237  10.038  16.774  0.0986 -0.4744 -0.1519
 5603W        W 8823   6.508  12.328  14.811  0.1948 -0.2773  0.0610
 5604W        W 8824   1.298  16.176   0.645 -0.1394 -0.1820  0.0643
 5605W        W 8825  18.054   1.525  17.404  0.1171 -0.1784 -0.1055
 5606W        W 8826   2.343   2.222  10.407 -0.0520  0.0309  0.0427
 5607W        W 8827  18.177  15.567   2.341  0.0420 -0.2616  0.3290
 5608W        W 8828   3.626  10.893   0.711 -0.0826 -0.0353  0.1216
 5609W        W 8829  10.168   1.246  11.561  0.2507  0.1026 -0.0502
 5610W        W 8830   7.532   8.392  16.407  0.1654 -0.1695  0.0228
 5611W        W 8831   5.051   6.993   3.865  0.2889 -0.3609 -0.0926
 5612W        W 8832  11.964  14.706  12.240  0.1355  0.1473  0.0075
 5613W        W 8833   5.318  12.620  14.264  0.1165  0.2248  0.1255
 5614W        W 8834  13.553  11.558   0.037  0.1407 -0.0702  0.2228
 5615W        W 8835   0.691   3.785  12.883 -0.0888  0.0974  0.1618
 5616W        W 8836  17.087   8.944  15.590  0.0832 -0.0694 -0.1240
 5617W        W 8837   5.061   9.116  13.104  0.2243 -0.1240 -0.0643
 5618W        W 8838   3.015   9.576   1.095 -0.0523  0.1281 -0.1760
 5619W        W 8839   2.856   6.462  15.429 -0.1030 -0.0243 -0.3620
 5620W        W 8840  16.830   9.547   9.361  0.1678 -0.1795  0.0457
 5621W        W 8841  11.274  10.737   2.358 -0.1785 -0.0286 -0.0394
 5622W        W 8842   3.028  11.359   1.747 -0.1292  0.1120  0.1953
 5623W        W 8843   5.280  10.699  13.829 -0.2215 -0.0213 -0.1042
 5624W        W 8844   2.384  10.391  17.468  0.0667 -0.4905  0.2420
 5625W        W 8845   5.627  10.064  17.605  0.2746 -0.3665  0.1912
 5626W        W 8846  18.030  11.384   1.392  0.0704 -0.2402 -0.0083
 5627W        W 8847  17.286   6.712  17.862 -0.0907  0.1741  0.2727
 5628W        W 8848  17.793  12.581  12.380  0.0811  0.3454 -0.2798
 5629W        W 8849   5.276  10.898  15.459  0.0224 -0.0320  0.2416
 5630W        W 8850   4.227  13.617   0.165 -0.1411 -0.3376 -0.1859
 5631W        W 8851   6.821  10.982   2.319 -0.3714 -0.0491 -0.1308
 5632W        W 8852   1.119   9.757  17.665 -0.1456 -0.1920  0.1215
 5633W        W 8853   2.405   7.985   4.898  0.1695  0.1100 -0.1819
 5634W        W 8854   3.992   7.849   1.534  0.0203  0.4585  0.6015
 5635W        W 8855   3.619  14.388   3.228  0.2095 -0.0465  0.0709
 5636W        W 8856   4.460   2.437  13.166  0.0175  0.0238  0.1120
 5637W        W 8857   8.499  10.478  16.151  0.0248  0.0789 -0.1904
 5638W        W 8858  15.304  11.569   4.342  0.2265 -0.2240  0.1589
 5639W        W 8859   3.151  13.029  15.767 -0.0664  0.0897  0.0905
 5640W        W 8860  15.394   1.791   6.244  0.0767  0.1412 -0.0015
 5641W        W 8861  14.847   5.751   1.871  0.0320 -0.5944  0.2803
 5642W        W 8862  10.555  16.131  12.481 -0.2958 -0.0785 -0.2977
 5643W        W 8863   7.633  11.392  13.768 -0.2686  0.0070  0.2213
 5644W        W 8864   4.697   8.514   0.416 -0.0767 -0.1424 -0.0402
 5645W        W 8865   1.826   9.436   2.009  0.2395  0.0885 -0.1862
 5646W        W 8866   4.702  17.932   9.686 -0.5143 -0.4148  0.0518
 5647W        W 8867   1.573   9.936  10.111 -0.0571  0.0484 -0.0116
 5648W        W 8868   5.580   8.771  16.301 -0.1695 -0.0369 -0.0762
 5649W        W 8869   2.030  10.622  13.197 -0.0815  0.4886 -0.1181
 5650W        W 8870   1.146  10.508  13.395  0.3286  0.1121  0.0487
 5651W        W 8871  12.344   5.415   2.012  0.2210  0.0751  0.1353
 5652W        W 8872   2.716   9.163  14.546 -0.1382  0.0649  0.2154
 5653W        W 8873   0.420  11.733  13.936 -0.0371 -0.1496  0.1881
 5654W        W 8874   1.169   9.948  10.481 -0.0226  0.0068  0.1932
 5655W        W 8875   8.766   1.745  16.833 -0.1506 -0.2935  0.1003
 5656W        W 8876   2.050  13.429  14.127 -0.0548 -0.1502  0.0865
 5657W        W 8877  17.370  13.041  16.112  0.1501 -0.0929 -0.1401
 5658W        W 8878  16.605  14.865   2.142 -0.1340 -0.0133  0.1971
 5659W        W 8879   6.574  10.740  11.786  0.0358  0.0125  0.0038
 5660W        W 8880  17.922   0.684   0.170 -0.3748  0.1795  0.1193
 5661W        W 8881   6.635   7.252  16.096  0.2229 -0.2795  0.1937
 5662W        W 8882  17.247  14.533   0.836  0.0214 -0.0723  0.1103
 5663W        W 8883   8.450   3.494  16.144  0.2551  0.1307  0.1043
 5664W        W 8884   0.658   7.790  15.343  0.0614 -0.0994  0.0078
 5665W        W 8885   3.074  10.845  16.105 -0.0666 -0.2052 -0.2144
 5666W        W 8886   4.108   7.284   4.795  0.1178 -0.1242 -0.0110
 5667W        W 8887   3.348  10.018  15.471  0.2611  0.1925  0.0300
 5668W        W 8888   2.144   8.435  14.415 -0.0031 -0.0660  0.4171
 5669W        W 8889   2.820   3.792   6.165 -0.1598  0.3287 -0.3500
 5670W        W 8890  11.550  10.130   5.102  0.1216  0.1562 -0.0289
 5671W        W 8891   9.002   9.944  10.456 -0.0844 -0.0674  0.0003
 5672W        W 8892   2.389   9.586   2.134  0.0445  0.3194 -0.0604
 5673W        W 8893   1.155  10.954   1.230  0.3868  0.1937 -0.2088
 5674W        W 8894  17.271   4.426  16.535  0.1763  0.2105  0.1564
 5675W        W 8895   7.224  13.768  15.541  0.0103  0.0836  0.2566
 5676W        W 8896   6.057  14.987  14.794  0.3456 -0.2648  0.1583
 5677W        W 8897   1.805  13.992   9.915  0.3330 -0.0827 -0.0368
 5678W        W 8898   4.623   4.454  10.114 -0.1806 -0.0109 -0.0733
 5679W        W 8899  12.267   0.714  13.979 -0.1093 -0.4245 -0.1611
 5680W        W 8900   3.098  14.986  17.430 -0.2206  0.0895 -0.1980
 5681W        W 8901  14.410  13.834  12.133  0.1298 -0.2763  0.3296
 5682W        W 8902  10.160  13.462  10.882  0.0657 -0.1992 -0.0114
 5683W        W 8903   6.323   7.135   0.902  0.1951  0.1923  0.1009
 5684W        W 8904  14.580   8.703  15.200  0.0429  0.0530 -0.0274
 5685W        W 8905   1.151   3.997   3.089 -0.1356 -0.1374 -0.2039
 5686W        W 8906   3.501  10.549  16.175  0.3041  0.3723 -0.0585
 5687W        W 8907  16.767   8.290  15.290 -0.1552 -0.2178 -0.2964
 5688W        W 8908   3.587  14.347   5.806 -0.0778  0.0828 -0.1990
 5689W        W 8909   1.227  10.040   1.594  0.0467 -0.1946  0.1462
 5690W        W 8910   1.907   0.952   2.537 -0.0166  0.1845 -0.0171
 5691W        W 8911   7.304  10.727  12.061  0.0468  0.1196 -0.0040
 5692W        W 8912  10.052  10.557   0.345 -0.1155 -0.0196 -0.0596
 5693W        W 8913   2.155  12.006  15.530 -0.1074  0.1261 -0.1517
 5694W        W 8914   7.812   9.126  15.178  0.1298  0.2120  0.0083
 5695W        W 8915   1.525  11.428   3.445  0.0834  0.0789 -0.0073
 5696W        W 8916   1.466   2.779   1.028  0.0098 -0.1227 -0.1086
 5697W        W 8917   8.212   5.686  11.661 -0.1085 -0.0629  0.2580
 5698W        W 8918  17.623  11.496   5.042  0.1798 -0.3728  0.1690
 5699W        W 8919   8.446   8.179   2.424  0.0713  0.0134  0.0975
 5700W        W 8920  17.326   4.598  12.783 -0.1778 -0.3671  0.0261
 5701W        W 8921  13.805   6.234   4.136 -0.0662  0.3999 -0.4033
 5702W        W 8922   4.686  10.634   1.655 -0.1150 -0.1961  0.0503
 5703W        W 8923   5.422   5.323  14.971 -0.2708 -0.0021  0.1526
 5704W        W 8924   6.703   0.875  12.451 -0.1266 -0.2129  0.0081
 5705W        W 8925   2.885  13.012  17.550  0.2231 -0.1142 -0.0807
 5706W        W 8926   1.385  11.844   1.000  0.1007  0.0021  0.0059
 5707W        W 8927   5.049   6.547   1.368  0.1927 -0.3639  0.2001
 5708W        W 8928   0.996   7.818   1.034 -0.0344  0.1836 -0.1495
 5709W        W 8929   3.507  10.243   7.691 -0.1653 -0.0946  0.2232
 5710W        W 8930   6.174   8.065   0.101 -0.0003 -0.2157 -0.0144
 5711W        W 8931   4.044  10.382   6.899 -0.2544 -0.0731  0.2403
 5712W        W 8932   8.390   5.377   2.875 -0.0955  0.0364 -0.0388
 5713W        W 8933   5.734   4.790   5.503  0.1453 -0.2559  0.0671
 5714W        W 8934   0.532   7.322  13.672  0.0940  0.4499 -0.5851
 5715W        W 8935  15.440   2.634  10.560  0.1778 -0.0183  0.0241
 5716W        W 8936   4.348   3.289  10.314  0.1645  0.0255 -0.0712
 5717W        W 8937   0.322   7.457  17.378  0.1295  0.1875 -0.0011
 5718W        W 8938   7.631   9.516   1.879  0.1359  0.1109 -0.4515
 5719W        W 8939  18.040   7.772   2.922 -0.2463  0.1176  0.2156
 5720W        W 8940  16.139  14.924   2.468  0.1360 -0.0394 -0.1583
 5721W        W 8941   4.777   9.968  14.081  0.1357 -0.3055 -0.4835
 5722W        W 8942   5.090   9.819  14.435  0.2497  0.0921  0.0678
 5723W        W 8943  17.922   7.434   3.340  0.1788  0.1909  0.0170
 5724W        W 8944   0.928  14.726  17.373  0.2587 -0.0209  0.0451
 5725W        W 8945  17.967  11.796  10.959  0.2170 -0.0339  0.3915
 5726W        W 8946   3.200   8.025   3.477 -0.1768  0.1100  0.3182
 5727W        W 8947   3.028  15.117  15.625  0.2229 -0.0266  0.0855
 5728W        W 8948  17.508  11.723  16.576  0.0286  0.0880  0.0569
 5729W        W 8949   7.546   8.134   0.779  0.1091 -0.1166 -0.0191
 5730W        W 8950   9.924   4.029  16.305  0.2084 -0.0701 -0.0270
 5731W        W 8951   4.763  15.441   4.025 -0.1345  0.2704 -0.0643
 5732W        W 8952  14.347   7.431   2.432  0.0485 -0.0662  0.4528
 5733W        W 8953   9.858   3.707   1.511  0.0436 -0.0576 -0.0814
 5734W        W 8954   5.894  11.356  18.009  0.1000  0.1298  0.1643
 5735W        W 8955   5.592   7.616   4.467 -0.0685  0.1722  0.1392
 5736W        W 8956   5.017  13.579  16.453  0.0322 -0.2787  0.0441
 5737W        W 8957   2.308   5.421  13.588  0.2138 -0.2366  0.2587
 5738W        W 8958  12.103  12.161  14.776 -0.0288  0.3074 -0.0224
 5739W        W 8959   6.262  11.121  18.213 -0.0379  0.2025 -0.4007
 5740W        W 8960   6.357   7.642  13.705  0.3104 -0.3662 -0.1960
 5741W        W 8961   0.750  14.294  12.364  0.1963 -0.0825  0.1599
 5742W        W 8962   7.720  12.957  16.566  0.1837 -0.0978 -0.0040
 5743W        W 8963   4.216   6.468  16.467  0.0320  0.0888  0.1856
 5744W        W 8964   4.811  11.236  16.578 -0.0024  0.3443  0.0741
 5745W        W 8965  16.432  10.770  14.916  0.0008  0.0752  0.1733
 5746W        W 8966  17.180   5.377  18.259  0.1131 -0.0048 -0.1655
 5747W        W 8967  16.529   7.998  11.993  0.0197 -0.0360 -0.1188
 5748W        W 8968   8.065  12.129  17.633  0.1889 -0.0457 -0.0251
 5749W        W 8969   6.092   5.253  17.201 -0.1982  0.1323 -0.0373
 5750W        W 8970   3.395  11.503  10.097  0.2393  0.1312 -0.0646
 5751W        W 8971  18.259   7.082   1.267  0.0324 -0.0957 -0.0895
 5752W        W 8972   7.189   7.622  12.174 -0.0651 -0.0996 -0.1603
 5753W        W 8973  16.150   6.377   1.211 -0.0018  0.0636 -0.1660
 5754W        W 8974   2.010  13.483   1.553 -0.0888  0.1740  0.0922
 5755W        W 8975   3.005   6.936  15.480  0.0652  0.0656  0.0557
 5756W        W 8976  17.783   8.900  13.538  0.0621 -0.0185 -0.2770
 5757W        W 8977  15.141  18.003   8.256 -0.0683 -0.0279 -0.1374
 5758W        W 8978  13.776  10.751  16.874  0.0083  0.0013  0.0540
 5759W        W 8979   6.395  10.203  16.444  0.0564 -0.0239 -0.0599
 5760W        W 8980   3.803   3.958   2.135  0.1042  0.0636 -0.3259
 5761W        W 8981   2.806   5.575  16.915 -0.1894 -0.0394 -0.1685
 5762W        W 8982  16.131  11.538   1.801 -0.0876 -0.0658 -0.1734
 5763W        W 8983   0.066  11.276  11.363  0.0783 -0.0316 -0.0206
 5764W        W 8984   0.657  13.973  14.126  0.0680 -0.0992 -0.1208
 5765W        W 8985  15.660   7.891  15.431  0.0908  0.0577  0.1132
 5766W        W 8986   1.113  12.320  13.539 -0.1597 -0.1211  0.2351
 5767W        W 8987   3.790   9.980  15.246  0.0727  0.1003 -0.1278
 5768W        W 8988   6.366  11.550   0.195 -0.0775 -0.3088 -0.1543
 5769W        W 8989  17.220   7.276   6.515  0.0484  0.0483 -0.4029
 5770W        W 8990   3.427  11.345  16.792  0.2362  0.0804 -0.2229
 5771W        W 8991   7.491   4.279  13.027  0.1026  0.1225  0.1884
 5772W        W 8992  17.407   8.212  14.732 -0.1576  0.1175  0.0490
 5773W        W 8993   8.322  11.682   0.004 -0.2479 -0.1223 -0.3242
 5774W        W 8994   5.098   0.589   0.666  0.1084  0.2439 -0.0653
 5775W        W 8995   3.631   7.848  12.980  0.0934 -0.1517 -0.1941
 5776W        W 8996  17.686   9.823   2.332 -0.3939 -0.0134  0.0276
 5777W        W 8997   9.855   5.755   1.053 -0.2255  0.4961  0.0950
 5778W        W 8998   2.524  14.710  14.302  0.1328 -0.0848 -0.2058
 5779W        W 8999  14.153   6.151  14.442 -0.0059 -0.1019  0.1771
 5780W        W 9000   3.274  11.007  12.530  0.2272  0.1374 -0.3268
 5781W        W 9001   6.753   6.862   2.705 -0.0526  0.0719  0.0617
 5782W        W 9002  15.666  16.247   1.374 -0.1555 -0.1497  0.0607
 5783W        W 9003   2.038  10.417   1.110  0.0616  0.1713  0.0850
 5784W        W 9004  15.277  16.610  10.449  0.3398  0.2507  0.1585
 5785W        W 9005   3.601   8.326   3.390  0.0055  0.0627  0.0617
 5786W        W 9006  17.021   4.168   3.088 -0.1022  0.0985 -0.0582
 5787W        W 9007   2.684   8.356   1.399 -0.2808  0.0411 -0.2634
 5788W        W 9008   2.863  10.716  13.570 -0.1434 -0.2897 -0.0798
 5789W        W 9009   2.518  12.161   2.094  0.0110 -0.0848 -0.1543
 5790W        W 9010   2.124   8.463   1.832 -0.0337 -0.0552  0.1672
 5791W        W 9011   2.307  13.244  13.162 -0.2355  0.0569  0.0382
 5792W        W 9012   6.673   4.084  11.066 -0.0724 -0.4289  0.2004
 5793W        W 9013  16.015   6.543  16.657 -0.0703  0.1480  0.0178
 5794W        W 9014   6.134  17.306   2.113 -0.2083 -0.2759 -0.2664
 5795W        W 9015   3.214   8.538   0.164 -0.0997  0.0442  0.1211
 5796W        W 9016   3.522   8.854   3.159  0.1590  0.0904  0.2660
 5797W        W 9017  15.891   0.429   0.668  0.2506 -0.1626  0.0335
 5798W        W 9018   2.794  14.136   3.158  0.0223  0.0184 -0.4147
 5799W        W 9019   2.700  13.501  15.155 -0.1643  0.1534  0.1556
 5800W        W 9020   4.554  11.732  13.474  0.0249  0.0483 -0.0926
 5801W        W 9021  17.311   7.262   9.814  0.1536  0.0797  0.1286
 5802W        W 9022  15.708   5.913  13.376 -0.2900 -0.0870  0.0335
 5803W        W 9023   0.252  13.484  16.230  0.1379  0.0203 -0.0422
 5804W        W 9024  13.593   8.005   2.263  0.0016 -0.1267  0.1391
 5805W        W 9025   5.330   1.871  17.385  0.1553 -0.0175  0.0774
 5806W        W 9026  15.573  10.620   5.195 -0.1592 -0.1012 -0.2655
 5807W        W 9027   0.008   2.711  13.324  0.1717 -0.0013 -0.2486
 5808W        W 9028   7.359   7.051  10.615  0.0548  0.2749 -0.0349
 5809W        W 9029   8.706   7.195   1.710  0.1840 -0.0523 -0.0052
 5810W        W 9030  16.839  13.208  14.944 -0.0569 -0.0699 -0.0072
 5811W        W 9031   1.059  15.105  12.856  0.0029  0.2395  0.1625
 5812W        W 9032   2.217  17.194  11.282 -0.2570  0.2904  0.2831
 5813W        W 9033   4.164   7.884   1.036  0.2132  0.3765  0.3613
 5814W        W 9034   4.034   9.165  11.822 -0.1048  0.0373  0.0830
 5815W        W 9035   2.318  15.098  11.303 -0.2923  0.1678  0.1658
 5816W        W 9036   0.703  16.098  17.000 -0.0505 -0.1266  0.0097
 5817W        W 9037   8.255  10.201  15.119  0.1241 -0.0544  0.1629
 5818W        W 9038   0.505   8.991   1.652 -0.2087 -0.0279 -0.1919
 5819W        W 9039   0.727  11.553  17.869 -0.0443 -0.0189 -0.0063
 5820W        W 9040  13.444   8.090   0.380 -0.5858 -0.1321  0.0301
 5821W        W 9041  17.612  10.786   8.348 -0.0251  0.2911 -0.0836
 5822W        W 9042   5.740  14.161  15.542 -0.3523  0.1358 -0.1027
 5823W        W 9043   5.232  14.768  16.762 -0.0048  0.1055  0.2029
 5824W        W 9044  18.161   3.613   2.486 -0.3605  0.1512 -0.3862
 5825W        W 9045   4.405   5.031  15.844 -0.0269  0.2552  0.0520
 5826W        W 9046  15.358  10.882   1.253  0.2785 -0.0530 -0.0665
 5827W        W 9047   6.938   5.292   9.244  0.0670  0.1787 -0.0120
 5828W        W 9048  13.858   5.737   3.224  0.3051 -0.0543  0.0825
 5829W        W 9049   4.473  17.483  17.332 -0.0715 -0.0906  0.0667
 5830W        W 9050   7.527   8.822  14.913 -0.1315 -0.2872 -0.0124
 5831W        W 9051   0.738  15.260  17.425 -0.2232 -0.1042  0.1871
 5832W        W 9052   2.748  12.015  17.844 -0.0149 -0.2795  0.1012
 5833W        W 9053  16.629   5.761  16.667 -0.1385 -0.0752  0.3779
 5834W        W 9054   4.438  11.408   0.241  0.0957  0.0333 -0.0718
 5835W        W 9055   0.326  14.891  16.071 -0.1056  0.1149 -0.1304
 5836W        W 9056  10.843   0.842  14.472  0.0166  0.2887 -0.0817
 5837W        W 9057   2.534   7.075   6.317 -0.0585 -0.0091 -0.2069
 5838W        W 9058   2.253   8.283  16.996  0.1299 -0.1943  0.1367
 5839W        W 9059   1.767   2.407  17.140 -0.2133  0.0965  0.0978
 5840W        W 9060   3.075   1.352   9.670 -0.3027 -0.0759  0.0829
 5841W        W 9061   2.517   6.590   3.967  0.2100 -0.5814 -0.1640
 5842W        W 9062   7.951  10.188  14.564 -0.1046  0.1261 -0.0119
 5843W        W 9063  13.436   5.847   6.607 -0.1981 -0.1765 -0.0175
 5844W        W 9064   8.759   0.917  16.094 -0.1304 -0.3048  0.2897
 5845W        W 9065   2.333   5.927  11.139  0.1454 -0.1499 -0.0814
 5846W        W 9066   2.915   9.758  13.555 -0.0992 -0.0857  0.2081
 5847W        W 9067  11.824  16.082   6.881  0.0645  0.1024  0.1193
 5848W        W 9068   3.644   9.561  15.605  0.0598  0.3285  0.1062
 5849W        W 9069   0.849   2.344  16.946 -0.1622  0.4132  0.0913
 5850W        W 9070  15.991   3.338  16.238 -0.0665 -0.0898 -0.0937
 5851W        W 9071   2.500  10.595  13.176 -0.1145  0.0306 -0.2457
 5852W        W 9072   3.810  15.021   1.761  0.0188 -0.0042  0.1367
 5853W        W 9073   9.796   8.133  18.195 -0.0049 -0.0685 -0.0198
 5854W        W 9074   5.136   5.398  16.440  0.1103 -0.1100 -0.1913
 5855W        W 9075  11.091   6.195   2.662  0.1056  0.1287 -0.2170
 5856W        W 9076  15.305  10.333   0.247 -0.3654  0.1604 -0.2083
 5857W        W 9077   2.548   5.211   3.382  0.3209 -0.1933 -0.0035
 5858W        W 9078   5.275  12.806  16.409 -0.3129  0.0982 -0.6243
 5859W        W 9079  12.572   9.388   9.983 -0.0390 -0.0012  0.2741
 5860W        W 9080  17.722  10.393   0.351  0.0936  0.0890  0.1186
 5861W        W 9081  17.275   4.547   2.694  0.1592  0.0895  0.0531
 5862W        W 9082   1.667  12.545  13.043  0.4801  0.2706  0.1842
 5863W        W 9083  17.679   2.772   2.990  0.0763  0.1070 -0.0571
 5864W        W 9084   4.748   8.217   9.264 -0.0924 -0.2103 -0.1704
 5865W        W 9085   6.928   3.472   7.889  0.0869 -0.1198  0.2002
 5866W        W 9086  10.418   4.325   1.050 -0.4514 -0.1029  0.1097
 5867W        W 9087   5.177  10.580   1.353  0.0195  0.1428  0.0524
 5868W        W 9088   1.086  12.329  12.522 -0.1352  0.0607 -0.3501
 5869W        W 9089   4.514  14.679   0.195  0.0854  0.1221  0.1563
 5870W        W 9090   1.918   7.485  15.073  0.1822  0.1509  0.2002
 5871W        W 9091   6.417   7.111  16.817 -0.0158  0.2445  0.2317
 5872W        W 9092  16.819   9.737   6.265  0.1793  0.2086  0.0759
 5873W        W 9093   0.670   8.394  11.755  0.1441 -0.4275 -0.1707
 5874W        W 9094   3.264  12.883  14.964 -0.1222  0.0662 -0.0570
 5875W        W 9095  18.190  13.817  13.416  0.0227 -0.0671 -0.2921
 5876W        W 9096  17.592  13.737   2.901 -0.1594 -0.3388 -0.1718
 5877W        W 9097   1.453  10.314  14.696 -0.1458  0.0391 -0.1223
 5878W        W 9098   6.363  12.865   6.131  0.0060 -0.1290 -0.0889
 5879W        W 9099   3.986   4.404  12.852  0.1009  0.2080  0.0340
 5880W        W 9100   1.675  12.270  13.618  0.2083 -0.0387 -0.0187
 5881W        W 9101   9.475   5.557   6.039  0.0490 -0.0891 -0.1253
 5882W        W 9102   9.542  11.327  15.231 -0.0113  0.0004 -0.0144
 5883W        W 9103  16.187  18.249  16.476 -0.1297 -0.0429  0.0478
 5884W        W 9104   4.215  11.846  16.502 -0.0331  0.0356  0.2242
 5885W        W 9105   5.628   5.509  16.602  0.3538 -0.0687  0.0783
 5886W        W 9106   4.198   4.214   0.536 -0.0068  0.2694 -0.3334
 5887W        W 9107   4.617   5.093  16.286 -0.0097  0.4259 -0.0873
 5888W        W 9108   7.045   1.225  14.967  0.1981 -0.1254 -0.4085
 5889W        W 9109   0.329  10.321  13.811 -0.1026  0.0048  0.4386
 5890W        W 9110   1.051  10.162  13.779 -0.1447  0.0373  0.2033
 5891W        W 9111  16.446  12.610   6.194 -0.0302 -0.0370  0.4081
 5892W        W 9112   8.455  11.373   1.507 -0.1613 -0.0777  0.1372
 5893W        W 9113   0.586   6.478  14.904 -0.1418 -0.1920  0.0210
 5894W        W 9114  15.584   8.796   9.448 -0.3053 -0.0431 -0.3693
 5895W        W 9115  14.760  16.867  17.114  0.0457 -0.3129 -0.0045
 5896W        W 9116   1.876   8.749  14.824 -0.1673  0.0444 -0.0508
 5897W        W 9117   1.296   8.360   9.246 -0.2289 -0.2479  0.1719
 5898W        W 9118   3.459  15.195   2.839 -0.3313 -0.1105 -0.0576
 5899W        W 9119   5.727   6.266  14.482  0.3240  0.0873  0.3214
 5900W        W 9120  12.882   6.664   0.109  0.1202  0.2567  0.3562
 5901W        W 9121   5.377   2.459  12.287  0.1022  0.1370 -0.0768
 5902W        W 9122   0.155  12.189   9.899 -0.1803 -0.4419 -0.2832
 5903W        W 9123  18.209  11.997  15.947 -0.0485  0.1210  0.1231
 5904W        W 9124   2.812  13.481  17.332  0.1243 -0.1751 -0.1709
 5905W        W 9125  14.624  10.953   9.246 -0.2496  0.0071 -0.1296
 5906W        W 9126  16.378  12.549   9.221  0.2799  0.0586 -0.0524
 5907W        W 9127   5.033  12.594   8.102 -0.2704  0.0045 -0.0213
 5908W        W 9128  16.409   5.428  16.239  0.0868  0.3026 -0.1854
 5909W        W 9129  10.014  12.529   1.582 -0.2514 -0.0899  0.3144
 5910W        W 9130   2.840   7.707   3.495  0.3500 -0.0126  0.1473
 5911W        W 9131  13.890   7.273  15.352 -0.1310 -0.0630 -0.2121
 5912W        W 9132   0.128   9.082   2.503 -0.1563 -0.0085 -0.4118
 5913W        W 9133   2.995   6.438  16.958 -0.3723  0.1898  0.0207
 5914W        W 9134   6.012  11.516   6.764  0.3204  0.1240 -0.1281
 5915W        W 9135   5.116   8.446   1.509  0.0855  0.2247  0.2098
 5916W        W 9136   3.132  14.129  14.080 -0.0787  0.1139  0.0425
 5917W        W 9137   1.494  11.805  16.680 -0.2503  0.2068 -0.1321
 5918W        W 9138   0.673  17.921  15.738 -0.0524 -0.0333  0.2460
 5919W        W 9139   0.449  11.786   1.402 -0.1269 -0.0051  0.1786
 5920W        W 9140   1.116  15.687  13.761  0.2029  0.1568 -0.1362
 5921W        W 9141   2.158  10.693  15.553 -0.1508  0.0048  0.2431
 5922W        W 9142   6.195   4.472   0.135  0.2967  0.0753 -0.1165
 5923W        W 9143   9.053   0.457  10.889 -0.1416 -0.1153 -0.0413
 5924W        W 9144   5.670   2.711   8.157  0.0782 -0.3792  0.0012
 5925W        W 9145   6.974   5.506   3.599  0.1610 -0.2236  0.0548
 5926W        W 9146   1.835  16.802  13.819  0.0318  0.0880  0.1795
 5927W        W 9147  14.712  10.247   8.875 -0.1142 -0.0321 -0.0321
 5928W        W 9148   4.322   8.292  14.873 -0.2147  0.0492  0.1226
 5929W        W 9149   2.409  16.167  15.609  0.1804  0.1178 -0.1108
 5930W        W 9150   1.852   6.841   5.510  0.2812 -0.0863  0.0444
 5931W        W 9151   6.777   7.673  14.054  0.1761 -0.0845  0.1830
 5932W        W 9152  16.474   5.853   1.192 -0.2147  0.1092  0.0933
 5933W        W 9153   4.651   9.877  15.470 -0.0548  0.0345  0.2277
 5934W        W 9154   1.853  11.954  14.527 -0.0424  0.2000  0.0212
 5935W        W 9155   5.425   7.885   0.070 -0.5162 -0.0562 -0.2353
 5936W        W 9156   9.497   7.115   0.057 -0.4270 -0.2660  0.0984
 5937W        W 9157   5.447   8.649  10.542 -0.1732 -0.1442 -0.0141
 5938W        W 9158   3.334   1.035  13.659 -0.0408  0.0009 -0.0830
 5939W        W 9159   7.379   9.875   1.060 -0.1665  0.0716  0.1099
 5940W        W 9160  17.784  15.719  16.099 -0.3440 -0.0898  0.0344
 5941W        W 9161   1.463  16.130  15.487  0.3048  0.2433  0.2305
 5942W        W 9162   1.610   7.081  16.731  0.0490 -0.0503  0.0223
 5943W        W 9163   4.899   3.847  16.545 -0.1012 -0.2669  0.1207
 5944W        W 9164   1.436  14.981   7.093 -0.1329 -0.0693  0.1511
 5945W        W 9165  18.229  15.709   3.443 -0.2006  0.0860 -0.0925
 5946W        W 9166  17.833  16.221  14.104 -0.0883 -0.1081  0.0567
 5947W        W 9167   4.170  10.588  11.173 -0.0445 -0.0023  0.1158
 5948W        W 9168  16.301   6.651   8.996 -0.0329 -0.0432 -0.0334
 5949W        W 9169  12.493   6.695   3.587  0.2202  0.0410 -0.1308
 5950W        W 9170  17.714   9.694   5.395 -0.0177  0.0933  0.1424
 5951W        W 9171   2.694   7.620  11.222  0.1615 -0.0441  0.0372
 5952W        W 9172   1.235   7.432  12.983  0.0558 -0.2155 -0.1201
 5953W        W 9173   5.238  17.846   0.579  0.1285  0.0236 -0.1453
 5954W        W 9174   4.703   8.240   2.742 -0.2242  0.2032  0.3419
 5955W        W 9175   3.843  14.038   0.344  0.1562  0.2818 -0.0475
 5956W        W 9176   2.606  12.021  16.463  0.0926  0.0265 -0.1354
 5957W        W 9177   7.975  14.265   1.357  0.0455 -0.1094  0.0139
 5958W        W 9178   0.661  15.321   6.279 -0.1593  0.0974 -0.0857
 5959W        W 9179  17.785   9.140  11.724 -0.0938  0.1111  0.0842
 5960W        W 9180   5.204  16.580  14.350  0.0791 -0.0639 -0.0157
 5961W        W 9181  11.980   5.557   8.037  0.0833 -0.1533 -0.1100
 5962W        W 9182   2.252   1.004  15.860  0.2394 -0.4252 -0.0448
 5963W        W 9183   0.431   7.703   3.465 -0.2352 -0.1132  0.2373
 5964W        W 9184  15.187   9.524  17.273 -0.1526  0.0501  0.0200
 5965W        W 9185   0.172  12.805   2.276 -0.1907 -0.0995 -0.2381
 5966W        W 9186   1.309   9.462   0.615 -0.2635 -0.0760  0.3560
 5967W        W 9187   6.052  11.981   6.169 -0.0902 -0.0392 -0.0233
 5968W        W 9188   6.859  11.950  13.468  0.0394  0.2972  0.3449
 5969W        W 9189   0.451  11.574  16.339 -0.2299 -0.0726 -0.0809
 5970W        W 9190  16.045  18.186   6.852 -0.0084  0.4075  0.1626
 5971W        W 9191  17.321   2.503   2.717  0.3951 -0.2353 -0.0341
 5972W        W 9192   7.707  18.066   6.105 -0.1888 -0.1172 -0.3046
 5973W        W 9193  16.960  10.714   4.663 -0.0642  0.1379  0.1602
 5974W        W 9194   2.750   9.892  15.298 -0.2663  0.2001 -0.0700
 5975W        W 9195   9.516  13.412   0.814 -0.0053 -0.1889 -0.3219
 5976W        W 9196   0.099  15.219   6.221 -0.0930  0.0197  0.1369
 5977W        W 9197  11.486  11.225   2.429  0.2878  0.3615  0.0771
 5978W        W 9198   7.839  12.883  17.586  0.0860  0.0754 -0.1688
 5979W        W 9199  13.260  18.026  16.449  0.0199  0.0569 -0.0008
 5980W        W 9200   3.201  16.151   3.937 -0.0692  0.2000 -0.1890
 5981W        W 9201   2.193  11.811  13.947  0.0488  0.3006  0.1660
 5982W        W 9202  14.175  17.204   1.245  0.3076  0.0961 -0.4450
 5983W        W 9203   1.152   8.110   3.296  0.1687 -0.1545  0.4050
 5984W        W 9204  16.812  15.771   1.771 -0.0830  0.0990  0.1729
 5985W        W 9205  17.091   6.762   8.806 -0.1005 -0.2453 -0.1075
 5986W        W 9206   1.962   9.610   2.568  0.0526 -0.1142  0.0947
 5987W        W 9207  15.651   1.083   2.054 -0.0431  0.0460  0.2568
 5988W        W 9208  15.302   4.286   4.064  0.1844 -0.1886  0.0902
 5989W        W 9209   2.290  13.402  16.591  0.0631  0.0462 -0.1276
 5990W        W 9210   0.423   9.140   4.938  0.2398  0.0634 -0.1187
 5991W        W 9211   7.662  10.456   1.973  0.1098 -0.2003 -0.1522
 5992W        W 9212  17.227  18.153   0.009  0.0896  0.1045  0.0582
 5993W        W 9213   4.818  14.742   1.586 -0.1178  0.1212 -0.0501
 5994W        W 9214   1.256  17.591   0.334  0.0354 -0.1678  0.2213
 5995W        W 9215   1.543  15.332   4.793  0.1593  0.1254  0.2792
 5996W        W 9216  18.244  11.171   6.385 -0.0447 -0.2121  0.1175
 5997W        W 9217   2.755  14.411  11.717 -0.0262 -0.0611  0.2072
 5998W        W 9218   2.104  16.565   4.082  0.1398  0.1591  0.0995
 5999W        W 9219   5.088  13.870   1.772 -0.2230 -0.1800 -0.1228
 6000W        W 9220  17.858  16.567   1.209 -0.2948 -0.0800 -0.2309
 6001W        W 9221  14.920  16.017  15.714  0.2587  0.3357  0.0208
 6002W        W 9222   4.812   8.366   4.789 -0.2235 -0.0792  0.0607
 6003W        W 9223   6.632   5.647  17.209 -0.0642  0.0414  0.2222
 6004W        W 9224   1.180   8.558  14.337 -0.0451  0.2814  0.3513
 6005W        W 9225   2.675  11.351  11.790 -0.0468  0.1623  0.1037
 6006W        W 9226  14.273  12.632   6.249 -0.3576  0.0472  0.0581
 6007W        W 9227   3.397  12.353   3.404 -0.1235  0.0272 -0.1434
 6008W        W 9228   3.895   5.218   2.321 -0.0868  0.1199  0.0129
 6009W        W 9229  10.001  12.263  15.774 -0.0559 -0.0718 -0.0688
 6010W        W 9230   2.039  11.343  18.147 -0.1758  0.0904 -0.0726
 6011W        W 9231   0.310  14.324   2.889 -0.0955  0.0033  0.1041
 6012W        W 9232  14.823  14.711  10.305 -0.1498  0.3323 -0.3504
 6013W        W 9233   3.885   9.948   6.562  0.0177  0.0728 -0.0021
 6014W        W 9234   8.776  15.461   4.036  0.0373 -0.2822 -0.0841
 6015W        W 9235   5.706  13.255  17.012 -0.2934  0.0713 -0.2459
 6016W        W 9236   3.624  11.544   4.005 -0.6971  0.2783  0.1633
 6017W        W 9237  13.455  12.706   3.327 -0.0704  0.1030  0.0744
 6018W        W 9238  16.550  11.438   0.635  0.0917  0.3952 -0.0967
 6019W        W 9239   3.482   0.532  16.138  0.1487 -0.0913  0.0038
 6020W        W 9240   7.694   9.086  13.716  0.0238  0.0479 -0.0819
 6021W        W 9241   0.630  10.857   2.363 -0.1529  0.1811  0.0424
 6022W        W 9242   4.100   8.374  17.976 -0.2702  0.2680  0.2631
 6023W        W 9243   8.931  14.211   1.012 -0.1676  0.0488  0.1234
 6024W        W 9244   2.681   8.040   6.197  0.0050 -0.1219 -0.2417
 6025W        W 9245   0.507  14.945  17.126 -0.1390  0.0780 -0.2175
 6026W        W 9246   3.754  15.890   1.624 -0.0061  0.0771  0.2633
 6027W        W 9247  16.863   3.312   3.064  0.3158  0.3057  0.0828
 6028W        W 9248   0.415  15.424   3.623  0.0094 -0.3865  0.2060
 6029W        W 9249  13.829   3.827   4.360 -0.0858  0.0729  0.0839
 6030W        W 9250   2.102   9.563   0.196 -0.1142  0.1876 -0.1908
 6031W        W 9251  12.945   4.808  10.024 -0.1368 -0.2813  0.0299
 6032W        W 9252  17.101  12.887   6.478 -0.0660 -0.1729 -0.3039
 6033W        W 9253   3.383  16.899   2.013 -0.1104 -0.2354 -0.2309
 6034W        W 9254   6.231  13.755   0.296 -0.1056  0.4033  0.2149
 6035W        W 9255  18.236  11.938   5.520 -0.0537  0.0615 -0.4010
 6036W        W 9256  16.343  12.951   2.539  0.4200 -0.0987  0.2634
 6037W        W 9257   6.505   7.598   1.071 -0.1294  0.0262  0.0859
 6038W        W 9258   7.588   2.527   2.008  0.0310  0.0322  0.0867
 6039W        W 9259   7.901  13.002   8.278  0.0268  0.1739 -0.0097
 6040W        W 9260   5.549  14.701   3.281 -0.0842 -0.0485  0.0461
 6041W        W 9261   8.388  11.765   3.476  0.2169  0.0631 -0.0714
 6042W        W 9262   5.964   8.949   0.797  0.0540  0.0645  0.4315
 6043W        W 9263  18.103  16.366  15.935  0.2096  0.0889  0.1719
 6044W        W 9264   4.530  16.317   2.746 -0.1795  0.0369 -0.0743
 6045W        W 9265   4.720  11.648   9.642  0.0095 -0.1422 -0.2256
 6046W        W 9266   5.776  10.689   8.071  0.1305 -0.0778  0.0228
 6047W        W 9267   6.209  13.795  13.582 -0.1452  0.0748  0.1490
 6048W        W 9268  16.421  17.084  10.983  0.1885 -0.1379  0.0975
 6049W        W 9269   2.690  12.952   1.818  0.0526  0.2453  0.1048
 6050W        W 9270   0.956   4.418  15.443 -0.0413 -0.1422  0.1748
 6051W        W 9271  11.370  14.725   5.945  0.1100  0.0697  0.3722
 6052W        W 9272  15.700   2.956   1.831 -0.0554 -0.1894  0.1953
 6053W        W 9273   3.163  14.699  14.989  0.1067 -0.2775  0.0645
 6054W        W 9274   9.350  17.132  18.007  0.2364 -0.0964  0.0522
 6055W        W 9275   4.680  13.797   3.579 -0.2683  0.0464 -0.1205
 6056W        W 9276  17.081  12.716   1.665  0.2307 -0.1990  0.1190
 6057W        W 9277  16.792  14.440   6.152  0.2993 -0.3411  0.0233
 6058W        W 9278   8.198  12.666   1.962 -0.1242  0.1193  0.1920
 6059W        W 9279  16.887  14.386   1.121 -0.0905 -0.1068  0.0836
 6060W        W 9280   6.018  11.284   2.115 -0.0196 -0.0439 -0.0514
 6061W        W 9281   5.644  10.985   0.701  0.2433 -0.0990  0.1808
 6062W        W 9282  14.382  10.235   6.873 -0.1457  0.0884 -0.2596
 6063W        W 9283   6.957  17.004   4.400 -0.4499  0.1053 -0.0012
 6064W        W 9284  11.969   6.745  18.230  0.3881  0.1874 -0.1606
 6065W        W 9285   2.841  14.349  18.255 -0.0665  0.0202 -0.2577
 6066W        W 9286   0.139  13.579   0.123 -0.1626 -0.2789 -0.0400
 6067W        W 9287  10.555   9.868   7.954  0.0630 -0.0291  0.0016
 6068W        W 9288   2.339  13.631   1.223  0.0893 -0.2021  0.0861
 6069W        W 9289   2.928   1.993   2.599  0.1902 -0.0463  0.3202
 6070W        W 9290  16.890  14.103   9.483  0.0080  0.1232  0.0345
 6071W        W 9291   2.604  17.422   2.161  0.0072 -0.3695 -0.0781
 6072W        W 9292   8.680   4.406   3.359  0.2725 -0.1023  0.1307
 6073W        W 9293   5.995  15.432  17.410  0.0325 -0.1495  0.1300
 6074W        W 9294   0.673  14.001   3.019 -0.3274  0.0646 -0.0700
 6075W        W 9295   3.963   0.037  15.648  0.0367 -0.1710 -0.0374
 6076W        W 9296   8.952  15.429   2.109  0.2864  0.4674  0.2045
 6077W        W 9297   1.565  10.642   0.284  0.0134  0.2643 -0.2409
 6078W        W 9298   7.588  10.561  16.300 -0.1013  0.0495  0.2275
 6079W        W 9299   5.579  13.902   6.263  0.0419 -0.1419  0.0414
 6080W        W 9300  18.199  13.222   7.415  0.1471  0.0067 -0.0478
 6081W        W 9301   3.423  17.922  11.791 -0.1538 -0.2239 -0.1324
 6082W        W 9302   5.332  11.126   4.497 -0.5093 -0.0328 -0.1619
 6083W        W 9303  12.874   2.747  17.139  0.0013  0.1488  0.0389
 6084W        W 9304   2.839  16.790   1.852  0.0726 -0.0807  0.0346
 6085W        W 9305   4.427  18.130  17.610  0.0841 -0.3110  0.3131
 6086W        W 9306   1.781   9.066  12.730 -0.2923  0.2843  0.2513
 6087W        W 9307   8.099  14.761  15.655 -0.2558  0.0198 -0.1021
 6088W        W 9308   2.086  16.609   0.409 -0.0084 -0.2104  0.2488
 6089W        W 9309   0.358  10.517  17.784 -0.0603  0.0738  0.1758
 6090W        W 9310  14.825  13.543  15.732  0.0555 -0.1515  0.3134
 6091W        W 9311   3.636   9.873  15.967 -0.3730 -0.1420 -0.0583
 6092W        W 9312  10.502   9.418   0.619  0.2186  0.0252 -0.0250
 6093W        W 9313  13.835   7.729   0.146  0.0453 -0.3059 -0.2905
 6094W        W 9314   2.523   9.312  10.336  0.0054  0.0887  0.1375
 6095W        W 9315   1.403  10.909  10.473 -0.1843  0.1766 -0.0154
 6096W        W 9316   5.572  10.126   2.656  0.2368 -0.0279  0.1692
 6097W        W 9317   7.327  10.140  17.920 -0.1493 -0.2229 -0.0675
 6098W        W 9318   2.414  13.162  17.326 -0.0782 -0.2855  0.0610
 6099W        W 9319  18.115  15.725   6.082 -0.0196  0.0275  0.1055
 6100W        W 9320   7.259  17.281   5.990  0.0057 -0.2436  0.0750
 6101W        W 9321   1.443  11.594   8.699  0.1518 -0.0275  0.1895
 6102W        W 9322   0.270  13.711   5.142 -0.0947 -0.2790 -0.3382
 6103W        W 9323   4.072   7.560   6.086 -0.1917  0.3290  0.3114
 6104W        W 9324   6.459  11.879   1.841  0.1359  0.0310  0.0627
 6105W        W 9325   1.549   1.920  17.012  0.1713  0.0860 -0.1703
 6106W        W 9326  17.260   3.931  17.608  0.3479 -0.0806  0.2782
 6107W        W 9327   0.885  15.327   0.240 -0.0623  0.1820  0.2347
 6108W        W 9328   1.499  14.304   1.478  0.0496  0.2519  0.0849
 6109W        W 9329   1.461  14.618  16.154  0.2560 -0.1287  0.4005
 6110W        W 9330  15.948   1.057   0.157  0.0279  0.0352  0.0258
 6111W        W 9331   3.046  15.014   4.778 -0.1182 -0.0626 -0.2478
 6112W        W 9332   6.601  17.484   0.961 -0.3644  0.2136  0.2013
 6113W        W 9333   4.746   7.549   2.418 -0.1572  0.1549 -0.0779
 6114W        W 9334  17.554  15.187   4.720 -0.0331 -0.0381  0.4020
 6115W        W 9335  11.881   8.940   5.644  0.0249 -0.4602 -0.0678
 6116W        W 9336   0.629  11.110   3.805  0.0070  0.2899  0.0911
 6117W        W 9337  17.222  13.965   3.410  0.1862 -0.2656  0.2203
 6118W        W 9338   4.293   0.109   0.947 -0.1917 -0.2773  0.1185
 6119W        W 9339   2.454  14.973   2.464  0.1773 -0.4552  0.1584
 6120W        W 9340  18.021   7.039   6.150  0.1900 -0.4058  0.0644
 6121W        W 9341   5.793   8.153   5.740  0.1867  0.1420 -0.4185
 6122W        W 9342  16.931  13.111  16.986 -0.1142  0.1315  0.1944
 6123W        W 9343   2.443   8.354   5.824  0.2932  0.0037 -0.0717
 6124W        W 9344   9.679  12.587   3.482 -0.1731  0.0872 -0.0746
 6125W        W 9345   2.105  14.161  17.539 -0.3241 -0.3445  0.2730
 6126W        W 9346  11.671  13.896  16.684  0.1479  0.2555  0.0067
 6127W        W 9347  17.453  17.902  16.636  0.2008  0.1203  0.0680
 6128W        W 9348  17.027   9.553   9.959 -0.3588 -0.0741  0.1078
 6129W        W 9349  17.393  12.009   1.443 -0.2729 -0.1585 -0.1392
 6130W        W 9350   3.965  11.915   4.166 -0.0576  0.2882 -0.2475
 6131W        W 9351   2.889  13.148   6.892  0.1190  0.3290 -0.1968
 6132W        W 9352   1.844  14.296   5.527 -0.5042  0.4678  0.2924
 6133W        W 9353   7.517   7.735   1.214  0.1429 -0.1556  0.1187
 6134W        W 9354   6.009   0.709   3.791  0.1305  0.1104  0.2004
 6135W        W 9355   0.165   0.033   7.389 -0.0369 -0.2888 -0.0793
 6136W        W 9356  16.867  11.940   9.881  0.2047  0.4684 -0.1950
 6137W        W 9357  14.039   1.458  16.655  0.0333 -0.1607 -0.2620
 6138W        W 9358   2.534   6.809   8.835 -0.2333  0.0743 -0.0713
 6139W        W 9359  10.892  10.871  12.191  0.3786 -0.0787  0.2207
 6140W        W 9360  17.487   2.310  16.701 -0.0442  0.1007 -0.5102
 6141W        W 9361   6.588   7.459   5.886 -0.1348  0.1300 -0.1050
 6142W        W 9362   5.967   9.416   0.300 -0.0304  0.1673 -0.0637
 6143W        W 9363   3.282   9.631   2.250  0.1311  0.1841 -0.2171
 6144W        W 9364  15.297  14.547  11.765 -0.1397  0.0229 -0.0698
 6145W        W 9365   1.132  11.293   5.124  0.0059 -0.1859  0.0724
 6146W        W 9366  13.290  16.347  11.167  0.0457 -0.3920  0.0937
 6147W        W 9367  15.513  12.374   2.477  0.2984  0.0576 -0.3272
 6148W        W 9368   7.628  17.239   0.770  0.0145 -0.2167  0.1491
 6149W        W 9369   9.388  11.360  14.737  0.0609  0.0696 -0.1903
 6150W        W 9370  15.682  14.883   2.679  0.1414 -0.1779  0.3098
 6151W        W 9371   4.802  13.597   4.599  0.0422 -0.1810 -0.2309
 6152W        W 9372  16.877  13.186   1.702  0.0172  0.0718 -0.2407
 6153W        W 9373  17.606  13.722  13.232  0.1675  0.0326 -0.1517
 6154W        W 9374   4.323  13.545   4.366  0.1343 -0.3425  0.0779
 6155W        W 9375   4.369  12.544  15.201  0.1364  0.2246  0.0729
 6156W        W 9376  13.536  17.921  13.486  0.3053  0.2909  0.2191
 6157W        W 9377   0.624  14.649   6.934 -0.1872  0.4029 -0.0050
 6158W        W 9378   3.048  13.287   1.578 -0.2292  0.1141 -0.2700
 6159W        W 9379   1.618  18.125   7.795  0.1875 -0.1153 -0.1554
 6160W        W 9380   6.587   8.130  16.918  0.0791 -0.0505  0.0476
 6161W        W 9381   6.442   1.391   0.065 -0.0376  0.0199  0.1001
 6162W        W 9382   1.105  14.870   1.464  0.1219  0.0804 -0.1840
 6163W        W 9383  17.506  17.364  16.853 -0.0801 -0.1297 -0.0295
 6164W        W 9384   4.165  13.734  14.031 -0.2097 -0.0168 -0.1291
 6165W        W 9385   2.917  11.598   1.300  0.0385 -0.0375  0.2100
 6166W        W 9386   4.855  12.103   5.365 -0.2444 -0.2159  0.7144
 6167W        W 9387  16.165  11.844   5.149  0.0316  0.2072  0.1103
 6168W        W 9388   8.613  12.593  16.108  0.1625  0.1814  0.0719
 6169W        W 9389   2.526  15.791   1.781 -0.3155 -0.0144 -0.1664
 6170W        W 9390   0.828   9.771  14.273  0.0253  0.1866  0.1437
 6171W        W 9391   4.639  16.653   5.941  0.0582 -0.0812  0.1737
 6172W        W 9392   4.549  14.782   9.829 -0.2694  0.0307 -0.0982
 6173W        W 9393   9.471  11.838   4.866  0.0968 -0.1873 -0.2515
 6174W        W 9394   2.500  11.832   1.096 -0.0289 -0.3976  0.0155
 6175W        W 9395   3.484  12.086  15.439 -0.1930  0.0096 -0.4022
 6176W        W 9396   2.163  12.208   1.273 -0.1632 -0.0612 -0.1667
 6177W        W 9397   5.771   9.520   5.893  0.0940 -0.3771 -0.0144
 6178W        W 9398  13.997  13.394   8.237  0.2923 -0.0880  0.0713
 6179W        W 9399   0.070   6.078  16.163 -0.0105 -0.0970  0.1966
 6180W        W 9400   0.657  17.110   3.100  0.0724 -0.1885 -0.0338
 6181W        W 9401  16.371  13.811   4.790  0.0425  0.1147  0.1020
 6182W        W 9402   4.734   0.330  12.283 -0.2065 -0.2286 -0.1259
 6183W        W 9403   1.214  14.171  15.256  0.1303 -0.4908 -0.3584
 6184W        W 9404  11.093   3.035   0.931  0.0792 -0.1410 -0.0301
 6185W        W 9405   6.078   9.293   3.512 -0.3378 -0.0010 -0.0909
 6186W        W 9406   3.776  16.939  17.761 -0.0776 -0.3846 -0.2810
 6187W        W 9407   5.999  11.142   4.159 -0.0119  0.2625  0.2201
 6188W        W 9408   5.118  10.027   8.383 -0.0114 -0.0002  0.1118
 6189W        W 9409  11.620   1.433   2.527  0.1357 -0.3215  0.3159
 6190W        W 9410  17.986   9.237   5.687 -0.1672 -0.1871 -0.3084
 6191W        W 9411   4.796  16.967  16.387 -0.0900  0.0610  0.3148
 6192W        W 9412   7.377  11.945   7.061  0.0896 -0.0949 -0.0996
 6193W        W 9413   2.743   1.574   1.635  0.2481  0.1300 -0.0271
 6194W        W 9414   0.299  10.271   2.044 -0.0857 -0.0596 -0.0138
 6195W        W 9415   4.612  17.344   2.080  0.0869 -0.2886 -0.0627
 6196W        W 9416   1.981  14.613   1.689  0.3535 -0.2026 -0.1494
 6197W        W 9417   4.516   1.307   1.404  0.0795  0.0191  0.0465
 6198W        W 9418   6.215  13.953   9.277 -0.1873  0.0219 -0.1748
 6199W        W 9419   8.413  12.562   4.161 -0.0492  0.0650 -0.2948
 6200W        W 9420  17.004  15.248  16.148 -0.1407 -0.3513 -0.3632
 6201W        W 9421  17.236   7.752   4.487 -0.1208  0.1531 -0.0777
 6202W        W 9422   0.361   9.761   5.275  0.3688 -0.0142 -0.1898
 6203W        W 9423   1.503  16.832   4.985  0.0270  0.0645  0.0266
 6204W        W 9424   4.429   3.112  15.923 -0.0215  0.0122 -0.0075
 6205W        W 9425   7.638   7.906   2.115 -0.0511  0.1581  0.0224
 6206W        W 9426  12.066  13.625   5.100  0.1321  0.0851  0.0700
 6207W        W 9427  16.684  12.805   9.621 -0.2659  0.0656  0.1298
 6208W        W 9428   3.899  13.152   5.095  0.0799 -0.2252  0.1122
 6209W        W 9429   2.693   0.573  17.491 -0.3376  0.0508  0.0060
 6210W        W 9430   5.204  16.929   5.694  0.0162 -0.2328 -0.1091
 6211W        W 9431  14.437  15.239   1.805  0.0021  0.2343 -0.0708
 6212W        W 9432   4.796  14.805  17.201 -0.1440  0.0234 -0.1862
 6213W        W 9433   3.679  13.343   1.945 -0.3052  0.2057  0.2158
 6214W        W 9434   0.011  11.562  16.675  0.0535  0.0103 -0.1360
 6215W        W 9435  18.066  13.701   2.704 -0.0118  0.1193  0.0198
 6216W        W 9436  16.315   2.901  16.332 -0.1207 -0.2855  0.3968
 6217W        W 9437  18.116   8.825   3.200  0.4043  0.1244 -0.4927
 6218W        W 9438   7.676  13.124   5.652  0.0871  0.1824  0.1850
 6219W        W 9439   3.279  11.150   5.965 -0.2955 -0.0328 -0.0532
 6220W        W 9440   5.366   8.481   5.692  0.1941  0.0601  0.2996
 6221W        W 9441  16.453  12.342   7.171 -0.1414  0.0088 -0.0922
 6222W        W 9442   6.561  10.966   1.839  0.0919  0.0975  0.0752
 6223W        W 9443  15.128  14.990   0.431 -0.0039 -0.0964 -0.1823
 6224W        W 9444   0.182  13.615  12.910 -0.0678 -0.1412  0.1553
 6225W        W 9445   6.731  17.735  14.532 -0.2129 -0.0168  0.4760
 6226W        W 9446   6.526  12.452   6.985  0.1012 -0.0926  0.0666
 6227W        W 9447  11.881  17.859  16.608 -0.0131  0.2273  0.1618
 6228W        W 9448   6.300   8.562   0.253  0.2627  0.1171 -0.1400
 6229W        W 9449   5.526  10.197   0.266 -0.0599 -0.0703  0.2853
 6230W        W 9450  11.002  14.917   1.708  0.2543  0.1913  0.1911
 6231W        W 9451  16.831  13.652   4.666  0.0308 -0.2109  0.1050
 6232W        W 9452   1.420  18.063   2.183  0.0503  0.3869 -0.2108
 6233W        W 9453   9.029  13.578   6.667 -0.0335 -0.1826 -0.0677
 6234W        W 9454   5.166   9.718  17.583  0.2334  0.0043 -0.1454
 6235W        W 9455   0.435  16.091  14.145 -0.1396  0.1423  0.0035
 6236W        W 9456   1.639  14.465   7.771 -0.0498 -0.0421  0.0314
 6237W        W 9457   1.723  12.218  12.635 -0.0362 -0.0325 -0.2299
 6238W        W 9458   3.410  11.782   1.515 -0.0604 -0.0753 -0.0790
 6239W        W 9459   4.472  10.811  15.630 -0.1030  0.0328 -0.0256
 6240W        W 9460   3.380  11.859   3.540 -0.0485 -0.1103 -0.1515
 6241W        W 9461   0.630   8.552   1.340  0.0192  0.0265  0.2044
 6242W        W 9462   0.274  15.899   2.425 -0.0560 -0.2883 -0.2536
 6243W        W 9463  13.827  15.213   5.773 -0.0145 -0.1794 -0.0167
 6244W        W 9464  15.865   1.663   6.415 -0.1147 -0.0890 -0.2982
 6245W        W 9465   5.160   9.065   3.890  0.3557  0.2107 -0.2169
 6246W        W 9466   6.809  12.350   6.016  0.2240  0.3077 -0.3204
 6247W        W 9467   2.842  11.817  17.314  0.0380 -0.0238  0.0585
 6248W        W 9468  15.619  17.363   6.059  0.1610  0.2587  0.0899
 6249W        W 9469   1.804  16.821  11.115 -0.1081  0.0270  0.1558
 6250W        W 9470   2.603  12.073   1.565 -0.1743  0.1442  0.2861
 6251W        W 9471  17.957   6.066   6.437  0.3106 -0.3497  0.1203
 6252W        W 9472  16.771  13.740  16.331 -0.0400  0.0400  0.2422
 6253W        W 9473  11.136   0.517  17.155 -0.1277 -0.1116  0.1241
 6254W        W 9474   8.021   7.436   2.220  0.2202 -0.0689  0.2378
 6255W        W 9475   5.288  11.026   5.405 -0.1012 -0.2192  0.3318
 6256W        W 9476   6.001  15.634   4.175 -0.0384  0.0365  0.0520
 6257W        W 9477  14.129  15.780   4.306 -0.2435  0.2960  0.0907
 6258W        W 9478  14.315   4.753   3.809  0.3295  0.1913 -0.0490
 6259W        W 9479  11.287   9.731   2.868  0.2638 -0.1482 -0.0331
 6260W        W 9480   9.308  12.814   6.489 -0.0946  0.1728  0.1551
 6261W        W 9481   4.705  17.219  14.957 -0.1756 -0.1290 -0.0514
 6262W        W 9482  14.943  15.255   0.019 -0.1469  0.0694 -0.3097
 6263W        W 9483   5.029  11.079   1.744  0.0129 -0.1110  0.1650
 6264W        W 9484   0.509  13.172   5.099 -0.0574 -0.0403  0.1866
 6265W        W 9485  14.541   9.430  13.339 -0.2082  0.1846  0.0475
 6266W        W 9486   2.045  16.876   2.927  0.3406  0.0572 -0.0039
 6267W        W 9487  12.797  17.444  14.984 -0.2958 -0.0238  0.1264
 6268W        W 9488   2.848   0.508   0.324 -0.0296  0.1385 -0.2677
 6269W        W 9489  12.227  16.101   1.184  0.2025 -0.0820  0.2690
 6270W        W 9490  16.973  11.797   2.091  0.1806  0.1623 -0.0892
 6271W        W 9491   0.346  14.639  16.479  0.1275 -0.2048  0.0919
 6272W        W 9492   1.261  12.044   4.613 -0.1566  0.1662  0.1450
 6273W        W 9493  14.669   7.814   4.790 -0.0984  0.4427  0.0181
 6274W        W 9494  18.024   8.874   5.362  0.3177 -0.0049 -0.1435
 6275W        W 9495  15.904  14.145  17.943 -0.1812  0.1609  0.0700
 6276W        W 9496  16.330  10.287   3.374 -0.0988 -0.0319  0.2719
 6277W        W 9497  11.393  15.684   5.054 -0.0067  0.1660 -0.1320
 6278W        W 9498   6.668   7.682   2.966 -0.1313 -0.0361  0.1218
 6279W        W 9499   3.680  17.949  16.363  0.3512 -0.1562  0.1869
 6280W        W 9500  17.249  12.028   5.018 -0.1848 -0.0021  0.0497
 6281W        W 9501  13.916   6.071   8.406  0.2244 -0.1307 -0.3139
 6282W        W 9502  14.761   6.970  10.520 -0.0131  0.2115 -0.1859
 6283W        W 9503   8.373   2.150  14.023 -0.3455  0.2029  0.0935
 6284W        W 9504   0.360  17.172  17.401 -0.3497  0.1495  0.1744
 6285W        W 9505   4.157  17.294  17.622  0.0476 -0.0664  0.0333
 6286W        W 9506   4.169  11.992   2.727 -0.2863  0.1904 -0.0179
 6287W        W 9507   4.238  13.738  17.735  0.1620 -0.0380 -0.2488
 6288W        W 9508  14.733  16.891   9.713 -0.2512 -0.2269 -0.1223
 6289W        W 9509   0.959  10.735  10.520 -0.1988  0.0796  0.1118
 6290W        W 9510  11.623  16.797   1.236 -0.1169 -0.1705 -0.0217
 6291W        W 9511   3.264   6.764   6.747 -0.3796 -0.1808  0.2139
 6292W        W 9512  17.246  10.913   1.004  0.1095  0.1078  0.1574
 6293W        W 9513   7.786   8.985   2.892  0.0890  0.1085 -0.0812
 6294W        W 9514  10.756  14.097   2.491  0.3071 -0.1475 -0.0926
 6295W        W 9515  12.981   2.591  17.622 -0.0099  0.1840  0.0228
 6296W        W 9516  16.384  11.761  11.086 -0.1800 -0.0049  0.1396
 6297W        W 9517  14.813  15.336   2.584  0.0205  0.0951 -0.2287
 6298W        W 9518  14.094  14.665   2.907 -0.1527  0.3439  0.4799
 6299W        W 9519  12.759   1.407  16.806  0.1542  0.0343 -0.1442
 6300W        W 9520   1.016  10.337   6.465 -0.1668  0.0065 -0.2168
 6301W        W 9521   2.517   8.934   7.330  0.0958 -0.0261 -0.3234
 6302W        W 9522  14.686   8.877   7.196  0.0606 -0.1389 -0.0532
 6303W        W 9523   8.287  17.509  14.306  0.1282 -0.2319  0.0410
 6304W        W 9524   5.417  16.121   7.185  0.0432 -0.0179  0.0874
 6305W        W 9525  15.146   9.369  18.243 -0.2989 -0.3012 -0.0487
 6306W        W 9526  15.265  15.549   2.400  0.0893 -0.0650 -0.2626
 6307W        W 9527   3.051  13.768   3.292 -0.0910 -0.0440  0.0670
 6308W        W 9528  13.892  11.027   1.196  0.0358 -0.3736  0.1532
 6309W        W 9529   7.056  15.450   6.403 -0.2022 -0.5921 -0.2741
 6310W        W 9530   0.717   1.806  13.882 -0.1653 -0.0643  0.0470
 6311W        W 9531   0.631   7.783  14.410 -0.0802  0.1785  0.2059
 6312W        W 9532   3.645  12.505   4.927 -0.1876 -0.0256  0.2699
 6313W        W 9533   3.062   5.796   3.829  0.1978 -0.2270 -0.1798
 6314W        W 9534   0.536  13.003  17.937 -0.2959  0.0040 -0.1826
 6315W        W 9535   1.923  13.259   1.094  0.0529  0.0268  0.1246
 6316W        W 9536   5.592  15.529  17.131 -0.0323 -0.4501 -0.1511
 6317W        W 9537   9.140   0.790   0.415  0.0682  0.1992  0.0910
 6318W        W 9538   9.756  12.614   5.205  0.0966  0.0454  0.0003
 6319W        W 9539  17.675  15.510   1.117 -0.2168 -0.0628  0.0447
 6320W        W 9540   0.369  11.615   2.451  0.2366  0.0974  0.1519
 6321W        W 9541   0.086  14.235   1.682 -0.1948 -0.0425 -0.0731
 6322W        W 9542  15.086  14.151   4.287 -0.1186  0.1789  0.1799
 6323W        W 9543   2.206  14.594   5.228 -0.2623 -0.1054 -0.0895
 6324W        W 9544   6.197   6.939  13.749  0.1841  0.3404 -0.0795
 6325W        W 9545   0.650  13.124  17.213  0.0959 -0.0677  0.2660
 6326W        W 9546  17.721  17.139   4.709  0.1305 -0.0493 -0.1425
 6327W        W 9547   3.164  10.200   2.306  0.2532  0.0239 -0.3171
 6328W        W 9548   8.669   4.684   2.596 -0.0365 -0.0703 -0.1223
 6329W        W 9549   3.564  16.995   5.450 -0.0617 -0.4612 -0.0248
 6330W        W 9550   7.505   4.581  16.245  0.2024  0.0738 -0.1161
 6331W        W 9551  15.831   8.652   7.981  0.4153 -0.1285 -0.3734
 6332W        W 9552   4.075   0.163   0.422  0.0117  0.1063 -0.0927
 6333W        W 9553  15.857  17.970  10.232 -0.0683  0.2077 -0.0106
 6334W        W 9554  18.147  17.458   0.812  0.0552 -0.0886  0.2512
 6335W        W 9555  17.726  11.397   3.612  0.0604 -0.0571  0.0978
 6336W        W 9556   0.429  12.042   5.111 -0.0739  0.0649  0.0107
 6337W        W 9557  11.239  14.477   7.468 -0.2394 -0.0708 -0.2773
 6338W        W 9558   3.851  12.535   1.545  0.0531  0.4057 -0.0578
 6339W        W 9559   2.023   9.420  17.660  0.2744 -0.0412 -0.0135
 6340W        W 9560  17.077  17.303   0.596  0.3761  0.3199 -0.1045
 6341W        W 9561   4.428   6.071   1.939 -0.0485 -0.2604  0.0564
 6342W        W 9562  17.740  17.831   0.856 -0.0226  0.3109 -0.1807
 6343W        W 9563   1.824   7.866  12.316  0.2491  0.3619 -0.3275
 6344W        W 9564  15.717  11.219   4.084 -0.0947  0.2228  0.0251
 6345W        W 9565   8.572   0.325   7.028 -0.1574 -0.2362 -0.1767
 6346W        W 9566   7.976   3.982   6.648 -0.3244 -0.1623  0.0266
 6347W        W 9567   2.203  16.777   5.898 -0.2687 -0.2434  0.3850
 6348W        W 9568   9.108  16.682   8.210  0.2269  0.2159 -0.0841
 6349W        W 9569   6.632   3.644  10.731 -0.1233 -0.1706  0.3025
 6350W        W 9570  17.161   1.681  17.150  0.0525  0.0355  0.1271
 6351W        W 9571   5.644   8.151   1.942  0.0367 -0.3391  0.0002
 6352W        W 9572  15.734   8.893   7.563 -0.1353  0.1808 -0.1235
 6353W        W 9573   9.156  11.711   9.095 -0.3564  0.0378  0.0351
 6354W        W 9574   5.539  14.103   1.863  0.0862 -0.1277  0.0310
 6355W        W 9575   4.059   8.889   6.550  0.1259 -0.0876  0.1736
 6356W        W 9576   8.316   4.472  10.503  0.0395  0.0786  0.4930
 6357W        W 9577   3.495  11.135   7.088 -0.0961  0.1786 -0.2089
 6358W        W 9578   1.833  11.985   8.816 -0.1174 -0.0102  0.1747
 6359W        W 9579  13.572   9.950   5.453  0.1933 -0.2089 -0.0034
 6360W        W 9580   3.015  11.665   4.975  0.0222  0.4332 -0.0255
 6361W        W 9581   1.904   7.225  10.320 -0.3229 -0.0940  0.0436
 6362W        W 9582  13.899   0.437   2.421  0.0160 -0.0910  0.1028
 6363W        W 9583   1.271  12.845  12.391  0.0774  0.1658  0.1875
 6364W        W 9584  12.960   6.298   4.571 -0.0627  0.1077  0.0455
 6365W        W 9585   3.491   9.485   4.289 -0.3277  0.1329  0.1105
 6366W        W 9586   3.794   7.447   7.138  0.1474 -0.2920 -0.1511
 6367W        W 9587   7.859  13.682   8.726  0.1250  0.2571  0.0922
 6368W        W 9588   4.457  13.959   7.587 -0.0688 -0.2211  0.0897
 6369W        W 9589   2.779   8.167   3.810 -0.2848 -0.1173 -0.0482
 6370W        W 9590   5.940  13.894   7.008  0.2525  0.2269  0.2761
 6371W        W 9591   2.350   6.921   0.483  0.0800  0.0959  0.2525
 6372W        W 9592   2.596   7.731  16.414  0.2293 -0.1136 -0.2401
 6373W        W 9593   9.664  10.578   5.655  0.0395 -0.1184  0.1793
 6374W        W 9594   6.572   2.478   7.876 -0.2522 -0.0154  0.2224
 6375W        W 9595   1.575   9.641   8.645  0.1029  0.0398 -0.2653
 6376W        W 9596   3.255   8.686  14.061  0.0136  0.0351  0.0193
 6377W        W 9597   1.706  15.907   4.009 -0.0920 -0.0648  0.0513
 6378W        W 9598   6.301  11.399   8.167  0.0445 -0.2954 -0.0361
 6379W        W 9599  17.369  14.864  17.968 -0.1857  0.0337  0.2852
 6380W        W 9600   1.320  16.830   6.267 -0.0888 -0.0739 -0.0767
 6381W        W 9601  17.319   5.210   5.368 -0.0326  0.1254 -0.1239
 6382W        W 9602   3.780  11.162   5.030 -0.1307 -0.1297 -0.2589
 6383W        W 9603   5.322  14.504  16.288 -0.1363  0.1707  0.0682
 6384W        W 9604   3.230  16.076  15.020 -0.0137 -0.4908  0.2618
 6385W        W 9605   2.784  16.793   2.821 -0.1212 -0.1279  0.0918
 6386W        W 9606  13.395  12.215   3.353 -0.1088  0.1323 -0.1294
 6387W        W 9607  15.956   0.300   4.117  0.0922  0.1301 -0.1609
 6388W        W 9608   0.328  11.567   5.234 -0.3625  0.1151  0.0751
 6389W        W 9609   4.090  15.059   0.309  0.0801 -0.2274  0.0565
 6390W        W 9610   5.039  15.810   4.064 -0.0574 -0.1255 -0.1295
 6391W        W 9611   7.928   1.340   5.771 -0.0777  0.0132  0.1007
 6392W        W 9612   1.591  16.588   0.356  0.0997  0.0644 -0.3415
 6393W        W 9613  12.192   9.520   3.979  0.0129 -0.0808  0.2335
 6394W        W 9614   2.477  16.056   7.857  0.3309 -0.0065 -0.0983
 6395W        W 9615   5.792   8.889   1.312 -0.2152 -0.1057 -0.0943
 6396W        W 9616  17.816  16.515   6.079  0.0427  0.0185 -0.1000
 6397W        W 9617   4.722  16.118   3.722 -0.2295  0.1592  0.1648
 6398W        W 9618   2.020  16.983   1.423  0.3178 -0.1618  0.0909
 6399W        W 9619   2.392  11.678  10.949  0.0683  0.1785 -0.2398
 6400W        W 9620  16.663   0.514   3.660  0.0430  0.1134 -0.2089
 6401W        W 9621   4.977   9.971   2.709  0.1488  0.2713 -0.1088
 6402W        W 9622   4.046  10.271   2.183  0.0426 -0.3180 -0.0166
 6403W        W 9623   1.197   0.172   2.493  0.0557  0.2926  0.1792
 6404W        W 9624   0.098   9.749   3.606  0.0231 -0.0107 -0.0525
 6405W        W 9625  18.048   9.301  14.899 -0.1326  0.1044 -0.0380
 6406W        W 9626   5.160   5.981   3.558  0.1391  0.0365  0.3459
 6407W        W 9627  11.029   8.166   6.008  0.2329  0.3734 -0.2484
 6408W        W 9628   1.036  17.999   3.802  0.1998 -0.4671  0.1957
 6409W        W 9629   0.147  14.918   7.196  0.2828  0.0122 -0.3003
 6410W        W 9630   2.040  11.591   3.704 -0.2067  0.2534 -0.0681
 6411W        W 9631   9.030  16.562   5.058  0.2207  0.1596  0.0110
 6412W        W 9632   4.449  17.578   8.412 -0.0083 -0.0207 -0.0622
 6413W        W 9633   0.668   8.451   9.900  0.0199  0.2270 -0.0570
 6414W        W 9634   8.673  10.833   8.065  0.1764  0.4356 -0.1905
 6415W        W 9635   1.579  16.317  10.373 -0.1031  0.4500 -0.1573
 6416W        W 9636   4.051  17.435   5.777  0.4126 -0.3415 -0.2018
 6417W        W 9637  12.690  15.960   2.644  0.2626  0.2819 -0.1771
 6418W        W 9638   3.638   6.908  18.089  0.0124  0.3456 -0.0123
 6419W        W 9639   9.124   4.802   7.013 -0.2792  0.2960  0.1051
 6420W        W 9640   6.615  12.333   2.517 -0.1558 -0.1942  0.0665
 6421W        W 9641   6.757  14.997   9.058  0.1601 -0.1265  0.0541
 6422W        W 9642   8.632  15.016   3.567 -0.0857 -0.0510  0.1353
 6423W        W 9643   0.460  10.763   6.581 -0.1812 -0.0389  0.0258
 6424W        W 9644   4.766   9.114  12.298  0.2831  0.1166 -0.1747
 6425W        W 9645   6.174   6.208   5.543  0.0507  0.1574 -0.0774
 6426W        W 9646   0.642  10.893   7.002 -0.0064  0.1933 -0.2934
 6427W        W 9647   4.004   1.880   5.914  0.0760  0.1461 -0.4347
 6428W        W 9648   2.606  16.048  13.819  0.2200 -0.0909  0.0167
 6429W        W 9649   4.823  14.979   9.243 -0.3678  0.3619  0.0592
 6430W        W 9650   5.283   0.277   1.281  0.0175  0.0016 -0.0165
 6431W        W 9651  16.992   5.013  14.800  0.3334  0.2745  0.1199
 6432W        W 9652   1.338   9.956  14.255 -0.0909  0.0720 -0.4438
 6433W        W 9653  17.994  15.073  14.600 -0.1152  0.0220 -0.0833
 6434W        W 9654   4.605  11.079   3.590 -0.0047  0.0163 -0.1312
 6435W        W 9655   0.953  13.620   9.350  0.4189 -0.1193 -0.1983
 6436W        W 9656   3.982   0.185   8.219 -0.1592  0.0938  0.0224
 6437W        W 9657   9.299  11.462  17.149  0.0629 -0.2897  0.0328
 6438W        W 9658   3.242  13.897  14.495  0.3952 -0.1840  0.0771
 6439W        W 9659   7.177   9.700   7.217  0.1343  0.2318 -0.3175
 6440W        W 9660   1.940   7.927   6.746  0.2067  0.0128  0.0928
 6441W        W 9661   2.917   7.388   0.472 -0.2050  0.0657  0.1087
 6442W        W 9662   4.314  12.677   3.730  0.0842  0.0754  0.0187
 6443W        W 9663   1.880  11.791   3.228 -0.0155  0.0644 -0.0564
 6444W        W 9664   6.951   8.357  17.703 -0.0951  0.1251 -0.0811
 6445W        W 9665   8.903  13.766   7.131  0.0055  0.1453  0.0322
 6446W        W 9666   4.123   6.280   4.988  0.0412 -0.4146  0.1678
 6447W        W 9667   3.939  16.204  11.922 -0.1093 -0.1819 -0.2101
 6448W        W 9668   4.227  15.978   7.319  0.2911 -0.1839 -0.1585
 6449W        W 9669   4.307  17.050   8.070  0.2047  0.0122  0.2600
 6450W        W 9670   3.006   0.063   3.806 -0.0553 -0.2163  0.0860
 6451W        W 9671   1.284  14.427   5.435  0.0381 -0.0089  0.2460
 6452W        W 9672  15.633  15.388   5.976 -0.1316  0.1189 -0.0858
 6453W        W 9673   5.892   8.461   1.083  0.0446 -0.2147 -0.0483
 6454W        W 9674   4.064  12.090   0.398 -0.1388  0.1749  0.1281
 6455W        W 9675   8.988  17.086   4.300 -0.1753 -0.0591  0.2246
 6456W        W 9676   5.829  14.005   8.951 -0.2462  0.0025  0.1596
 6457W        W 9677  17.538  14.490   7.261 -0.1364  0.2505 -0.1928
 6458W        W 9678   1.009  15.433  15.187 -0.0150 -0.0666  0.1048
 6459W        W 9679  17.596   5.142   8.789 -0.2406 -0.0851 -0.2899
 6460W        W 9680   3.831   8.302   9.891 -0.2169 -0.1593 -0.1827
 6461W        W 9681   0.592   0.785  13.519 -0.1944 -0.2344  0.1459
 6462W        W 9682  11.067   9.083   7.575  0.2152 -0.2333  0.1629
 6463W        W 9683   4.935  13.197  13.641  0.1648  0.0389 -0.1275
 6464W        W 9684   8.500  10.431   5.474  0.1958 -0.0597  0.1393
 6465W        W 9685   3.146  11.127   2.707 -0.0195  0.0345  0.1470
 6466W        W 9686  16.055  13.112  15.393 -0.0327  0.2170  0.2505
 6467W        W 9687   4.159   7.621   5.635 -0.0585 -0.3646  0.2010
 6468W        W 9688   6.334   3.133   3.350 -0.1055 -0.3004 -0.0764
 6469W        W 9689   6.019  15.539   5.967  0.1438  0.1464  0.0922
 6470W        W 9690   0.865  13.626   3.946  0.2283  0.1232  0.0844
 6471W        W 9691   3.965  16.841  10.878 -0.0353  0.0686 -0.4515
 6472W        W 9692   6.920  14.254   0.784 -0.0698 -0.2928 -0.0033
 6473W        W 9693   6.727  16.543   7.371  0.0817 -0.0733  0.2515
 6474W        W 9694   7.269  10.155   6.655  0.2271  0.0605 -0.0350
 6475W        W 9695   7.725   4.175   4.493 -0.1970 -0.0761 -0.0822
 6476W        W 9696   0.819  12.094  10.883 -0.0248 -0.2171 -0.1393
 6477W        W 9697  13.004  10.862   9.273  0.2676 -0.1627  0.0048
 6478W        W 9698   6.715  12.876  11.108  0.0048  0.0519 -0.1966
 6479W        W 9699   1.404  15.717   1.930 -0.3107 -0.0171 -0.2505
 6480W        W 9700   0.817   9.730   4.307  0.0196  0.0223  0.1779
 6481W        W 9701   1.505   9.628  14.582  0.1973 -0.1131 -0.1119
 6482W        W 9702   5.710   7.168   3.265  0.0645 -0.1381  0.0875
 6483W        W 9703   4.774  15.717  14.181  0.0919  0.1587 -0.2459
 6484W        W 9704   9.185  12.754   2.855  0.2755  0.3007  0.0684
 6485W        W 9705  15.834  13.262   9.595 -0.2439 -0.0903  0.1359
 6486W        W 9706   6.208  12.684   8.907 -0.0683 -0.1519  0.0422
 6487W        W 9707   1.289   1.242   1.475 -0.4138 -0.0676 -0.0110
 6488W        W 9708   8.615  12.730   2.606  0.0994  0.1296  0.1203
 6489W        W 9709  14.591  14.109   4.513  0.1267  0.3513 -0.1206
 6490W        W 9710   4.148   0.953  11.184 -0.4276  0.0167  0.1454
 6491W        W 9711  13.754  15.312   5.084  0.0343 -0.1919  0.3588
 6492W        W 9712   0.808   1.342   2.807  0.3640  0.3127 -0.2275
 6493W        W 9713  17.862  18.017  11.430  0.1609  0.2349 -0.0154
 6494W        W 9714  16.258  13.327   6.552  0.1357 -0.0608 -0.4227
 6495W        W 9715   8.760   1.893   9.172 -0.2935  0.1244  0.2171
 6496W        W 9716   5.100  12.173   8.424 -0.5257  0.1900  0.1915
 6497W        W 9717   0.258   1.000   2.894 -0.0962 -0.1707  0.0833
 6498W        W 9718  16.956   9.932   4.941 -0.1148 -0.0703 -0.0012
 6499W        W 9719  16.490  10.330   5.008  0.1653  0.0270 -0.0631
 6500W        W 9720   5.315  13.012  13.903  0.0592 -0.0358 -0.0583
 6501W        W 9721   4.675  15.213   7.829  0.2558 -0.1495 -0.0918
 6502W        W 9722  14.811  10.208  16.201 -0.2512  0.3035  0.2320
 6503W        W 9723   3.245  14.410  10.015 -0.1460 -0.3173 -0.1126
 6504W        W 9724   3.894  10.396   6.383  0.0882  0.0444  0.3021
 6505W        W 9725   2.689   8.843  11.816  0.1382  0.2417 -0.0737
 6506W        W 9726   2.727  14.698   2.734  0.0934 -0.0431 -0.0669
 6507W        W 9727  11.568   7.269   9.974  0.2138 -0.0189  0.1496
 6508W        W 9728  16.252   2.072  11.549  0.3373  0.1710  0.1475
 6509W        W 9729   6.956  18.104   8.168 -0.1789  0.2953 -0.0827
 6510W        W 9730  14.924  12.722   0.835 -0.1419 -0.0740 -0.0279
 6511W        W 9731   4.905  11.078  11.490 -0.2423 -0.0139  0.0994
 6512W        W 9732  13.377  15.451   8.587 -0.0220  0.1708 -0.2092
 6513W        W 9733  17.099   3.175   7.284  0.0546  0.1828 -0.0459
 6514W        W 9734   6.139  14.244   0.181 -0.0509  0.1555 -0.1404
 6515W        W 9735  16.999  10.171   2.929 -0.1108  0.0882  0.0568
 6516W        W 9736  15.137  11.319   5.868  0.0006 -0.1742  0.0489
 6517W        W 9737   5.466   0.185  14.712 -0.0397  0.2121 -0.0708
 6518W        W 9738  15.194  10.021  10.115  0.2519 -0.1454 -0.1268
 6519W        W 9739   9.704  11.285   1.786  0.0445  0.2284 -0.2237
 6520W        W 9740  17.087   0.316   5.081 -0.3345 -0.1659  0.1832
 6521W        W 9741   4.485   2.341  11.763  0.0061 -0.0260 -0.0321
 6522W        W 9742   8.040  11.442   6.120 -0.2660  0.0980  0.0369
 6523W        W 9743  11.333  14.674   5.369 -0.3619  0.1517 -0.0056
 6524W        W 9744   6.190  14.847   4.037 -0.3431  0.0503 -0.1198
 6525W        W 9745   8.823  15.751  10.694 -0.3008  0.1726  0.1198
 6526W        W 9746   6.068  14.651   1.068 -0.2508 -0.0059  0.2034
 6527W        W 9747  12.511  11.137   5.066  0.1508  0.0987 -0.2340
 6528W        W 9748   7.746  16.062   9.465  0.2497  0.2531  0.0255
 6529W        W 9749   1.341   2.458   4.499 -0.0603  0.0070 -0.4324
 6530W        W 9750  17.127   9.673   7.640 -0.1006 -0.3811 -0.3787
 6531W        W 9751  14.369  15.443  18.209  0.1131 -0.0608  0.3597
 6532W        W 9752  10.812   6.903   3.954  0.1231 -0.6648  0.0334
 6533W        W 9753   6.795   8.184   7.164 -0.3492  0.0930  0.0390
 6534W        W 9754   6.237  12.168   0.315 -0.0511 -0.1322 -0.0777
 6535W        W 9755   1.552   6.666   7.156  0.0458 -0.0384 -0.0833
 6536W        W 9756   2.466  12.181   2.639 -0.0547  0.2350 -0.2804
 6537W        W 9757  15.496   9.227   2.099  0.1245 -0.1491  0.0493
 6538W        W 9758   4.332  15.445   8.270  0.1071 -0.4018 -0.0018
 6539W        W 9759   9.610  15.124  17.865 -0.2295 -0.0170 -0.0748
 6540W        W 9760  18.071  13.202   7.975 -0.0240  0.2426  0.1919
 6541W        W 9761  11.556  14.742  13.214 -0.0737 -0.0285  0.2157
 6542W        W 9762   4.160  16.292  12.835  0.0728 -0.2311  0.1477
 6543W        W 9763   4.315   4.186  11.125  0.0494 -0.0098  0.2179
 6544W        W 9764   1.578  10.310   4.234 -0.0576 -0.1689  0.1297
 6545W        W 9765  10.714  13.994   9.576  0.1175  0.2571  0.1291
 6546W        W 9766   2.625  13.959   4.928  0.2288  0.0442  0.1762
 6547W        W 9767   4.757  13.044   8.053 -0.1964  0.2632 -0.2490
 6548W        W 9768   5.217  16.266   3.807  0.1916 -0.1280 -0.1717
 6549W        W 9769   0.479   6.465   8.435 -0.0353  0.1130  0.0573
 6550W        W 9770  15.729   9.907   6.225 -0.0001  0.1874  0.2513
 6551W        W 9771  14.548   9.732   8.893  0.2875  0.0950 -0.0917
 6552W        W 9772  13.271  17.724  15.435 -0.1828 -0.2412 -0.0903
 6553W        W 9773   9.375   8.585  13.297  0.0816  0.0354 -0.0382
 6554W        W 9774   8.857  12.288   7.061 -0.0590  0.0151  0.0640
 6555W        W 9775   7.149  17.080   1.849  0.1618 -0.0692  0.1652
 6556W        W 9776   9.778  13.939   6.304 -0.0133 -0.0379  0.1490
 6557W        W 9777   6.060   1.383  13.660  0.1699  0.2314  0.4194
 6558W        W 9778   8.578  10.844   9.857  0.0590 -0.0675  0.0625
 6559W        W 9779   3.902  10.797   7.237 -0.2425  0.1891  0.1000
 6560W        W 9780   4.755  16.442  10.813  0.1140 -0.2361  0.0936
 6561W        W 9781  16.511  17.338   5.571  0.3384 -0.0547  0.0417
 6562W        W 9782   7.099  11.311   1.310  0.1143  0.3887  0.2214
 6563W        W 9783   0.799  13.959   1.098 -0.2606 -0.1218 -0.2792
 6564W        W 9784  18.222   8.134   6.963 -0.0474  0.0588  0.1227
 6565W        W 9785  14.028  12.900   3.857  0.3186  0.1348  0.1292
 6566W        W 9786   3.060   0.064   3.280 -0.1729  0.0056 -0.0404
 6567W        W 9787   2.969  12.554   7.166  0.4255  0.4622 -0.1110
 6568W        W 9788  10.907  12.802   1.315  0.0620 -0.0636 -0.0237
 6569W        W 9789  16.499  11.734   6.787 -0.3298 -0.0248  0.0397
 6570W        W 9790   0.747  14.804   3.707  0.0524  0.0660 -0.2195
 6571W        W 9791  15.345  13.917   2.761 -0.1088 -0.0941 -0.0297
 6572W        W 9792   3.769  10.323   1.702  0.1421 -0.3784 -0.1818
 6573W        W 9793   3.023   9.380  10.553  0.1907  0.0718 -0.0407
 6574W        W 9794   4.240  10.216   1.436 -0.0513 -0.3517 -0.1091
 6575W        W 9795   6.110  10.390   8.378  0.1635 -0.1205  0.0279
 6576W        W 9796  12.351   4.178  12.398 -0.1229 -0.1010  0.1985
 6577W        W 9797  12.318   7.316  10.549  0.0479  0.0049  0.0293
 6578W        W 9798   5.189   8.420  11.844 -0.0793  0.0221 -0.1455
 6579W        W 9799   7.914   9.836   2.750  0.5084  0.1389  0.2689
 6580W        W 9800  15.184  10.865   4.961  0.0631  0.0439  0.2286
 6581W        W 9801  17.564   9.122   9.269  0.0871  0.0597  0.2250
 6582W        W 9802   6.631  12.158  12.178  0.1875 -0.5173  0.1899
 6583W        W 9803   3.980   8.295   7.692  0.2267 -0.1014  0.1045
 6584W        W 9804   1.508   8.185   4.278  0.0187 -0.1490 -0.0786
 6585W        W 9805  18.248   9.355   4.722  0.3351 -0.0842  0.0794
 6586W        W 9806   2.314  13.368   8.089 -0.3293  0.1348  0.1688
 6587W        W 9807   1.599  16.420   6.645  0.1792 -0.2065 -0.1120
 6588W        W 9808   6.620   5.706   8.920  0.0970 -0.1571  0.1002
 6589W        W 9809  15.880  15.179   8.388 -0.1736 -0.0676 -0.0794
 6590W        W 9810   6.827  18.040   3.491  0.0477 -0.1574 -0.0359
 6591W        W 9811   1.382  11.516   4.036 -0.1486  0.0079  0.0372
 6592W        W 9812  11.050  16.724   0.191 -0.1410  0.4967  0.4950
 6593W        W 9813  17.566   1.086   3.814 -0.0877 -0.2301 -0.0485
 6594W        W 9814  17.970   0.950   6.268 -0.2807  0.3780 -0.1251
 6595W        W 9815   2.440  15.200  10.274 -0.2544 -0.1814  0.2568
 6596W        W 9816   1.656  13.321   5.073  0.0631  0.1180 -0.3185
 6597W        W 9817   4.290  11.411   5.046 -0.2312  0.1562 -0.1840
 6598W        W 9818   2.542   7.222   4.134 -0.0477  0.1081  0.5326
 6599W        W 9819   3.770  17.453  12.043  0.0584  0.1259  0.1810
 6600W        W 9820   5.512  14.648   6.395 -0.2199 -0.0130 -0.1385
 6601W        W 9821   8.666  12.735   9.326  0.1228  0.3400 -0.1697
 6602W        W 9822   2.126  17.820   8.696  0.0080  0.4510 -0.0320
 6603W        W 9823   2.397   3.082   5.434  0.3050  0.1373 -0.1042
 6604W        W 9824   2.836  12.145   6.917  0.2112 -0.2835  0.0813
 6605W        W 9825   3.868   8.318   2.961 -0.0007  0.2093 -0.1920
 6606W        W 9826   4.251   5.022  11.056  0.0206  0.2715 -0.0308
 6607W        W 9827   0.599  16.341   8.432 -0.2547  0.1554 -0.3823
 6608W        W 9828   4.267   9.001   3.647  0.0434  0.5410 -0.0662
 6609W        W 9829   0.887   9.903   7.301  0.1056  0.0470 -0.0615
 6610W        W 9830   4.465   7.750   4.077 -0.0377  0.1383 -0.0428
 6611W        W 9831   6.819   1.302  13.606 -0.0229  0.2960 -0.0286
 6612W        W 9832   1.426   0.459   6.135  0.0836 -0.3313  0.0438
 6613W        W 9833   0.461   9.038  11.087 -0.0782 -0.0876 -0.1944
 6614W        W 9834   5.400  11.919   9.910 -0.2394 -0.2405 -0.1153
 6615W        W 9835   3.961  12.752   7.959  0.1637 -0.2086 -0.1499
 6616W        W 9836  17.405  10.451   2.996  0.3029 -0.1493 -0.2545
 6617W        W 9837  18.007  17.563  16.020  0.0198  0.0080  0.1026
 6618W        W 9838   3.343   7.715   4.567  0.3764 -0.1761 -0.1089
 6619W        W 9839   7.094   5.879   8.112 -0.0141 -0.0429 -0.0331
 6620W        W 9840   0.724  16.493  13.381  0.4056  0.1828  0.3247
 6621W        W 9841   0.759   2.372   6.123  0.0476 -0.1159  0.0789
 6622W        W 9842   6.303  13.348   3.045 -0.3633 -0.4135 -0.3820
 6623W        W 9843   3.440  12.219   9.015  0.2057  0.0128  0.0270
 6624W        W 9844   4.229  16.851   0.101  0.2020  0.0055 -0.0169
 6625W        W 9845   8.766  15.860   1.943  0.0548  0.1265 -0.1549
 6626W        W 9846   7.170   6.110   5.287  0.1775  0.0863 -0.1426
 6627W        W 9847  17.218   8.653   5.020 -0.0530  0.0212 -0.1771
 6628W        W 9848   8.787   4.226   2.271  0.1365 -0.0946  0.4116
 6629W        W 9849   3.619  10.887   6.618 -0.2953 -0.0056  0.0259
 6630W        W 9850   1.773  12.131   5.137 -0.2123 -0.1095  0.2535
 6631W        W 9851   1.100   5.456   9.576  0.1023  0.2935 -0.2183
 6632W        W 9852   0.717   7.779   9.333  0.1091 -0.0507  0.0505
 6633W        W 9853   6.495  15.867   0.664 -0.0864 -0.0223  0.2217
 6634W        W 9854  12.276  17.732   7.367 -0.0859  0.0519  0.0561
 6635W        W 9855   6.920  14.563   3.619 -0.0685 -0.0160  0.1275
 6636W        W 9856   7.403  10.128   5.650  0.1796  0.1792 -0.0608
 6637W        W 9857   2.927   2.269   5.762 -0.2018  0.0058  0.1472
 6638W        W 9858   4.082  17.940   4.503  0.0367 -0.1105 -0.0262
 6639W        W 9859  15.605   5.633  13.846  0.1184  0.3794  0.5221
 6640W        W 9860   2.618   2.447   8.450  0.2070  0.0795  0.0152
 6641W        W 9861  16.143  15.081   1.961  0.0278 -0.1046 -0.0208
 6642W        W 9862  17.748  12.371   3.718  0.1583  0.2310 -0.2295
 6643W        W 9863   7.613  15.253   5.037  0.2308 -0.1513 -0.0618
 6644W        W 9864   6.009  10.940   8.668 -0.1331  0.2666 -0.0169
 6645W        W 9865  13.156  16.297   6.934  0.0134 -0.1922 -0.0524
 6646W        W 9866   6.832  12.504  17.802 -0.2619  0.0372 -0.2323
 6647W        W 9867   2.064  17.035  17.919  0.0678 -0.0602 -0.4588
 6648W        W 9868   2.973  12.258   3.750 -0.0420 -0.0100  0.2186
 6649W        W 9869   1.940  12.510  11.609  0.0610  0.3290  0.2511
 6650W        W 9870  15.073  14.697   3.453 -0.0880  0.2638 -0.1066
 6651W        W 9871   0.664  11.985   7.320 -0.2458  0.4712 -0.1251
 6652W        W 9872  17.781   2.069   5.372 -0.1212  0.0123  0.0879
 6653W        W 9873   3.004  16.642  12.643  0.0590 -0.4955  0.2507
 6654W        W 9874   7.164   4.903   8.985  0.2072 -0.0599 -0.0594
 6655W        W 9875   2.124  12.373   0.169 -0.1453  0.4426 -0.1550
 6656W        W 9876   3.208  15.652  12.359 -0.2375  0.2588 -0.0219
 6657W        W 9877   2.791  12.762   9.934 -0.0349 -0.0477  0.1402
 6658W        W 9878   1.810  11.703   8.318 -0.0867 -0.1193 -0.0914
 6659W        W 9879   0.034  12.177   4.689  0.1494 -0.0111  0.3044
 6660W        W 9880   8.284  14.788   9.635  0.3132  0.3140 -0.0922
 6661W        W 9881  17.038  12.126   4.527  0.1384 -0.2797  0.1146
 6662W        W 9882   1.274   6.674  11.221  0.0997  0.1061 -0.1074
 6663W        W 9883  14.493  11.571   7.217 -0.4855  0.0396  0.0911
 6664W        W 9884   9.602  12.384   1.236 -0.0595  0.4759 -0.3205
 6665W        W 9885  16.553  16.109   4.198 -0.0769 -0.0080 -0.0396
 6666W        W 9886   3.780  10.320  15.719  0.1615 -0.1627 -0.1229
 6667W        W 9887  14.149  11.405   9.142 -0.3045  0.0356  0.3277
 6668W        W 9888   8.193  12.473   8.633 -0.2790  0.0639  0.1058
 6669W        W 9889   3.862  12.393   3.559 -0.0513 -0.1782  0.1119
 6670W        W 9890   3.299  14.036   4.773 -0.2208  0.0147  0.0187
 6671W        W 9891   3.356   2.088   5.720  0.2236  0.0447  0.4112
 6672W        W 9892  14.008  13.227  13.443 -0.3495  0.1072 -0.1215
 6673W        W 9893  12.975  11.561  15.038  0.0996 -0.0741  0.0779
 6674W        W 9894  17.574  15.342  14.170  0.1300 -0.0452 -0.0600
 6675W        W 9895   3.864   8.986   4.377  0.0640  0.1927 -0.2922
 6676W        W 9896   4.347   9.933   6.949 -0.0976  0.2560 -0.2828
 6677W        W 9897   2.307   6.079   5.274  0.0592 -0.1364  0.0535
 6678W        W 9898   4.562   9.720   1.946  0.1321  0.0635 -0.0336
 6679W        W 9899  15.149  10.249   1.624 -0.2961 -0.0767  0.2846
 6680W        W 9900   2.277  13.816   4.568 -0.0280  0.3540 -0.2436
 6681W        W 9901  17.106  10.992   9.922 -0.0960  0.0079  0.2117
 6682W        W 9902  16.910  11.278   5.621  0.0898 -0.2912 -0.2329
 6683W        W 9903  17.331  10.345   1.039 -0.0073  0.1097  0.0193
 6684W        W 9904   0.454  11.330   2.842  0.1620  0.1621 -0.0961
 6685W        W 9905   5.259  12.910  11.507  0.3770  0.1030 -0.0127
 6686W        W 9906  15.189  16.277   4.335  0.5339 -0.1930 -0.2754
 6687W        W 9907   4.865  16.490   1.044 -0.1629 -0.0899  0.0116
 6688W        W 9908   4.768  10.550   5.532 -0.1475  0.0962 -0.0265
 6689W        W 9909   1.518  14.176   6.998 -0.3299  0.1104  0.2421
 6690W        W 9910   6.511  14.058   4.552 -0.1247 -0.1623 -0.1990
 6691W        W 9911   1.057  15.259   8.570 -0.0764  0.1248  0.0961
 6692W        W 9912   3.623  14.961   2.445 -0.0427 -0.3615  0.2024
 6693W        W 9913   2.691  13.718   5.498  0.1505 -0.2162 -0.2562
 6694W        W 9914   2.317  14.075  11.480  0.0131 -0.3088  0.1695
 6695W        W 9915   0.335   8.783  11.944  0.1271 -0.1633  0.0671
 6696W        W 9916   8.494   8.746   0.495  0.4053 -0.3325 -0.0024
 6697W        W 9917   6.742  13.237   6.433  0.0561  0.0285 -0.2123
 6698W        W 9918   5.590  12.699  18.240  0.0538  0.0447 -0.1347
 6699W        W 9919   0.966  10.118  11.693 -0.0976  0.0185  0.0837
 6700W        W 9920  16.637  14.153   4.621  0.1708 -0.2412 -0.1897
 6701W        W 9921   1.193  10.368   0.580  0.2953 -0.2497  0.3650
 6702W        W 9922   5.932  15.959   1.048 -0.1376 -0.0345 -0.1956
 6703W        W 9923   7.812   7.154   6.390 -0.0615 -0.1021  0.0630
 6704W        W 9924   1.370  14.479   8.204 -0.2917 -0.3216  0.0113
 6705W        W 9925  10.038  13.791   0.999 -0.0609 -0.0987 -0.2889
 6706W        W 9926  18.128  12.755   0.520 -0.0457  0.2141  0.2186
 6707W        W 9927   0.997  14.086  11.126  0.1311  0.1277 -0.2044
 6708W        W 9928   3.305   0.715   6.196 -0.0080 -0.2072  0.1238
 6709W        W 9929   2.709  14.455   9.926  0.0641  0.0936 -0.1441
 6710W        W 9930  17.657   7.927   5.548 -0.2531 -0.0684  0.0259
 6711W        W 9931   0.836  12.269   1.852 -0.1523 -0.1898 -0.0346
 6712W        W 9932   1.322  15.990  11.497 -0.2201 -0.1978  0.0315
 6713W        W 9933   5.182   8.890   9.168 -0.2739 -0.0403  0.2320
 6714W        W 9934   3.539  14.736  10.829  0.3205  0.0065 -0.0829
 6715W        W 9935  14.417   9.937   7.941 -0.1472 -0.0364 -0.0499
 6716W        W 9936  17.121  11.928   7.836 -0.2177 -0.4470 -0.0655
 6717W        W 9937  12.475   4.626   4.795  0.1607 -0.2568 -0.1209
 6718W        W 9938  17.966  16.816   3.584  0.3292 -0.1549 -0.1359
 6719W        W 9939  14.580  16.406   9.877  0.1346  0.1559  0.4095
 6720W        W 9940  14.918  12.701   4.072 -0.0286 -0.0997  0.1602
 6721W        W 9941   0.979  12.412   4.388  0.0203 -0.2826  0.0558
 6722W        W 9942   5.558  14.049   9.344 -0.1053 -0.2222  0.1461
 6723W        W 9943   2.536  12.130  15.218  0.1048 -0.0257 -0.0880
 6724W        W 9944   7.773  11.016   2.649 -0.1401  0.0495  0.0794
 6725W        W 9945  16.737   1.565   6.227  0.2397 -0.3168 -0.0767
 6726W        W 9946   7.391  13.872   1.848 -0.0289  0.2096 -0.0463
 6727W        W 9947  16.767  17.267   8.736 -0.2839  0.0471  0.0068
 6728W        W 9948  16.761  16.538   6.621 -0.0241 -0.3597 -0.0030
 6729W        W 9949   5.714  14.896   7.138  0.0669 -0.0737  0.0482
 6730W        W 9950   0.557  12.232  18.243  0.0415  0.0321  0.1518
 6731W        W 9951  10.705  15.189   8.480 -0.0538  0.0110 -0.0496
 6732W        W 9952  16.830  11.807  10.871 -0.4297 -0.0080 -0.0279
 6733W        W 9953  16.895  14.884   1.030  0.2808  0.2609 -0.0205
 6734W        W 9954  17.716   0.003   6.229 -0.2088  0.0271  0.1673
 6735W        W 9955   5.435  16.436  16.065  0.3580  0.2308 -0.3351
 6736W        W 9956  16.602  12.530   4.144 -0.0558 -0.0081 -0.2110
 6737W        W 9957   7.524  15.450   7.171 -0.1517  0.2301 -0.0865
 6738W        W 9958   1.937  12.176  16.555  0.0252 -0.0503 -0.0174
 6739W        W 9959  18.114   2.696  14.532  0.3432 -0.1869 -0.1213
 6740W        W 9960   4.662  12.484   8.455 -0.1453 -0.3500 -0.1328
 6741W        W 9961  18.163  13.240   8.507  0.0740  0.0143  0.0987
 6742W        W 9962   0.809   6.164  12.422 -0.0816 -0.1812 -0.4495
 6743W        W 9963   4.898   9.806   3.219  0.0764 -0.3860 -0.1850
 6744W        W 9964  15.196   8.465   6.502 -0.0711  0.0141 -0.0244
 6745W        W 9965   0.126  17.953   7.792  0.0394  0.3144  0.4355
 6746W        W 9966   0.387   0.957  10.834 -0.1038  0.0769  0.1169
 6747W        W 9967   1.859  14.504   9.834 -0.1079  0.2274  0.2309
 6748W        W 9968   6.606   9.698   2.993 -0.1079 -0.2620  0.0481
 6749W        W 9969   1.361   1.742   8.010  0.1635  0.0353  0.2340
 6750W        W 9970   1.734  10.108   1.374  0.1069  0.1303  0.0874
 6751W        W 9971   4.156   7.946  11.320  0.1802  0.2445 -0.2197
 6752W        W 9972   3.359   8.062  10.624  0.1644  0.1878 -0.1223
 6753W        W 9973  15.311  14.431  16.004 -0.1851  0.0463  0.0789
 6754W        W 9974  16.554   0.378  10.807 -0.1597  0.1311  0.0880
 6755W        W 9975   1.842  14.759  11.414  0.0594  0.2484  0.4144
 6756W        W 9976   0.102   6.749   8.491 -0.0805  0.0861 -0.0734
 6757W        W 9977   3.135   8.370  10.989 -0.1373 -0.1393 -0.2857
 6758W        W 9978   1.502  10.263  12.357  0.0876 -0.1703 -0.0635
 6759W        W 9979   2.921  12.951   0.487 -0.2117  0.3575  0.1673
 6760W        W 9980   1.170  12.107  16.895 -0.1681 -0.1453  0.0335
 6761W        W 9981  12.563  13.058  11.420  0.0713 -0.3474  0.0780
 6762W        W 9982   2.970  11.382   9.096  0.3021 -0.1988 -0.2198
 6763W        W 9983  10.513  14.553   5.245 -0.0993  0.2041  0.1211
 6764W        W 9984  16.986  11.402  14.481 -0.2978  0.2973 -0.1625
 6765W        W 9985   0.885  11.007  11.864  0.0642  0.0689 -0.2765
 6766W        W 9986   0.719  17.192  13.065 -0.1770  0.0893 -0.0318
 6767W        W 9987   0.083  12.583  10.840  0.0659 -0.0598 -0.1528
 6768W        W 9988   5.039  17.503   7.627 -0.0456  0.0185  0.0789
 6769W        W 9989   3.247  13.670   0.115  0.3551 -0.0552 -0.2545
 6770W        W 9990   5.158  12.719  13.458 -0.1761 -0.1024 -0.0029
 6771W        W 9991   1.834  16.662  17.663  0.2125 -0.0268  0.1684
 6772W        W 9992  18.051   4.072   5.027  0.0058  0.1983  0.1753
 6773W        W 9993   4.470  14.294   5.411  0.2142  0.1378 -0.1925
 6774W        W 9994  15.270  13.575   7.841  0.1189 -0.0904 -0.1398
 6775W        W 9995   7.254   0.056  16.117 -0.0343  0.0926 -0.0719
 6776W        W 9996   0.154  16.072   8.160 -0.0894 -0.0200 -0.1354
 6777W        W 9997   3.937  11.766  11.992  0.0682 -0.1248  0.1527
 6778W        W 9998  15.433  12.465  15.059  0.0888  0.0034  0.1937
 6779W        W 9999   4.604   7.325   3.791 -0.1747 -0.2386  0.0572
 6780W        W10000  17.482  15.145   6.577 -0.0661  0.0132  0.0372
 6781W        W10001   8.506  12.603   5.923  0.0560 -0.3586 -0.0196
 6782W        W10002  16.292  11.858   8.189  0.1923  0.0200  0.0283
 6783W        W10003  17.373   8.977  13.093  0.0019 -0.0435  0.0880
 6784W        W10004   4.249   9.809   3.928 -0.0075 -0.2846  0.0011
 6785W        W10005   8.815   5.725   3.881 -0.1300 -0.0197 -0.0850
 6786W        W10006  17.623  10.991   6.239 -0.1603 -0.2750 -0.0272
 6787W        W10007   9.473  16.899  11.026  0.1657  0.1002 -0.0243
 6788W        W10008  10.545  11.291  13.682 -0.0047  0.1021  0.1573
 6789W        W10009   5.328  12.026   8.929 -0.0150  0.0356 -0.0062
 6790W        W10010   6.940   6.180   2.526 -0.1685  0.3665  0.1126
 6791W        W10011  15.487   5.496  12.654  0.0287 -0.0013  0.2382
 6792W        W10012   1.733  11.416   6.681  0.0572  0.0170 -0.5344
 6793W        W10013  14.930   7.389  13.758  0.0974  0.1135 -0.1360
 6794W        W10014  12.243   7.062   2.992  0.1368  0.0040 -0.0013
 6795W        W10015  17.277  11.726   7.269  0.2523  0.1200 -0.1938
 6796W        W10016   5.591  15.318   8.655 -0.0940  0.2704  0.0693
 6797W        W10017  16.025  12.436  10.047 -0.0937 -0.0625 -0.1615
 6798W        W10018   6.738   0.267   8.314  0.2361 -0.1362 -0.0138
 6799W        W10019   7.383   2.687   9.021 -0.1741  0.1013 -0.1249
 6800W        W10020  15.867  13.477  12.734  0.0011  0.0053 -0.0447
 6801W        W10021   7.850   7.545  17.612  0.1501  0.3891  0.0641
 6802W        W10022  17.145   0.085   7.247 -0.0011 -0.2207  0.0770
 6803W        W10023   5.195   1.486  15.113 -0.3172 -0.0255  0.2331
 6804W        W10024  15.415  17.427  10.508 -0.1410  0.0859  0.0902
 6805W        W10025   2.973  11.340   9.578  0.3983  0.0460 -0.0629
 6806W        W10026   2.777   8.478   4.204  0.1800 -0.1024  0.0683
 6807W        W10027   2.166  10.294   1.682  0.1153  0.1153  0.2438
 6808W        W10028  17.241   1.543  10.892 -0.0996 -0.2823 -0.1770
 6809W        W10029   3.372   4.181   8.450 -0.3917  0.1999  0.0073
 6810W        W10030   4.256  11.306  10.827 -0.0433 -0.1048  0.0595
 6811W        W10031  14.521  15.369   6.340  0.3355 -0.0092 -0.0799
 6812W        W10032  15.575  11.609  12.871 -0.1510  0.3023 -0.1472
 6813W        W10033  10.215   2.093  16.006  0.1063 -0.0900 -0.1121
 6814W        W10034   8.448   3.888   6.211 -0.1023 -0.1969 -0.0887
 6815W        W10035   3.924   9.424   5.819 -0.2195 -0.1994  0.2089
 6816W        W10036   5.128  10.027  17.197  0.1367  0.0013 -0.0370
 6817W        W10037   2.214  16.184   9.434  0.1846  0.1645 -0.2787
 6818W        W10038  12.751  10.393  13.790 -0.0310  0.0473  0.1274
 6819W        W10039  17.670  10.124   1.873 -0.0364 -0.0382  0.0743
 6820W        W10040   1.297  14.281   7.463  0.1244  0.2298 -0.0897
 6821W        W10041   1.096   7.553   9.065  0.0468  0.0653 -0.0232
 6822W        W10042   4.746   7.744   9.595 -0.4381  0.1091 -0.0107
 6823W        W10043   8.283   4.965  12.221  0.0366  0.0280  0.0975
 6824W        W10044   7.081   9.154   9.983  0.2712  0.0942  0.0891
 6825W        W10045   8.280   1.985  11.851  0.0346 -0.0919 -0.0544
 6826W        W10046   2.413   8.229  14.911  0.1465  0.0017  0.3949
 6827W        W10047   7.025   7.165  13.415 -0.1167  0.2477 -0.0681
 6828W        W10048   2.288   3.331  11.848  0.3158  0.0774  0.0027
 6829W        W10049  16.239  15.614   5.361  0.3187  0.0647 -0.0109
 6830W        W10050   2.492  16.893  11.684  0.0909 -0.3095  0.0047
 6831W        W10051  15.503   9.830  12.191 -0.0389 -0.1404 -0.0728
 6832W        W10052  11.001   6.576   9.655 -0.2033  0.0424  0.0843
 6833W        W10053   2.049   9.302   4.055  0.1550  0.2058  0.1561
 6834W        W10054  16.402  15.432   0.383  0.0599  0.2102  0.0629
 6835W        W10055   6.459   7.751  13.243 -0.2193 -0.2841 -0.0231
 6836W        W10056  15.188   8.129  16.595 -0.2039  0.0503 -0.1064
 6837W        W10057  10.281   4.726  12.514 -0.2013  0.3757 -0.2651
 6838W        W10058   3.053  16.304  10.161 -0.0523  0.0823  0.1423
 6839W        W10059  14.182   9.654   7.228  0.1113 -0.0168  0.1631
 6840W        W10060  17.328  16.133  14.867  0.0151  0.0664 -0.0829
 6841W        W10061   2.422  12.067  10.495 -0.1519 -0.0789 -0.1295
 6842W        W10062   2.747   0.330  18.048 -0.0778  0.0582  0.1467
 6843W        W10063  14.726  17.640   2.806  0.0825 -0.2495  0.0936
 6844W        W10064  12.388  13.220  12.329 -0.4276 -0.1262 -0.2476
 6845W        W10065   3.525  11.627   6.860 -0.1511  0.1074  0.4264
 6846W        W10066  17.597  14.864  13.839  0.3120  0.4096 -0.2445
 6847W        W10067  17.959  15.921  11.966  0.1820  0.2271 -0.2416
 6848W        W10068   6.920  10.820  10.380 -0.0604  0.0850 -0.4073
 6849W        W10069   7.270  18.129   9.527  0.0586 -0.0349  0.0969
 6850W        W10070   3.632  10.375   2.557  0.2419  0.4435 -0.0461
 6851W        W10071  10.536  11.220   5.525 -0.3193 -0.0420  0.0577
 6852W        W10072  16.280   4.769  14.276 -0.3201 -0.0205 -0.2249
 6853W        W10073   1.908   7.887   5.611  0.0771 -0.2071  0.1677
 6854W        W10074   0.584   1.178   9.415 -0.0575  0.2274 -0.0694
 6855W        W10075   4.193  10.287   3.889  0.0794  0.1618  0.2542
 6856W        W10076   4.953  10.756   9.230  0.1098  0.0341 -0.0268
 6857W        W10077   8.032   1.149  14.133 -0.1265 -0.3065 -0.1338
 6858W        W10078  16.150  16.614  14.073  0.0082  0.1276 -0.3397
 6859W        W10079  13.520  13.860   7.133  0.0659  0.1056  0.2693
 6860W        W10080   3.704  13.636   6.515  0.2447  0.0927  0.0526
 6861W        W10081   2.725   5.663  14.403 -0.2172  0.2233  0.0475
 6862W        W10082   2.053  11.351  15.223 -0.0894  0.3671  0.0078
 6863W        W10083   3.873  11.622  16.908 -0.0038  0.0286 -0.0094
 6864W        W10084   9.603  12.342   1.753 -0.1624 -0.3758  0.2000
 6865W        W10085   7.162  16.997   6.811 -0.1674 -0.3643  0.0401
 6866W        W10086  16.457   2.439   9.086  0.3664  0.1397  0.0091
 6867W        W10087   4.233  16.788   8.541  0.0792  0.1806 -0.4649
 6868W        W10088   3.078   1.464  10.675 -0.0108  0.0896 -0.1541
 6869W        W10089   3.209   3.955   9.604 -0.0979 -0.0020  0.2017
 6870W        W10090   5.570   5.951  16.269 -0.0002 -0.0148 -0.0944
 6871W        W10091   3.586  14.639   9.374  0.2105 -0.0087  0.2929
 6872W        W10092   6.945  13.442  12.277 -0.0270 -0.1342  0.4054
 6873W        W10093  16.933   7.259  11.456 -0.3603  0.0506  0.1193
 6874W        W10094   4.651  10.542   3.994  0.0788  0.0657 -0.0613
 6875W        W10095   3.900   5.573  13.852 -0.0273  0.0726  0.1965
 6876W        W10096  18.096  10.560  10.623  0.0041 -0.2032 -0.1900
 6877W        W10097   2.940  12.730  12.762  0.1978  0.0883  0.2206
 6878W        W10098  18.038   1.234   4.339  0.3113 -0.0274  0.2246
 6879W        W10099  16.582   6.917  11.114 -0.0784 -0.4453 -0.2247
 6880W        W10100  14.894  16.177  10.172  0.1289  0.0413 -0.0383
 6881W        W10101   0.317   5.894   7.512  0.0234  0.0944 -0.2982
 6882W        W10102   5.104   6.557   9.241 -0.1835 -0.1164  0.2493
 6883W        W10103   0.091  17.164  14.754  0.0451  0.0925  0.0017
 6884W        W10104   0.933  12.458   7.783  0.0042 -0.1544 -0.1302
 6885W        W10105  14.638  14.617  10.776  0.0573 -0.1969  0.3050
 6886W        W10106   3.769  13.656   8.179 -0.2023 -0.1218 -0.0048
 6887W        W10107   0.483  14.720   6.144 -0.0078  0.0962 -0.0833
 6888W        W10108  16.500  12.207  10.888  0.0223 -0.2669 -0.0101
 6889W        W10109   3.610   8.510   8.154 -0.1739  0.0812  0.2774
 6890W        W10110   0.454   8.879   1.048 -0.1179 -0.0759  0.0633
 6891W        W10111  17.728   0.533  13.121 -0.0724  0.0302  0.0155
 6892W        W10112  13.032   1.253  10.955 -0.3595 -0.0557 -0.2646
 6893W        W10113  18.219  11.425   8.608 -0.2201  0.2092  0.2293
 6894W        W10114  14.436  13.005  12.116 -0.1087  0.2558 -0.4616
 6895W        W10115  16.641  15.693   8.039  0.0462 -0.0245 -0.1667
 6896W        W10116   0.693   8.707  10.748 -0.3886 -0.3275  0.0995
 6897W        W10117   7.179   9.138  11.560  0.3025  0.0387  0.4994
 6898W        W10118   2.794  16.317   9.144 -0.1546 -0.1859 -0.1539
 6899W        W10119   3.099  10.522  12.361  0.0013 -0.2216 -0.1593
 6900W        W10120   2.165   5.936  10.189 -0.3281  0.2349 -0.0927
 6901W        W10121  13.431  12.176  12.038  0.0313 -0.0234 -0.5672
 6902W        W10122   3.389  12.727  15.471 -0.3764 -0.0817  0.3100
 6903W        W10123   4.124   4.527  10.356  0.1502  0.2062 -0.0138
 6904W        W10124   7.854   7.237   3.980  0.0097 -0.1467 -0.2716
 6905W        W10125   2.220   9.844   7.222  0.2839 -0.0734  0.1167
 6906W        W10126  14.988   3.805  11.423 -0.0193 -0.0260 -0.7302
 6907W        W10127  10.550  12.975   3.819  0.1260 -0.2470 -0.0117
 6908W        W10128   6.986   8.506   8.101 -0.1713  0.1827  0.0056
 6909W        W10129   6.559  13.412  11.185  0.0892  0.1490 -0.2463
 6910W        W10130   2.673  17.651   4.034 -0.4732 -0.0870 -0.1492
 6911W        W10131   5.374   0.748   4.247  0.0087  0.2028  0.2302
 6912W        W10132  15.955  16.718   1.288 -0.2731 -0.0083 -0.3544
 6913W        W10133  17.696  14.566  14.620  0.0824  0.0681  0.0222
 6914W        W10134  17.601   8.791   4.393  0.0595 -0.0589 -0.0100
 6915W        W10135   6.752   1.587   1.856  0.0916  0.3876 -0.0331
 6916W        W10136   6.326  17.242   6.844  0.0703 -0.3087  0.0929
 6917W        W10137   3.426  13.353  10.106 -0.0455  0.1684 -0.0906
 6918W        W10138  16.806  14.533   7.840  0.0524 -0.0356  0.0175
 6919W        W10139  17.609  13.539  11.530  0.0743 -0.0407  0.0061
 6920W        W10140   7.854  12.847  11.210  0.4274  0.1231 -0.0486
 6921W        W10141   2.210  14.535   8.626  0.1045  0.3126 -0.0050
 6922W        W10142  10.497  13.634  14.766 -0.4237  0.1079  0.1779
 6923W        W10143   1.714   5.714   6.132 -0.0258 -0.0797 -0.0587
 6924W        W10144   6.309   2.320  10.611  0.0344  0.0590  0.2160
 6925W        W10145  14.506  15.235  12.312  0.0617 -0.1650 -0.3194
 6926W        W10146   2.216  13.085  10.616  0.2238  0.2114  0.0254
 6927W        W10147   0.846   8.898  14.194  0.1106  0.2489  0.0470
 6928W        W10148  17.997  13.748  11.183  0.2839 -0.2003 -0.0143
 6929W        W10149  10.062  17.046   2.068 -0.0881 -0.3339  0.2645
 6930W        W10150   6.648  13.799   9.493  0.3106 -0.2682 -0.0917
 6931W        W10151  17.464   0.519  17.176  0.0449  0.1159  0.0647
 6932W        W10152   4.705  10.351   9.991 -0.1527  0.3479 -0.0322
 6933W        W10153  15.970   0.646   9.542  0.1308  0.1907  0.1905
 6934W        W10154   6.684  12.885   8.951 -0.0897 -0.4113  0.0499
 6935W        W10155  16.434  14.744  12.766  0.1053 -0.0210  0.0174
 6936W        W10156   3.892  12.964   7.028  0.3286 -0.0373  0.0793
 6937W        W10157   2.333  12.082   3.170 -0.0417  0.2560  0.2421
 6938W        W10158   6.357   6.581  12.021 -0.3028  0.0845 -0.1984
 6939W        W10159   4.408  10.185   8.057 -0.2895 -0.1825  0.1060
 6940W        W10160   0.200  15.338  13.099  0.0267 -0.0836 -0.3667
 6941W        W10161   0.730  12.644  16.747  0.0101  0.0168  0.3109
 6942W        W10162   3.167  14.641  11.808  0.0744 -0.1686  0.0254
 6943W        W10163  16.628   0.173  10.221  0.1825 -0.1755 -0.1621
 6944W        W10164   3.285  13.804   8.277  0.0098 -0.0648  0.1221
 6945W        W10165  12.504  13.010  13.724  0.3174  0.1311 -0.0033
 6946W        W10166   4.964   1.149   7.174  0.1056 -0.0840  0.1107
 6947W        W10167   3.884   8.395  12.981 -0.0067  0.0869  0.3910
 6948W        W10168   9.844   7.163  11.504  0.1026 -0.1609  0.1307
 6949W        W10169   4.048  10.448  12.411  0.0308  0.0835  0.1960
 6950W        W10170   0.982   9.891   3.858  0.0032 -0.0255  0.3930
 6951W        W10171   6.957  11.273  10.076  0.0767 -0.3974  0.0528
 6952W        W10172  11.314  12.013   7.199  0.1751  0.2257 -0.1895
 6953W        W10173  16.265  13.140  13.683 -0.2873  0.2239 -0.0761
 6954W        W10174  17.165   2.581   9.692 -0.0955 -0.0756 -0.1859
 6955W        W10175   2.275   5.159  12.893  0.1144 -0.3991 -0.2616
 6956W        W10176   7.666   7.799  11.735 -0.1723  0.1944  0.0881
 6957W        W10177   1.530  14.111  12.647  0.0338 -0.1727  0.1675
 6958W        W10178  15.348  10.507  11.637 -0.1481 -0.1803  0.1111
 6959W        W10179  14.293  11.753   9.724 -0.1600 -0.2534 -0.0420
 6960W        W10180  17.845  10.639   9.198  0.0182  0.1358 -0.1088
 6961W        W10181   0.012  17.660   7.330 -0.0082 -0.4091  0.1838
 6962W        W10182   3.284   7.128   7.561 -0.1232 -0.0343  0.4473
 6963W        W10183   7.059  17.543  11.987  0.1737  0.0078 -0.0838
 6964W        W10184  16.083  14.606   6.882  0.2231  0.0540 -0.0974
 6965W        W10185   2.369  11.818  11.884  0.1316 -0.2180 -0.0187
 6966W        W10186   2.803  16.757   9.972 -0.0370 -0.0304  0.0591
 6967W        W10187  14.804  13.512   8.958  0.0732  0.1601 -0.0479
 6968W        W10188   4.283  11.912   6.244 -0.0695 -0.0308  0.2546
 6969W        W10189   0.626  14.629   9.873 -0.0188 -0.1189 -0.1201
 6970W        W10190   7.420  12.509   6.132  0.0245  0.2379  0.1434
 6971W        W10191   3.808   3.852   9.901 -0.3276 -0.0591 -0.1017
 6972W        W10192  16.946  16.117  14.459 -0.2616 -0.3388 -0.2215
 6973W        W10193   7.816  14.344   9.578 -0.1723 -0.1482  0.1398
 6974W        W10194   5.672   9.684   9.320  0.1507  0.1704 -0.1468
 6975W        W10195  16.401  16.710   8.078  0.2587  0.1079 -0.1096
 6976W        W10196   2.127  10.819   1.424 -0.2712  0.3597 -0.1285
 6977W        W10197  17.351  14.817  16.223  0.0409 -0.0829 -0.0241
 6978W        W10198   3.468  13.833  11.595  0.0027  0.1616  0.1005
 6979W        W10199   8.182  15.505   5.631 -0.1158 -0.1417 -0.0873
 6980W        W10200   4.514  12.538  17.821 -0.2466 -0.1067 -0.3765
 6981W        W10201   6.934  11.320   7.868 -0.2468  0.0425  0.1107
 6982W        W10202  14.119   8.657  12.062  0.0645  0.2321  0.1659
 6983W        W10203   3.887  14.202  10.749 -0.0069  0.0252  0.1830
 6984W        W10204  16.706  13.125   6.757  0.0175 -0.0715 -0.3102
 6985W        W10205   1.284   2.889   9.427 -0.1163  0.2130 -0.1183
 6986W        W10206  18.185  14.538   8.011 -0.0779  0.1437  0.0575
 6987W        W10207   0.213  17.020   9.969  0.1178 -0.2306 -0.0662
 6988W        W10208   6.628   6.884   7.228  0.0364 -0.0655 -0.3240
 6989W        W10209  15.569  12.831   2.782 -0.2412  0.0259 -0.0027
 6990W        W10210   1.640   1.784   7.585  0.0811  0.1914 -0.0145
 6991W        W10211   9.843  12.092   8.410 -0.2747 -0.0134  0.0256
 6992W        W10212  18.239  14.902  12.147 -0.0419 -0.1628  0.1166
 6993W        W10213   2.474   8.471   6.337  0.2525  0.0254  0.5605
 6994W        W10214   3.023  10.318  11.440  0.0448 -0.1190  0.1965
 6995W        W10215  17.592  11.396  13.958  0.0334 -0.0685  0.3918
 6996W        W10216   4.034   5.210   0.348 -0.0123 -0.3398  0.1610
 6997W        W10217  17.572   9.250  13.905  0.3819  0.2871  0.1223
 6998W        W10218  17.248  13.468  15.734  0.0097  0.0691 -0.1399
 6999W        W10219  18.042  15.338  15.543 -0.0802 -0.1664  0.0437
 7000W        W10220   1.092   9.317  14.453  0.0918 -0.0567  0.2217
 7001W        W10221   2.754   8.301   4.732 -0.0044  0.1102  0.1844
 7002W        W10222   4.595  12.528  16.244  0.0976  0.0494 -0.1137
 7003W        W10223  10.811   5.872   7.388  0.0951 -0.0046 -0.1668
 7004W        W10224   8.002   0.891  12.216 -0.2910 -0.0625  0.5904
 7005W        W10225   4.578  11.857  11.430  0.0764 -0.0766 -0.2853
 7006W        W10226   3.092   2.564   8.706 -0.2466 -0.0933 -0.0374
 7007W        W10227   6.243  10.839   9.132 -0.0797  0.1552  0.1329
 7008W        W10228   1.135   9.485   6.431  0.1050  0.1052  0.3253
 7009W        W10229   1.311   8.489   7.701  0.0021 -0.1231 -0.0797
 7010W        W10230  12.523  10.714  13.567  0.1684  0.1578  0.1247
 7011W        W10231   1.195  13.457  12.211  0.3148 -0.0487 -0.0726
 7012W        W10232   0.554  15.631  16.995 -0.1722  0.0025  0.1061
 7013W        W10233  15.885  11.957  11.941  0.0870 -0.0685  0.2378
 7014W        W10234   5.613   8.862   6.626 -0.3159 -0.2795  0.0570
 7015W        W10235   1.861  13.558   8.990  0.3660  0.0741 -0.2185
 7016W        W10236   1.731  12.271  10.467  0.1944  0.0274 -0.2652
 7017W        W10237   8.351  10.599   5.943 -0.0091  0.1285  0.2795
 7018W        W10238  18.153  17.753  10.020  0.0344  0.3130 -0.0420
 7019W        W10239   3.507  12.967   7.851 -0.1339 -0.1855  0.1897
 7020W        W10240  11.390  15.546  11.308  0.1093 -0.1061 -0.0276
 7021W        W10241   3.131   9.844  12.407  0.0197 -0.2196  0.1497
 7022W        W10242   5.625  14.232  11.503 -0.0390 -0.1028  0.1674
 7023W        W10243   2.864  14.265  13.192 -0.0454  0.3441 -0.1578
 7024W        W10244   0.210   0.772   6.891 -0.3476 -0.0656 -0.0822
 7025W        W10245  13.355   8.866   9.896  0.0350  0.0277 -0.0089
 7026W        W10246   8.259  11.131   6.493 -0.0698  0.1983  0.0279
 7027W        W10247   4.075  16.727   7.683  0.1069  0.0759  0.1040
 7028W        W10248   2.123  13.824  10.240  0.0439 -0.0899  0.0226
 7029W        W10249   4.129   3.291  13.392  0.0419 -0.0625 -0.1548
 7030W        W10250   2.203  13.876   5.472 -0.1906  0.2909 -0.0332
 7031W        W10251   2.232  16.606   8.458  0.0262  0.1068  0.2009
 7032W        W10252  13.481  16.029   6.138  0.0769  0.2514  0.1468
 7033W        W10253  14.026  12.765   5.007  0.3296 -0.3472  0.0546
 7034W        W10254  18.005   4.439   9.729  0.1779 -0.1481 -0.0392
 7035W        W10255  11.869   3.505   3.980 -0.1305 -0.0304  0.3424
 7036W        W10256  17.041  10.243  10.029  0.2986  0.3869 -0.1705
 7037W        W10257   6.517   8.816  10.296  0.2258 -0.3903  0.4624
 7038W        W10258   5.171   1.103   9.686  0.0870  0.1859 -0.0060
 7039W        W10259  15.314  13.436  17.961  0.0122  0.3851  0.1887
 7040W        W10260   4.710  13.230   4.963 -0.0078 -0.0630  0.1001
 7041W        W10261  14.705   0.385   9.030  0.0015  0.1363 -0.1814
 7042W        W10262   3.057  12.694  13.366 -0.2196  0.1153  0.3125
 7043W        W10263   2.500   6.584   9.324  0.3130 -0.4450  0.1753
 7044W        W10264  13.110  14.986   3.949  0.3066  0.0910  0.0483
 7045W        W10265  17.203   0.861   9.231 -0.0573  0.1856  0.2009
 7046W        W10266   5.195  14.495  10.626  0.3281  0.2190 -0.1123
 7047W        W10267  18.065   2.734  14.010  0.0687  0.0183 -0.2867
 7048W        W10268  15.819   0.349   8.071  0.0017 -0.3162 -0.2257
 7049W        W10269   5.475  11.726   8.414  0.3001 -0.1904 -0.0687
 7050W        W10270   0.384  16.534  16.001  0.1867  0.1453 -0.1201
 7051W        W10271  18.100  14.511   7.380 -0.0927 -0.1586  0.0100
 7052W        W10272   2.809  14.542   7.864  0.1810  0.0610  0.0503
 7053W        W10273   8.122  17.760  10.302  0.1955 -0.1276 -0.0306
 7054W        W10274   1.480  12.694  15.824  0.3343 -0.1954 -0.0019
 7055W        W10275  10.349   4.306  12.816  0.0631 -0.0084 -0.0027
 7056W        W10276   7.008  14.503   9.022 -0.0232  0.2787  0.3808
 7057W        W10277   0.786   0.098  14.850 -0.1369 -0.3879 -0.0177
 7058W        W10278   2.243   0.552   7.361 -0.3299  0.0894  0.3005
 7059W        W10279  13.276  11.106   8.153 -0.1096 -0.2510  0.1610
 7060W        W10280  18.178  10.225   7.107  0.0079 -0.0581 -0.0968
 7061W        W10281   4.230  16.653   6.830 -0.2440  0.2967  0.1171
 7062W        W10282   1.027   9.756   5.722 -0.2926  0.1375  0.1894
 7063W        W10283   3.162   3.548   9.978 -0.2121  0.1002 -0.0948
 7064W        W10284   1.927  10.292   9.439 -0.0636  0.1572 -0.0791
 7065W        W10285   0.503  16.164  10.111 -0.0796 -0.1518 -0.2906
 7066W        W10286   0.572  17.172  14.880  0.0448 -0.0970 -0.1126
 7067W        W10287  14.843  13.872  10.867  0.1516 -0.0499  0.0884
 7068W        W10288  13.187  10.690  11.029  0.0847 -0.4316  0.1881
 7069W        W10289  15.807  13.195  11.422  0.0713  0.3630 -0.1473
 7070W        W10290   2.818   2.547  11.495 -0.0563  0.2686  0.0574
 7071W        W10291   2.894   9.661   5.999  0.1210  0.0296  0.1072
 7072W        W10292   5.645  12.686  11.767  0.0954  0.0150 -0.0257
 7073W        W10293  11.865  14.275  10.563 -0.1638  0.0990 -0.0369
 7074W        W10294   7.012  14.199   4.736 -0.2085  0.0685 -0.2661
 7075W        W10295  16.455  17.667  12.724 -0.0472 -0.2995  0.3512
 7076W        W10296  15.244  15.319  14.252 -0.1345  0.0494  0.0400
 7077W        W10297   4.183  11.046  10.388 -0.1328  0.3242 -0.1086
 7078W        W10298   2.972  13.509  12.413  0.1671  0.0229  0.1187
 7079W        W10299  18.096  12.459   9.449 -0.1182 -0.1874 -0.1793
 7080W        W10300   1.605  11.243   4.869 -0.2042 -0.2254 -0.0281
 7081W        W10301  12.606   7.780   9.555 -0.0702  0.4252 -0.1057
 7082W        W10302   0.970  11.240   6.898  0.3055  0.0491 -0.1753
 7083W        W10303  17.701   9.930  14.082 -0.2094  0.1464  0.0741
 7084W        W10304   5.896  17.042   2.831 -0.0471  0.0693 -0.1098
 7085W        W10305   1.940   5.144   7.482 -0.1814  0.0194 -0.1282
 7086W        W10306   5.031   0.172   6.794  0.0483 -0.1432  0.0669
 7087W        W10307  16.837   0.382   0.388  0.0280  0.1411  0.0201
 7088W        W10308   0.516  10.931   9.747  0.1483  0.0333 -0.2033
 7089W        W10309   3.190  16.396  11.134 -0.1446  0.2045  0.2380
 7090W        W10310   1.733   1.321  11.765 -0.0073  0.1544 -0.3432
 7091W        W10311  11.137   0.639   8.682  0.0445  0.1127  0.0177
 7092W        W10312  15.108  15.442   9.776 -0.1559  0.0924 -0.0035
 7093W        W10313   1.071  15.411   9.530  0.0432 -0.0035 -0.2283
 7094W        W10314  15.701  14.614  13.155 -0.0373 -0.1192 -0.0146
 7095W        W10315  17.783  13.539  10.172 -0.1187 -0.1392 -0.0040
 7096W        W10316   1.803  15.772  14.897  0.0278  0.0423  0.1877
 7097W        W10317   1.274  14.714  13.787  0.1848 -0.0722 -0.1090
 7098W        W10318   1.718  16.351  16.368  0.1170  0.0104 -0.0098
 7099W        W10319   6.847   5.306   9.845 -0.0433 -0.1892 -0.1485
 7100W        W10320   1.873  15.549  13.325  0.0462  0.2117 -0.5608
 7101W        W10321   6.676  13.577  13.747  0.1192 -0.3617 -0.2714
 7102W        W10322   2.274   1.678   8.937  0.0809 -0.3149  0.2271
 7103W        W10323   8.478  10.157   8.564 -0.1119 -0.0339  0.1667
 7104W        W10324   3.885  15.168   7.396 -0.1900 -0.2785 -0.2225
 7105W        W10325  18.092  10.158  14.780  0.0052 -0.1842  0.1355
 7106W        W10326   3.977  16.429   7.266 -0.0181  0.0645 -0.1217
 7107W        W10327   0.614  17.097   9.095  0.0278 -0.2947  0.0657
 7108W        W10328   6.304   7.507  11.640  0.0970 -0.0917 -0.2537
 7109W        W10329   4.905  15.455  16.073  0.2433 -0.3103  0.0655
 7110W        W10330   5.413  17.331   7.283 -0.0706 -0.1496 -0.4366
 7111W        W10331  15.500  14.115   5.763  0.4347  0.0029  0.0440
 7112W        W10332  14.719  13.787   5.379 -0.2537 -0.0200 -0.0581
 7113W        W10333   6.795   1.085   8.708  0.0855 -0.2813  0.2494
 7114W        W10334  18.247   3.030  11.076  0.2899  0.0167  0.1317
 7115W        W10335  17.188  13.629   6.422  0.2474  0.3346  0.0366
 7116W        W10336   3.110   1.209   4.375 -0.1163  0.3622  0.0748
 7117W        W10337   4.156  16.775  12.589  0.1933  0.1818 -0.2622
 7118W        W10338   1.673   1.288   7.792  0.1856  0.1515 -0.0348
 7119W        W10339  17.798   7.934   6.737  0.0579  0.1998  0.0060
 7120W        W10340   2.084   9.978  11.053  0.1052 -0.1698 -0.1411
 7121W        W10341   0.596   9.951   9.808  0.0862  0.1962 -0.2814
 7122W        W10342  15.981  12.193  17.835  0.2227 -0.0830 -0.1209
 7123W        W10343  17.229   9.444   9.083 -0.2241  0.1457  0.5237
 7124W        W10344  17.680  11.953   5.274 -0.1813 -0.0254 -0.2213
 7125W        W10345   2.057   6.946   9.926  0.2384 -0.1425  0.0930
 7126W        W10346  16.745  12.149   6.478 -0.2328  0.0907 -0.0435
 7127W        W10347   0.180  12.538  17.949  0.1387 -0.1398 -0.2247
 7128W        W10348   3.788   7.817   8.005  0.0941 -0.1834  0.3183
 7129W        W10349   1.246   6.606  12.544 -0.0602 -0.1811  0.1095
 7130W        W10350  15.973   0.374   5.578  0.2492  0.4638 -0.0738
 7131W        W10351   2.623   1.080   9.589 -0.0690 -0.0250 -0.0104
 7132W        W10352   6.892  11.386  17.276 -0.2411 -0.1831  0.1223
 7133W        W10353   6.105  17.585  11.725  0.2041 -0.0402 -0.0443
 7134W        W10354   6.116   8.040  17.596  0.3389 -0.1314 -0.1691
 7135W        W10355   3.034   9.634  17.874 -0.1811  0.1426 -0.1432
 7136W        W10356   2.915   8.086  16.295  0.0436 -0.0006  0.3054
 7137W        W10357   1.147  12.204  15.329  0.1262  0.0141  0.1097
 7138W        W10358  14.139  18.194   6.288 -0.3283 -0.1767  0.1860
 7139W        W10359   7.423   5.045   7.299 -0.0422 -0.0197 -0.2946
 7140W        W10360   8.705   3.441   6.271  0.6432 -0.0934 -0.3317
 7141W        W10361   1.721  16.989  12.912 -0.0563 -0.2523  0.2000
 7142W        W10362   1.757  11.530   1.355 -0.0489  0.1248  0.2910
 7143W        W10363   0.109  14.856  13.053  0.1697 -0.1098 -0.2290
 7144W        W10364  17.617  12.590  11.358 -0.1960 -0.2515 -0.0134
 7145W        W10365  15.224   0.146  15.324  0.1164  0.0013 -0.1231
 7146W        W10366   6.525  10.358   9.179  0.5656  0.2438 -0.1489
 7147W        W10367   3.797  11.248   4.524 -0.2413  0.2539 -0.2049
 7148W        W10368  17.734   7.400   9.532 -0.1015  0.1850 -0.1236
 7149W        W10369   4.909  11.618  11.737 -0.1839  0.2552  0.1138
 7150W        W10370   2.938  16.681  11.510  0.5013  0.2317  0.2598
 7151W        W10371   1.451  13.619  12.728  0.2607  0.1414 -0.2357
 7152W        W10372  17.143   0.259  15.322  0.0901  0.0976  0.0469
 7153W        W10373  14.965   9.315  14.179  0.3369 -0.0733  0.1279
 7154W        W10374   0.586  12.965  11.685 -0.2969 -0.1031 -0.1155
 7155W        W10375   4.449  16.998  17.243 -0.0988 -0.0050  0.1942
 7156W        W10376  17.516   8.027  15.696 -0.0518 -0.1250  0.0286
 7157W        W10377   7.400  15.239  11.718  0.2418 -0.2871  0.4226
 7158W        W10378   0.770   6.354  15.848 -0.1848  0.0262  0.2420
 7159W        W10379  17.693   1.088   2.637 -0.2097 -0.1643 -0.0848
 7160W        W10380   0.516  14.124   2.510 -0.0691 -0.0501  0.1019
 7161W        W10381   6.323  14.037  14.997 -0.1277  0.0934 -0.1379
 7162W        W10382  17.915  14.184  16.265 -0.0998  0.2772  0.2448
 7163W        W10383   0.368   7.165  11.855  0.0016 -0.1221 -0.1391
 7164W        W10384   7.477  10.277  14.103 -0.2915 -0.3063  0.1722
 7165W        W10385  16.042  12.188  11.103  0.0903  0.2894  0.0513
 7166W        W10386   2.436  15.074   9.316 -0.2060 -0.1691  0.1435
 7167W        W10387   6.617   6.292  13.252 -0.1667  0.0541  0.2836
 7168W        W10388   9.562  10.792   0.980 -0.0261  0.0829 -0.3223
 7169W        W10389  17.465   0.130  11.106 -0.0320 -0.0068  0.3100
 7170W        W10390   1.157  16.114  16.175 -0.1632 -0.1578  0.3260
 7171W        W10391   0.452  17.343  12.668 -0.1067 -0.0330  0.4209
 7172W        W10392  16.221  14.917  13.193  0.2718 -0.1160 -0.3189
 7173W        W10393  12.490  17.533  12.821  0.0960 -0.1026  0.1345
 7174W        W10394   6.530  11.284   9.701  0.1148 -0.0155  0.1960
 7175W        W10395   3.591   9.994  16.479 -0.2513  0.1456 -0.2794
 7176W        W10396  18.000  14.417   9.897  0.2740  0.1065  0.1926
 7177W        W10397   9.085  16.554  10.013  0.0596  0.4080 -0.3002
 7178W        W10398   3.479   1.551  10.357  0.0350  0.0782 -0.1033
 7179W        W10399  14.858  17.676  11.247 -0.0638  0.0752  0.3403
 7180W        W10400   2.906  14.960  10.427  0.1433  0.0953 -0.0819
 7181W        W10401   8.881  10.999  12.811 -0.1455 -0.0043  0.0025
 7182W        W10402   2.503  11.786   7.073 -0.1533 -0.1426 -0.0137
 7183W        W10403  15.844  11.153  13.688 -0.4586 -0.2964 -0.0675
 7184W        W10404   9.002  17.894  12.186 -0.2264  0.2801 -0.2335
 7185W        W10405  17.181  14.837  12.166  0.1265  0.1320 -0.2028
 7186W        W10406  17.748  10.741  10.306 -0.1379 -0.2631  0.6039
 7187W        W10407  17.388  17.426   3.414 -0.1875  0.1042 -0.0045
 7188W        W10408  16.841   7.014  10.323 -0.1446  0.0647 -0.2651
 7189W        W10409   7.634  14.029   5.300 -0.2788 -0.1797  0.2471
 7190W        W10410   1.668   8.164  13.538 -0.0649  0.0947 -0.1562
 7191W        W10411   2.686  13.923  15.404 -0.0361 -0.0458 -0.2133
 7192W        W10412  12.803  11.945  18.103  0.1421 -0.1076 -0.0282
 7193W        W10413   8.166   3.221  13.306  0.1830  0.2617 -0.0853
 7194W        W10414   2.464  16.408  12.716 -0.0766  0.4482  0.2712
 7195W        W10415   0.456  16.250   2.028 -0.2101 -0.0022 -0.1569
 7196W        W10416   2.869  11.267  12.411 -0.0663 -0.1771 -0.2119
 7197W        W10417   0.457  11.812  11.119  0.3966 -0.0868  0.1476
 7198W        W10418  13.108   9.456  15.370 -0.0703 -0.2587 -0.2895
 7199W        W10419   3.055  11.430  11.433 -0.1121 -0.2636 -0.0967
 7200W        W10420   6.695  17.464  14.121  0.0108  0.0041 -0.1347
 7201W        W10421  17.411  14.062  11.165 -0.2572 -0.0618  0.4953
 7202W        W10422   8.463   9.138  11.275  0.0331  0.2937  0.3637
 7203W        W10423   3.318   7.849  13.343 -0.0673  0.0289  0.0554
 7204W        W10424  17.392  17.795  12.408  0.0948 -0.0211  0.0956
 7205W        W10425  17.834   7.229  13.562 -0.1347  0.0138  0.2498
 7206W        W10426  16.480   1.901   9.568 -0.1714 -0.2776  0.2713
 7207W        W10427  16.512  11.029  16.450 -0.0616  0.1762  0.1471
 7208W        W10428  18.117   0.565  13.537 -0.1184 -0.0761  0.1999
 7209W        W10429   4.160  17.295   9.288  0.3959 -0.1891  0.1863
 7210W        W10430   4.895   8.980   8.528 -0.2910  0.1907  0.3885
 7211W        W10431   0.361   8.096   4.373 -0.3819 -0.0120  0.0682
 7212W        W10432   9.711  14.247   8.415 -0.3123  0.1871 -0.1654
 7213W        W10433   3.994   3.225   7.313 -0.0107  0.1040  0.2062
 7214W        W10434   1.870  14.377  17.882  0.0524  0.0864 -0.2682
 7215W        W10435   2.412  11.220  15.737  0.1343  0.0699  0.1459
 7216W        W10436   0.971   5.306  13.435  0.1196  0.3556  0.0150
 7217W        W10437  17.691  16.043   6.784 -0.0024  0.0212  0.2031
 7218W        W10438   8.583   8.854  13.662 -0.1299  0.1329  0.0464
 7219W        W10439   3.388  14.341  11.459 -0.0168 -0.0385 -0.1449
 7220W        W10440  12.574  14.217   0.797  0.0042  0.0283  0.3747
 7221W        W10441  17.532   2.276  10.359  0.2315  0.0928 -0.1150
 7222W        W10442   3.858  14.287  14.844 -0.1021 -0.1208 -0.2495
 7223W        W10443  17.267  15.463  11.686  0.2593 -0.0672  0.0239
 7224W        W10444   4.422  13.421  11.466  0.1375  0.0744 -0.1490
 7225W        W10445   6.107   9.544  15.678  0.2392  0.0225  0.3187
 7226W        W10446  14.585  14.116   2.768 -0.2561  0.2059 -0.2683
 7227W        W10447  17.196  16.624   2.960  0.1798  0.2402 -0.1447
 7228W        W10448  11.496  14.963  12.137 -0.0692  0.1776 -0.0440
 7229W        W10449   4.642  13.446  10.024 -0.0186 -0.0151 -0.2508
 7230W        W10450  14.118  16.802   0.026 -0.1189  0.3176  0.1016
 7231W        W10451  14.604  11.252  18.028  0.3529  0.0195  0.0999
 7232W        W10452   2.068   7.400   3.354  0.3073 -0.1576 -0.0320
 7233W        W10453   7.530   6.084  14.214 -0.0483  0.1727 -0.1562
 7234W        W10454  15.714  11.189   0.657  0.3194  0.1203  0.0163
 7235W        W10455  17.226  14.360  16.494 -0.1580 -0.1912  0.2014
 7236W        W10456  10.751   0.727  11.254 -0.2970  0.2677 -0.0697
 7237W        W10457  17.489  12.769   3.909 -0.0557 -0.0234 -0.1126
 7238W        W10458   8.903  12.855  11.217  0.0905 -0.1593 -0.0109
 7239W        W10459   1.872  12.685  15.517 -0.1917  0.0745 -0.0358
 7240W        W10460  17.794   6.105  11.462  0.0282  0.2002 -0.1969
 7241W        W10461   6.652   5.835  11.315  0.0082 -0.1988 -0.1130
 7242W        W10462  15.192  17.555  15.628 -0.2954 -0.3151  0.1483
 7243W        W10463   3.754   0.436  14.355 -0.2805  0.2963 -0.0935
 7244W        W10464   2.459  11.022  15.297  0.1715  0.0707 -0.1062
 7245W        W10465  16.256  13.161  11.266  0.1226  0.2234 -0.1448
 7246W        W10466   4.494   6.011  15.292  0.2336  0.2173 -0.3200
 7247W        W10467   7.495   9.398  12.700  0.1710  0.2346 -0.0775
 7248W        W10468   8.679  13.653   9.421 -0.1774 -0.4597  0.1160
 7249W        W10469   4.127  11.420   4.257 -0.1119 -0.0309  0.1973
 7250W        W10470  16.856  16.842   3.249  0.2650 -0.3931 -0.0030
 7251W        W10471   7.103   7.977  12.706 -0.0591 -0.0021  0.0279
 7252W        W10472   2.126  14.864  14.691 -0.1418 -0.0943 -0.2102
 7253W        W10473   8.651   7.347  11.197  0.0295 -0.0759  0.1032
 7254W        W10474   1.280  16.706   0.814 -0.1995  0.2623 -0.1955
 7255W        W10475  11.910  15.800  12.560 -0.1819 -0.2839 -0.1020
 7256W        W10476  10.397  13.578   5.252 -0.2381 -0.0293 -0.0146
 7257W        W10477   2.642   2.779  12.787 -0.1710  0.1668  0.0897
 7258W        W10478   0.246  10.408  12.960  0.0973  0.2941 -0.5964
 7259W        W10479  16.570  17.408  17.379 -0.0260 -0.0002 -0.1634
 7260W        W10480   6.011   9.544  16.173 -0.0043 -0.1641 -0.0282
 7261W        W10481  18.217  16.454   8.561 -0.2132  0.0755  0.0338
 7262W        W10482  14.027  15.215  11.056  0.0370 -0.0814  0.2151
 7263W        W10483   2.964   9.023   5.773 -0.3164 -0.3396  0.0489
 7264W        W10484   1.376  13.744  11.802  0.1649 -0.2396 -0.4346
 7265W        W10485   0.294  11.157  13.168 -0.0438 -0.2365 -0.0528
 7266W        W10486   2.458  12.195   0.749 -0.1772 -0.0732 -0.2952
 7267W        W10487  15.940   2.919  14.508 -0.0711  0.1872 -0.0227
 7268W        W10488  12.701   0.079  15.434  0.3048  0.0292 -0.0088
 7269W        W10489   3.827   5.541  11.016 -0.1210 -0.1802 -0.1161
 7270W        W10490   1.392   7.757   3.176  0.0023 -0.1499  0.2275
 7271W        W10491  12.102  15.393   8.731 -0.1191 -0.1069 -0.1107
 7272W        W10492  17.631  16.998   9.105 -0.2400  0.3841  0.0896
 7273W        W10493   4.375   4.485  15.742  0.1666  0.0580 -0.0297
 7274W        W10494   4.024  10.881  12.144 -0.1350  0.0681 -0.2281
 7275W        W10495   8.477   9.794  10.688  0.0437 -0.0562  0.2324
 7276W        W10496   4.778  12.168  18.149  0.1061 -0.0971 -0.2232
 7277W        W10497   5.231  12.841  15.107  0.0304  0.0764  0.1148
 7278W        W10498  16.660  16.165  16.502  0.0044 -0.2632 -0.4405
 7279W        W10499   4.429  18.108  11.865  0.0669 -0.0590 -0.1290
 7280W        W10500   0.617   1.270   9.943 -0.0735  0.2660 -0.0620
 7281W        W10501   2.742  11.483   0.781  0.2781 -0.0444  0.2401
 7282W        W10502  16.639  11.046  14.238  0.0466  0.1789 -0.2420
 7283W        W10503   1.910  15.458  11.250 -0.0122  0.1690 -0.3333
 7284W        W10504   0.570   7.239  17.719  0.1626 -0.2392  0.1215
 7285W        W10505  15.451  15.757   7.402  0.1646 -0.5396 -0.3362
 7286W        W10506   4.481  12.267   4.143  0.0147 -0.1224 -0.1448
 7287W        W10507   4.727  12.732  16.719  0.3160  0.0139  0.0142
 7288W        W10508   3.675  13.533  17.589 -0.0959 -0.2308  0.0226
 7289W        W10509   3.850   7.192  11.724  0.0914  0.0776 -0.1686
 7290W        W10510   0.640  14.229  11.918  0.2245 -0.1912 -0.2982
 7291W        W10511   7.129   8.440  11.034 -0.4491  0.1166 -0.1544
 7292W        W10512   0.464  15.911  10.814  0.0258  0.3668  0.1673
 7293W        W10513   1.754  13.030  14.057 -0.2496 -0.0777  0.2468
 7294W        W10514  14.575  15.234  13.177 -0.0477 -0.0664 -0.0286
 7295W        W10515  17.740  16.565  10.074  0.1928 -0.0652  0.1232
 7296W        W10516  15.476  13.944  14.121 -0.2850 -0.2291  0.0720
 7297W        W10517   6.393  17.719  18.056  0.0449  0.0206  0.2802
 7298W        W10518   3.212  12.632  14.032 -0.0476  0.1601 -0.0850
 7299W        W10519   6.483   3.091  14.663 -0.1720  0.0059  0.2107
 7300W        W10520   2.254   8.722  13.324  0.1930  0.0170 -0.3646
 7301W        W10521  13.723  15.673   8.833 -0.0664  0.0623  0.0826
 7302W        W10522   0.521  13.233  15.796  0.4252  0.0883 -0.0974
 7303W        W10523   8.790   4.829   8.082  0.0174 -0.0079 -0.0928
 7304W        W10524   3.046  11.338   8.636 -0.1662 -0.1104 -0.0027
 7305W        W10525  13.879  10.914  14.211  0.1760 -0.3590  0.2813
 7306W        W10526  17.078  14.500  16.971 -0.0429 -0.0936 -0.2157
 7307W        W10527  15.614  14.826  12.694  0.0427  0.0748 -0.1320
 7308W        W10528  17.676   9.021   8.136 -0.2467 -0.2463  0.1615
 7309W        W10529  17.614  13.228  11.135 -0.1941  0.0238 -0.1160
 7310W        W10530   2.702  15.943  10.790  0.2026 -0.1090  0.0584
 7311W        W10531  17.063  14.899  13.688  0.1957 -0.1598  0.0357
 7312W        W10532   0.263   9.212  10.061  0.0005 -0.0859 -0.0413
 7313W        W10533   4.517  13.424   6.971 -0.3390  0.0178  0.2504
 7314W        W10534  10.541   9.337  10.254  0.0714  0.0994  0.0658
 7315W        W10535   1.653   6.875  15.583 -0.0294 -0.2065  0.0160
 7316W        W10536  11.254   1.988  11.357 -0.0377  0.3683  0.0746
 7317W        W10537   2.588  12.585  16.617  0.0583  0.3447 -0.0363
 7318W        W10538  15.303  13.292  11.564  0.0249 -0.0115  0.1463
 7319W        W10539  18.155  13.896  17.525  0.0603  0.3185 -0.2214
 7320W        W10540   2.179  12.848  12.394 -0.3927  0.0722 -0.2430
 7321W        W10541  15.740   0.020  13.753 -0.1198  0.1530  0.0386
 7322W        W10542  17.934   4.462   1.898 -0.0550 -0.0011 -0.0575
 7323W        W10543   6.111  16.072  12.086 -0.1100  0.0973 -0.2121
 7324W        W10544   5.718   9.415   8.393 -0.0534  0.1114 -0.1793
 7325W        W10545  12.564  16.553  15.416  0.2051 -0.3623  0.2629
 7326W        W10546   3.226  14.362  16.228 -0.3422 -0.1171  0.0697
 7327W        W10547   2.937  14.257   8.265 -0.2071  0.0893  0.1274
 7328W        W10548   1.484  15.044  14.092  0.0698 -0.0756  0.1082
 7329W        W10549   0.899   9.130   1.246 -0.0729  0.0638  0.0072
 7330W        W10550  13.181   9.518  14.389  0.2362 -0.0156 -0.1453
 7331W        W10551   1.574  13.247  13.658  0.0961  0.2903 -0.2024
 7332W        W10552  15.551  16.312  13.611 -0.0341  0.3095  0.0591
 7333W        W10553   0.449   7.915  12.255  0.1849 -0.1257  0.1044
 7334W        W10554  14.636  18.253  16.767 -0.1159  0.2236 -0.0243
 7335W        W10555  15.285   7.561  15.214 -0.2913  0.1038 -0.0903
 7336W        W10556   3.579  16.287   6.942  0.2089  0.1246 -0.1207
 7337W        W10557   1.469   9.830  15.803  0.2216 -0.1065  0.3448
 7338W        W10558  13.994  13.320  17.982  0.1981  0.0389  0.3070
 7339W        W10559  14.620   0.946  16.027  0.0845  0.1279  0.1398
 7340W        W10560  17.135  17.384  17.156 -0.0503 -0.3565 -0.1025
 7341W        W10561   2.723  15.237  16.599 -0.0844 -0.2996  0.3912
 7342W        W10562   5.154  10.215   7.522  0.0391  0.2426  0.2341
 7343W        W10563   4.402  17.466  13.145 -0.0566  0.0878 -0.4811
 7344W        W10564   0.113  14.891   7.728 -0.1956  0.2089 -0.1254
 7345W        W10565   7.424   8.839  11.269  0.1606 -0.1192 -0.0350
 7346W        W10566  16.106  12.545  12.839  0.1016 -0.0608  0.2876
 7347W        W10567   5.112  10.682  11.258 -0.0066 -0.2049 -0.0447
 7348W        W10568   0.203   8.892  16.305 -0.1850  0.2429  0.2755
 7349W        W10569   2.833  13.729   3.728 -0.0002  0.0624  0.1776
 7350W        W10570  10.552  13.539   6.072 -0.0018 -0.1578 -0.2968
 7351W        W10571   4.574   5.126  15.267  0.1242 -0.3440 -0.1868
 7352W        W10572   7.029   9.990   9.727  0.2564 -0.0722 -0.1534
 7353W        W10573   4.438   9.874   6.456  0.3393 -0.0022  0.0951
 7354W        W10574  18.037  16.088  16.387 -0.2776  0.0636  0.0336
 7355W        W10575   4.910  11.757  14.734 -0.1349  0.2938  0.1728
 7356W        W10576   2.010  17.085  14.195 -0.2575  0.2700  0.0013
 7357W        W10577   3.294   0.889  12.295 -0.0453 -0.2610  0.0112
 7358W        W10578   0.945  16.468  16.673  0.0806 -0.1413  0.1741
 7359W        W10579  16.879  14.099  13.218 -0.2594 -0.0322 -0.1665
 7360W        W10580   0.307  14.460  10.372  0.2712 -0.3240 -0.1424
 7361W        W10581  16.876  14.689  16.399 -0.0498  0.0371 -0.2085
 7362W        W10582   4.388  14.775  11.826  0.0694 -0.0710 -0.1448
 7363W        W10583   2.579  16.998  17.895 -0.0424 -0.3522  0.1140
 7364W        W10584   0.771   4.852  11.087  0.1141 -0.2888  0.1837
 7365W        W10585   5.806  12.263  12.823 -0.0663  0.1521  0.1972
 7366W        W10586   1.889   7.179  11.384  0.3224  0.0058 -0.0199
 7367W        W10587   0.940  14.452   4.000 -0.0483 -0.0066  0.0672
 7368W        W10588  17.077  12.081   0.090  0.0655 -0.1426 -0.0686
 7369W        W10589   4.067   7.548  12.933 -0.2906 -0.1024  0.0922
 7370W        W10590  13.315  10.539   5.294  0.0865  0.0884  0.0018
 7371W        W10591   0.052  16.567   2.175 -0.2085  0.1130 -0.1519
 7372W        W10592   5.065  10.233  16.287 -0.3189  0.1278  0.0899
 7373W        W10593  15.353  14.763   9.030  0.2717  0.1855 -0.0788
 7374W        W10594  15.468  10.355   9.864 -0.3785  0.1412  0.0457
 7375W        W10595  11.593   3.903   7.967 -0.1132 -0.1658 -0.0295
 7376W        W10596   2.183  16.404  13.736 -0.1798 -0.0177  0.1256
 7377W        W10597   8.154  14.361   8.585 -0.1460  0.2169 -0.2209
 7378W        W10598  14.189  15.776   6.139 -0.1627 -0.3456 -0.1379
 7379W        W10599   1.624  15.804  13.721 -0.1263 -0.3104  0.0847
 7380W        W10600  14.506   4.389  16.532 -0.0075 -0.0012  0.0209
 7381W        W10601   8.986   8.930  14.498 -0.1645 -0.0826  0.0825
 7382W        W10602   5.975   5.763  14.496  0.1109  0.1253 -0.1149
 7383W        W10603   3.661  15.275  11.674  0.1901 -0.0024  0.1247
 7384W        W10604   1.777  10.860  10.812 -0.3348 -0.1726 -0.2035
 7385W        W10605   3.825   8.104  10.397 -0.0429  0.0144  0.0451
 7386W        W10606  16.072  17.015  12.287 -0.0433 -0.0881  0.2618
 7387W        W10607   4.546   7.853  12.717 -0.2691 -0.0058  0.1762
 7388W        W10608   3.310  12.589  11.781  0.1334  0.0668 -0.0943
 7389W        W10609   1.471  12.012   7.839 -0.0819  0.0273 -0.2519
 7390W        W10610  17.366   9.876   8.118  0.1260 -0.0474  0.1439
 7391W        W10611  18.021  16.399  12.199 -0.2752 -0.0146 -0.1794
 7392W        W10612   7.130   5.584  11.483  0.0875  0.1078  0.1634
 7393W        W10613  12.886  13.517   5.119  0.2706 -0.2316 -0.2680
 7394W        W10614  10.757  18.163  15.509  0.2203 -0.0357 -0.1668
 7395W        W10615   0.885  13.855   4.891 -0.0589 -0.1174 -0.0880
 7396W        W10616  18.030  14.802  14.155 -0.0612  0.0981  0.0472
 7397W        W10617   3.322  17.445  14.257  0.2984  0.1769  0.2573
 7398W        W10618   3.692   9.726  17.736 -0.0525  0.5337 -0.1437
 7399W        W10619  17.609  13.348  12.816 -0.1760 -0.1407  0.1817
 7400W        W10620   6.618   6.415  12.734 -0.1828  0.2495  0.0284
 7401W        W10621   8.963  10.772  11.269 -0.4098 -0.1098  0.0185
 7402W        W10622   4.856  13.525  15.306  0.1673  0.0478  0.0806
 7403W        W10623   7.003  11.712  13.919  0.1400  0.2972 -0.1191
 7404W        W10624   1.424  12.988   4.680  0.5143 -0.0737 -0.1965
 7405W        W10625  17.474  12.101  14.229 -0.1351  0.0307  0.1816
 7406W        W10626   4.553   2.360   2.594 -0.2140 -0.3670  0.0018
 7407W        W10627  14.108  11.817  10.912  0.1237 -0.0897 -0.0741
 7408W        W10628   6.007  16.211  13.711 -0.0554  0.0929 -0.1133
 7409W        W10629   0.990  15.657  16.336 -0.2925  0.0989  0.0188
 7410W        W10630  14.152  16.104  13.258  0.1394  0.2607 -0.0686
 7411W        W10631  15.299  16.800  14.389 -0.0518 -0.2514 -0.0771
 7412W        W10632  16.406  13.293  12.669  0.2565  0.0786 -0.0690
 7413W        W10633   0.605   0.217  12.968  0.0819 -0.0252  0.3756
 7414W        W10634   5.011   5.939  16.482 -0.3485 -0.0217 -0.2429
 7415W        W10635   4.804   8.456  10.511  0.3637 -0.0795  0.1035
 7416W        W10636   2.511  16.778  12.299 -0.0515  0.0294 -0.2830
 7417W        W10637  11.475   9.273  10.712  0.0867 -0.4737  0.0187
 7418W        W10638   5.106  16.523   0.159 -0.1480 -0.1644 -0.1957
 7419W        W10639   8.759   5.762  14.972 -0.2160 -0.1221 -0.4116
 7420W        W10640   6.204   7.985   6.063  0.1265  0.0489 -0.1414
 7421W        W10641   7.992   7.077  12.231  0.1095  0.0169  0.1775
 7422W        W10642   1.083  13.756  13.834  0.0388  0.1110 -0.0116
 7423W        W10643  17.782  14.900  12.398  0.1508  0.0246  0.2492
 7424W        W10644  11.899   8.645   9.199  0.0480 -0.2022  0.2376
 7425W        W10645   4.467   8.535  12.318  0.0514  0.3112  0.0612
 7426W        W10646   2.836  15.287  16.087 -0.3525 -0.0816  0.0586
 7427W        W10647   9.982  15.061  16.053  0.0027  0.1644 -0.0329
 7428W        W10648   1.938  13.882  12.865  0.1182 -0.3037 -0.1621
 7429W        W10649   5.814  18.045  11.671  0.0983  0.2239 -0.2416
 7430W        W10650  16.931  14.155  10.003  0.1441  0.1716 -0.0391
 7431W        W10651   0.206   9.805  10.313 -0.1928  0.2441  0.0430
 7432W        W10652   2.668   8.320  11.833 -0.1864 -0.2245  0.2075
 7433W        W10653   2.109   8.864  15.760 -0.0987 -0.2557  0.1809
 7434W        W10654   9.848  15.087  13.951  0.1594  0.0703  0.1439
 7435W        W10655   0.880  16.427  12.116  0.2268  0.2693 -0.1713
 7436W        W10656   6.111   8.801  14.479  0.0222 -0.5581 -0.2555
 7437W        W10657   0.406   5.836  11.792 -0.1163 -0.0548  0.0326
 7438W        W10658   6.596  14.518   0.304  0.5705  0.0343  0.1714
 7439W        W10659  17.728   5.995  12.675  0.0625  0.1297 -0.2210
 7440W        W10660  16.977  13.686  14.098  0.0452 -0.0707  0.2105
 7441W        W10661  16.958   2.701   0.094 -0.0774 -0.2236  0.0035
 7442W        W10662  11.571  13.666  13.203 -0.0196  0.0126  0.0422
 7443W        W10663   1.337   9.935   0.345  0.2752  0.3430  0.0085
 7444W        W10664  15.427  14.059  11.924  0.1501  0.2389 -0.0758
 7445W        W10665   9.875   8.826   7.369 -0.0578  0.1104  0.4558
 7446W        W10666   8.004  15.307  14.886  0.0170 -0.0134  0.2857
 7447W        W10667  16.163  14.069   9.016 -0.0290 -0.0362 -0.3947
 7448W        W10668   7.041   3.690  10.438  0.0037 -0.0915 -0.1626
 7449W        W10669   7.615  15.106  12.289 -0.1858 -0.1274  0.0173
 7450W        W10670   9.113  15.460   6.864 -0.0468 -0.0494  0.0621
 7451W        W10671   0.937  14.028   0.625 -0.0843  0.0905  0.0805
 7452W        W10672   4.437  13.043  10.201 -0.2430  0.0226 -0.0164
 7453W        W10673   3.116   0.033  10.382  0.2082  0.2504  0.2882
 7454W        W10674   2.558   7.886  16.903  0.1207  0.2988 -0.0141
 7455W        W10675   3.740   7.727  13.865 -0.1423 -0.0775  0.1130
 7456W        W10676  17.154   1.133  13.619 -0.0498  0.0231 -0.0859
 7457W        W10677   0.546  15.773  11.637 -0.0146  0.0352  0.1752
 7458W        W10678  18.171  17.888  10.939 -0.2221 -0.5424 -0.0102
 7459W        W10679   2.612  13.824  10.445  0.1915 -0.2462  0.0122
 7460W        W10680   7.638  11.981  17.822  0.1069  0.1384 -0.0745
 7461W        W10681   8.702  18.134  15.266  0.1509  0.0281  0.0973
 7462W        W10682   3.631   0.417  13.731 -0.0857 -0.2250  0.1575
 7463W        W10683  16.598   7.914  15.992 -0.1842 -0.0759  0.3273
 7464W        W10684   1.285  16.117  13.974 -0.0484 -0.2522 -0.3521
 7465W        W10685  18.203  16.146  13.139  0.0721  0.1017  0.0440
 7466W        W10686   2.734   5.081   8.756  0.2037 -0.0522  0.1629
 7467W        W10687  14.632  10.157  10.126  0.0897 -0.0545 -0.5030
 7468W        W10688   0.201  14.205   6.539  0.2926  0.0048 -0.0264
 7469W        W10689  16.054  16.162  10.879  0.1299  0.2160  0.2784
 7470W        W10690   1.162  11.090  14.030  0.1876 -0.0706  0.1003
 7471W        W10691  13.835  18.251   8.019 -0.1065 -0.0349  0.1235
 7472W        W10692  11.809  10.770  12.116  0.5274  0.0357 -0.0460
 7473W        W10693  15.913   4.208  17.672 -0.1476 -0.1158  0.0842
 7474W        W10694   1.659  15.842   8.343 -0.1939  0.3737 -0.0711
 7475W        W10695  14.081   9.191  13.553 -0.1293  0.0960 -0.3137
 7476W        W10696  12.678   1.809  13.656  0.2898 -0.1956 -0.1404
 7477W        W10697  14.194  13.478  10.362 -0.0735  0.1732  0.1257
 7478W        W10698   3.314   9.645  15.132  0.0522  0.0370  0.0735
 7479W        W10699  18.195  16.513  13.665  0.0060 -0.2541  0.0522
 7480W        W10700   8.891  14.006  12.639 -0.1965  0.2344  0.0044
 7481W        W10701  16.871  12.946  12.473 -0.1883  0.1205  0.1672
 7482W        W10702   2.072  10.753  12.710 -0.1350  0.0961  0.1364
 7483W        W10703   6.294   8.942  11.324 -0.0925  0.0171 -0.1077
 7484W        W10704  13.981  14.885   0.689  0.0113  0.0877  0.0563
 7485W        W10705   0.670   9.588  11.102  0.3020  0.2027  0.0267
 7486W        W10706   0.540  14.421   1.466 -0.0687 -0.1097  0.2980
 7487W        W10707   9.953  10.701   9.574  0.1803 -0.2373 -0.0262
 7488W        W10708  17.696  13.030  11.571  0.0423 -0.2878  0.0188
 7489W        W10709  13.722   1.497  18.013  0.2635  0.3065  0.3662
 7490W        W10710  17.611   8.200   9.735  0.1478 -0.1751  0.2244
 7491W        W10711   7.495   8.629  12.124  0.0883 -0.2474  0.2916
 7492W        W10712   0.892  14.583  17.815 -0.1259 -0.2775  0.2053
 7493W        W10713   3.520  14.688   1.980  0.0370 -0.0577 -0.2876
 7494W        W10714  10.374  11.762  15.879  0.2085 -0.3134  0.0351
 7495W        W10715   2.683  14.680  16.698 -0.2535  0.0530  0.1387
 7496W        W10716   9.612   8.401   7.533 -0.0315  0.3387  0.0953
 7497W        W10717  14.994  15.926   4.018  0.1975 -0.2339 -0.0821
 7498W        W10718   6.784  13.544   7.290 -0.0509  0.1828  0.1425
 7499W        W10719   6.059  16.215   6.653  0.4722 -0.3827 -0.0391
 7500W        W10720  13.609  14.284  12.021 -0.0017 -0.2800 -0.0207
 7501W        W10721   3.034   8.828  15.555  0.1666  0.2387  0.1520
 7502W        W10722  16.369  14.433  11.961 -0.2215 -0.3558  0.2642
 7503W        W10723  13.026  15.499  16.310 -0.1253  0.2123 -0.0158
 7504W        W10724  16.216   1.064  14.560  0.1401 -0.1361 -0.0105
 7505W        W10725  14.013  14.183   7.082 -0.2519  0.3069  0.0064
 7506W        W10726  18.266  14.409  13.336 -0.0030  0.3664 -0.0481
 7507W        W10727  16.972   1.680  14.893 -0.0231  0.1813  0.0895
 7508W        W10728   2.340   0.898  17.765  0.1229 -0.2293 -0.0695
 7509W        W10729  16.490  12.116  17.973 -0.0068 -0.0918  0.1106
 7510W        W10730  13.127  14.975  11.654  0.1095  0.3371  0.0140
 7511W        W10731   0.924   6.111  14.956 -0.0485 -0.0981 -0.1095
 7512W        W10732  18.111  13.864  13.959  0.3470  0.0256  0.1738
 7513W        W10733   1.892  11.922  17.005 -0.1592 -0.0865 -0.1668
 7514W        W10734   0.257  16.821   8.800 -0.3334  0.5149 -0.2773
 7515W        W10735  18.017   9.195   7.679 -0.0395  0.4336 -0.1616
 7516W        W10736   0.174  15.282  17.124 -0.2177  0.1326  0.0918
 7517W        W10737   7.120  15.491  11.023  0.0404 -0.2418  0.0830
 7518W        W10738   2.846   0.102  10.913  0.1663  0.2341  0.1114
 7519W        W10739   3.281  14.184   0.188 -0.3295  0.0611  0.0290
 7520W        W10740   8.990  16.633  12.320 -0.0865 -0.0058 -0.0798
 7521W        W10741   5.537  16.043  12.170 -0.2622  0.2093  0.0151
 7522W        W10742   2.567  14.459  12.189  0.3400  0.1038 -0.1662
 7523W        W10743   3.956   9.612  11.645  0.0209 -0.1309  0.1636
 7524W        W10744   3.359   0.607  13.240  0.1879  0.0375  0.1135
 7525W        W10745  16.464   1.227  14.029 -0.0195  0.0452  0.0410
 7526W        W10746   2.806   4.424  12.279  0.1724 -0.2887 -0.2598
 7527W        W10747   0.839  13.731  17.228 -0.2327  0.2321  0.0825
 7528W        W10748  16.459   0.134  12.276 -0.0888 -0.0257 -0.3660
 7529W        W10749   1.114  13.651   3.152  0.4158  0.1349 -0.1126
 7530W        W10750  14.433  12.501  14.543 -0.3218  0.1536 -0.3026
 7531W        W10751   0.380  15.857   9.213 -0.0265  0.0887 -0.0081
 7532W        W10752   2.918  14.930  12.967  0.4170 -0.1156  0.2141
 7533W        W10753   0.989  12.924  17.600 -0.0221 -0.0612 -0.0424
 7534W        W10754   6.830  11.437   0.040  0.0078  0.0806  0.4585
 7535W        W10755  13.991   0.297  13.066 -0.2274 -0.0128  0.0801
 7536W        W10756  15.061   2.739  14.145  0.1986 -0.3147  0.0503
 7537W        W10757   0.240   3.975   3.129  0.1789  0.2670  0.0221
 7538W        W10758  15.594   3.979  16.388  0.0388 -0.1299  0.2027
 7539W        W10759   3.283  12.101   2.895  0.1073  0.2696  0.0221
 7540W        W10760   1.201   8.643  16.388  0.1409  0.0049 -0.2223
 7541W        W10761  16.772   8.368  16.169 -0.0700 -0.2154  0.4053
 7542W        W10762  16.053   6.364  16.072  0.0138  0.0085 -0.0492
 7543W        W10763   2.282  11.325  12.036 -0.2758 -0.1646 -0.2586
 7544W        W10764   5.580  12.808   1.946 -0.4239  0.0293 -0.0119
 7545W        W10765   3.851  12.528  15.073  0.3429 -0.0079 -0.1072
 7546W        W10766   0.184  15.904  16.208  0.0614  0.1448 -0.1263
 7547W        W10767  13.333   9.602   2.650 -0.0937 -0.1178  0.1709
 7548W        W10768   4.827   7.840  10.525 -0.0804 -0.5448  0.2093
 7549W        W10769  16.173  13.212   4.115  0.0089 -0.0707 -0.3182
 7550W        W10770   0.652   4.375   2.612 -0.0029  0.0226 -0.0554
 7551W        W10771   3.898  13.552   2.791 -0.2070 -0.1582 -0.2522
 7552W        W10772  14.247   6.496   1.792 -0.3101  0.2385 -0.3028
 7553W        W10773  16.295  12.215   6.678  0.1353 -0.0161  0.0028
 7554W        W10774  14.452   8.473   4.770  0.1797 -0.2263 -0.2352
 7555W        W10775  10.855  12.870   1.775  0.2520  0.2496 -0.0679
 7556W        W10776   3.535  17.290  18.002  0.2323  0.3337 -0.0538
 7557W        W10777   1.139   7.986  17.637 -0.0104 -0.0105 -0.1147
 7558W        W10778   3.431  16.261  14.068 -0.1458 -0.0298 -0.1106
 7559W        W10779   3.194  13.620   0.932  0.2723  0.0785  0.2671
 7560W        W10780   1.423  11.265  13.665  0.3609 -0.0894  0.0469
 7561W        W10781  14.371  11.633  14.495  0.1478  0.2751 -0.2399
 7562W        W10782   1.897   5.288  12.333 -0.2362  0.0314  0.2341
 7563W        W10783   9.290   2.399  16.158  0.0999  0.0082  0.2025
 7564W        W10784  15.998  10.566   7.045  0.3025 -0.2927 -0.5680
 7565W        W10785  13.469  15.455  15.950  0.2878 -0.3614 -0.0514
 7566W        W10786   9.965  14.060  13.457  0.1483 -0.0870  0.1953
 7567W        W10787   3.707  10.214   0.255 -0.2764  0.0856  0.3084
 7568W        W10788   0.129  15.675  16.694  0.0085  0.1005  0.3100
 7569W        W10789  16.246   1.386   3.836  0.2307 -0.1311 -0.1680
 7570W        W10790   0.215  18.060  10.488 -0.1328 -0.5277 -0.1089
 7571W        W10791  13.310  11.573  15.516 -0.2297  0.0259 -0.3088
 7572W        W10792   6.762  10.554  17.157 -0.0619  0.0258 -0.3504
 7573W        W10793  17.498  15.247   2.249  0.1037  0.1191  0.5242
 7574W        W10794   5.159  13.726  15.668  0.1263 -0.0947  0.4844
 7575W        W10795   3.323   9.213  14.860  0.0528 -0.2652  0.0571
 7576W        W10796   6.081   8.953   1.684 -0.0464 -0.1319 -0.0051
 7577W        W10797   3.406  13.534  15.776  0.2429 -0.1808 -0.0516
 7578W        W10798  17.134   0.442  12.829 -0.1446 -0.1934 -0.1854
 7579W        W10799   2.018  11.891  15.080 -0.1699  0.3023  0.1197
 7580W        W10800   4.686  16.360  11.328  0.3000 -0.1684  0.0950
 7581W        W10801   7.553   6.760   6.567 -0.1636  0.1850  0.1628
 7582W        W10802   4.160   9.137   6.968 -0.4293 -0.2211 -0.2263
 7583W        W10803  15.177  14.770  15.123  0.1482 -0.2240 -0.2676
 7584W        W10804   4.012   7.698   4.390 -0.0267 -0.3980  0.0596
 7585W        W10805   7.348  10.664  15.294 -0.0447  0.0808  0.0987
 7586W        W10806  12.982   9.014  15.405 -0.0889 -0.1382 -0.1499
 7587W        W10807   6.439  10.095   7.003 -0.1291 -0.1410  0.1250
 7588W        W10808   5.312   9.742   1.795  0.2298 -0.0724 -0.0406
 7589W        W10809   1.440   0.135  16.580 -0.3641  0.1132  0.1262
 7590W        W10810   0.549  15.477   9.507  0.0120  0.0666  0.0301
 7591W        W10811  16.178   7.042  15.641  0.1383  0.2674 -0.0417
 7592W        W10812  16.265   1.820  10.023  0.2360 -0.0419  0.0258
 7593W        W10813   0.438  10.137  16.368 -0.0100 -0.1924  0.1794
 7594W        W10814   2.821   7.465  12.399  0.1465 -0.0784  0.2956
 7595W        W10815   1.597  17.941  11.382 -0.0022  0.1212  0.0112
 7596W        W10816   3.326  11.750   1.001 -0.0360  0.1149  0.0270
 7597W        W10817   5.042  13.792   0.920 -0.1619  0.4628  0.1884
 7598W        W10818   3.054  11.330   2.215  0.1061 -0.0184 -0.1469
 7599W        W10819  17.068  15.120  16.607 -0.0426 -0.0708 -0.0308
 7600W        W10820   4.214   5.140  13.207 -0.2290  0.0896  0.0428
 7601W        W10821   1.458   8.860   7.310  0.0232 -0.0958  0.2082
 7602W        W10822   8.512   1.185  11.475 -0.0188 -0.1302 -0.1610
 7603W        W10823  12.898  10.756   2.240  0.4072  0.0594  0.1071
 7604W        W10824   5.907   4.465  14.056  0.1429  0.0165 -0.2235
 7605W        W10825   1.378  10.038  16.782  0.1985 -0.4476 -0.0567
 7606W        W10826  10.044  11.841  13.735  0.1084 -0.0540  0.0330
 7607W        W10827  16.714   1.149  16.138  0.1002 -0.2841  0.1874
 7608W        W10828   1.687  14.744   0.421 -0.0421 -0.2909 -0.2360
 7609W        W10829   1.616  17.939  14.418 -0.2341 -0.1501  0.2036
 7610W        W10830  13.170  11.253  17.573  0.0881 -0.3249  0.1228
 7611W        W10831   3.836  10.722   3.082  0.1250 -0.1896 -0.1669
 7612W        W10832   2.153   8.951  17.755 -0.1737  0.0334 -0.2584
 7613W        W10833   4.474  12.413   0.595 -0.1567  0.0655 -0.0553
 7614W        W10834   2.605  11.061   0.485  0.0531 -0.0703 -0.5357
 7615W        W10835   0.671   0.018  10.521  0.0176 -0.0462 -0.1424
 7616W        W10836   1.418   2.626   2.131  0.1875  0.3804  0.1406
 7617W        W10837   4.642  16.974  13.070  0.0017  0.0237  0.2419
 7618W        W10838   3.591  13.085   8.806  0.0332 -0.1931  0.0686
 7619W        W10839   6.588  11.023   3.399 -0.0662  0.1871  0.0741
 7620W        W10840   1.017   0.406   6.555 -0.0145 -0.1587 -0.0679
 7621W        W10841   3.270   9.148   1.219 -0.1164 -0.1206 -0.1684
 7622W        W10842   2.756   2.455  10.389  0.1013  0.0335 -0.0455
 7623W        W10843  10.710  13.042  14.257 -0.0341 -0.2403 -0.0698
 7624W        W10844  17.568  15.006   3.659  0.0603 -0.0735  0.1079
 7625W        W10845   8.595  13.860  16.341 -0.1864 -0.1117  0.2791
 7626W        W10846   0.517  12.589  10.603  0.0861  0.1798 -0.2099
 7627W        W10847   2.113  16.710  14.937  0.0457  0.0649  0.1671
 7628W        W10848   3.128   9.904   8.329  0.0168 -0.2390 -0.1746
 7629W        W10849   3.576  10.864   4.689 -0.1450 -0.0373 -0.1327
 7630W        W10850  16.352   1.808  13.539  0.1104 -0.2435  0.1425
 7631W        W10851  11.934  14.179   4.105  0.1654  0.2215  0.2817
 7632W        W10852   7.019  16.761  11.479 -0.2304 -0.2635  0.0447
 7633W        W10853   1.889  15.671  16.730 -0.2769 -0.0348  0.0684
 7634W        W10854   3.697  18.132  13.776  0.1185 -0.2009 -0.1503
 7635W        W10855   2.400  12.774   4.560  0.4405 -0.0739  0.1079
 7636W        W10856   0.230   8.504  15.393 -0.1388 -0.1791  0.1304
 7637W        W10857   2.440  16.753   5.438  0.0031 -0.1500  0.0818
 7638W        W10858  10.238  12.848  11.899  0.1247  0.2841 -0.1819
 7639W        W10859   6.077  16.770  12.002  0.0549 -0.3311  0.2564
 7640W        W10860   2.466  15.934  13.063  0.2383 -0.1815 -0.0767
 7641W        W10861   3.318  16.398  17.268  0.0938  0.1746  0.0459
 7642W        W10862   3.452  10.036  18.079 -0.0492 -0.0273  0.2168
 7643W        W10863  13.207  13.698   0.783 -0.0535 -0.0626  0.1770
 7644W        W10864   2.792  15.010  13.793  0.2267 -0.2905  0.0181
 7645W        W10865   5.053   1.134   0.836 -0.0244  0.0177 -0.0530
 7646W        W10866   5.470  10.597   2.403 -0.1932  0.0297  0.3404
 7647W        W10867   1.136  16.433   9.728  0.0210 -0.0696 -0.2052
 7648W        W10868   4.798   1.573   0.442  0.1158 -0.1501 -0.3449
 7649W        W10869   0.798  15.887   9.773 -0.0462  0.0478 -0.2390
 7650W        W10870   3.446   4.109   3.364  0.0461  0.2842 -0.0958
 7651W        W10871   3.105  14.094   1.174 -0.0538 -0.1127 -0.2587
 7652W        W10872  15.634  13.233  16.061 -0.0393  0.0730 -0.1741
 7653W        W10873   1.556  10.628   1.222  0.0998  0.2343 -0.1768
 7654W        W10874   5.598  15.068   1.167 -0.1498 -0.1313 -0.2524
 7655W        W10875   4.968  13.022  17.235  0.0710 -0.1162 -0.1629
 7656W        W10876   9.941  12.144  14.733 -0.0402 -0.0247 -0.2584
 7657W        W10877   3.019   8.487   9.291 -0.0809  0.0448  0.1248
 7658W        W10878  16.701  16.398   3.303 -0.0545 -0.0158 -0.2678
 7659W        W10879   1.927  17.799  11.060  0.0694  0.0295 -0.1525
 7660W        W10880  11.568  14.062  17.698  0.1501  0.2622  0.0405
 7661W        W10881   9.575  14.546   4.205  0.1186  0.1116 -0.2237
 7662W        W10882   8.314  13.544  13.410  0.0761  0.0755 -0.0606
 7663W        W10883   3.589  10.147  14.473  0.0342  0.0964 -0.0312
 7664W        W10884  16.105  11.572  17.897  0.3300 -0.0417 -0.1310
 7665W        W10885   0.590   2.245  16.506 -0.2395  0.0797 -0.3602
 7666W        W10886   6.805   7.636  12.432  0.0232  0.0026  0.0330
 7667W        W10887  17.667   0.789   2.152  0.2212  0.0812  0.1426
 7668W        W10888   1.162  11.151  17.621  0.1015  0.0950 -0.0529
 7669W        W10889   5.641  12.438  12.381 -0.1582 -0.1878 -0.2444
 7670W        W10890   1.093   3.164  16.922 -0.2896  0.2688 -0.2129
 7671W        W10891   3.552  17.953   1.737  0.1976  0.4543  0.0678
 7672W        W10892  15.877  13.375   3.289  0.0145  0.3249 -0.0281
 7673W        W10893   1.032   0.962  14.856 -0.1321 -0.0674  0.1842
 7674W        W10894   3.909  14.463  15.564  0.1070 -0.1382 -0.1747
 7675W        W10895   1.582  17.470   0.911  0.1064  0.1004 -0.0225
 7676W        W10896   1.971   2.735  15.659  0.0800 -0.2356  0.1223
 7677W        W10897  13.813  14.988  13.013  0.0383  0.1693 -0.1885
 7678W        W10898  14.636  14.929   8.600 -0.3270  0.2249 -0.0168
 7679W        W10899   6.852  16.322   4.545  0.3667  0.0881  0.0642
 7680W        W10900  12.297   9.819  16.067 -0.0319 -0.1345 -0.0824
 7681W        W10901   8.113  12.763  16.875 -0.2754  0.1725 -0.0321
 7682W        W10902  18.075   9.140  15.517  0.0345 -0.2518  0.1089
 7683W        W10903   7.150   7.572  16.195  0.0114  0.0394 -0.2802
 7684W        W10904  14.389   8.312  16.086 -0.0343 -0.0085  0.0158
 7685W        W10905  17.568  13.234   4.998  0.1167 -0.0032 -0.0001
 7686W        W10906   3.607  13.774  16.762 -0.1195  0.2818  0.0071
 7687W        W10907   7.113   6.353  14.162 -0.0758 -0.0607 -0.1025
 7688W        W10908  11.896   6.837   4.721 -0.1307 -0.0387 -0.3534
 7689W        W10909  12.317  11.627  13.368 -0.0881  0.0680 -0.0923
 7690W        W10910   2.718  16.323  11.244  0.0834  0.0787 -0.2485
 7691W        W10911   4.251  10.192  17.300  0.1280  0.0028  0.3000
 7692W        W10912   5.656  11.136   9.744 -0.1801 -0.1118  0.1046
 7693W        W10913   0.781   3.891  17.969  0.2682  0.1137  0.1451
 7694W        W10914  14.934  13.196   1.108  0.2278 -0.1075  0.1354
 7695W        W10915   2.413  15.202  18.252 -0.0948 -0.0413 -0.1554
 7696W        W10916  14.213   2.715  12.803  0.1766 -0.2547  0.1392
 7697W        W10917  17.878  14.692  17.769  0.0165  0.0195 -0.2351
 7698W        W10918  16.102  13.504   3.770 -0.1635 -0.0710  0.1356
 7699W        W10919   0.080  17.833  16.930 -0.0872 -0.2731  0.2486
 7700W        W10920   4.462  13.081  17.157 -0.1492  0.1212 -0.0494
 7701W        W10921   9.774  12.139  15.360  0.2482 -0.2123 -0.1281
 7702W        W10922   3.300  14.479  18.077  0.2157  0.0823 -0.3049
 7703W        W10923  16.814  11.145   2.574 -0.0664 -0.1904  0.1105
 7704W        W10924   0.998  18.063  14.144  0.0343  0.0235  0.0782
 7705W        W10925  18.096  15.398  16.321 -0.1776  0.0239  0.0730
 7706W        W10926  16.088  14.752  10.315  0.0326  0.2899  0.0221
 7707W        W10927   1.627  15.847  12.188  0.2217 -0.0482 -0.2372
 7708W        W10928   2.094  15.909  17.144 -0.2018 -0.2948  0.0344
 7709W        W10929   5.728  13.608   9.252 -0.0072  0.1721  0.0482
 7710W        W10930  16.181  17.526  14.079  0.0333 -0.1883 -0.1540
 7711W        W10931  16.442  13.929  10.977  0.3907  0.0558  0.1611
 7712W        W10932  13.949  13.810  10.973  0.1829 -0.1015  0.1262
 7713W        W10933   6.313  12.237   5.172  0.2851  0.2942 -0.0306
 7714W        W10934  14.109  11.141   2.718 -0.3604  0.0026 -0.1422
 7715W        W10935  14.452   5.309  15.695  0.1690 -0.1590 -0.2661
 7716W        W10936  17.234  15.234   1.170  0.2140  0.4166 -0.1761
 7717W        W10937  16.405   4.810  13.515  0.0031 -0.2491 -0.0431
 7718W        W10938  18.159   1.132  17.146  0.0430 -0.1232  0.1478
 7719W        W10939  14.703  15.537  17.312  0.0626  0.1345 -0.2365
 7720W        W10940  14.526   9.950  17.159  0.2066  0.2137 -0.0266
 7721W        W10941  13.559  14.368   5.743  0.1353 -0.3936  0.2343
 7722W        W10942   3.764  10.360  16.878 -0.2698  0.0535 -0.1104
 7723W        W10943  18.265  10.210  16.858  0.0531  0.0135 -0.3380
 7724W        W10944   4.262  12.243  11.661  0.0254 -0.0413  0.0873
 7725W        W10945   2.504   9.887   3.304  0.0875 -0.0587 -0.1686
 7726W        W10946  14.750   8.610  14.758  0.2220  0.1835  0.3458
 7727W        W10947   4.478   0.064   1.935  0.1572 -0.3498 -0.0910
 7728W        W10948  15.979   1.384  18.061 -0.0042  0.2107 -0.1905
 7729W        W10949  13.547  15.236   9.932 -0.0856 -0.1025 -0.1913
 7730W        W10950   1.946  13.340   6.557 -0.0785 -0.2214  0.0123
 7731W        W10951   3.738  11.733   2.699 -0.3557  0.2866 -0.3089
 7732W        W10952  17.384   0.920  14.063 -0.3031 -0.0220  0.2456
 7733W        W10953  18.072  16.939  14.377  0.2282  0.1182  0.1468
 7734W        W10954  18.237  14.931  16.488 -0.1639 -0.0461  0.2193
 7735W        W10955  17.078  15.794  13.973 -0.0706 -0.0773  0.1416
 7736W        W10956  15.627  16.848   4.880  0.0719 -0.2587 -0.2361
 7737W        W10957  18.124  17.707  15.490  0.0369 -0.3394 -0.1394
 7738W        W10958   7.101   9.757   4.101  0.2303 -0.2553 -0.0236
 7739W        W10959   2.307   7.431  17.873  0.1354  0.1040 -0.0071
 7740W        W10960   3.296  10.742   1.100  0.0046  0.1597 -0.0769
 7741W        W10961   2.922  10.385  15.098  0.0009 -0.1433 -0.0599
 7742W        W10962   2.851   1.337  16.465 -0.0143  0.2790  0.0788
 7743W        W10963  10.455  12.199   8.965  0.1380  0.2004  0.0857
 7744W        W10964   2.032  12.487   5.405 -0.2642  0.1670 -0.2910
 7745W        W10965   1.943  13.906   3.235  0.1258  0.1289  0.1152
 7746W        W10966  15.954  18.241  15.604  0.1656 -0.3189 -0.5551
 7747W        W10967  16.142  13.985   0.166 -0.1140 -0.0048  0.1370
 7748W        W10968   6.437  13.489  16.123  0.2487 -0.1511 -0.0917
 7749W        W10969   1.484  15.924   9.140 -0.1344 -0.0684 -0.1632
 7750W        W10970   3.676   1.235  11.255  0.0198 -0.2019  0.1073
 7751W        W10971   2.487   7.888   6.739 -0.0898 -0.0005 -0.1218
 7752W        W10972   0.643  13.753   7.485  0.0265  0.1683  0.0967
 7753W        W10973   2.168  14.078   4.994 -0.1436 -0.5046 -0.0640
 7754W        W10974   1.915  14.016  17.116 -0.1033  0.0258 -0.1490
 7755W        W10975   6.227  18.249  15.018  0.2489  0.0530  0.3348
 7756W        W10976   6.858  11.704  15.227  0.0333 -0.0966 -0.0799
 7757W        W10977  15.437  16.313   0.622 -0.1777  0.0258 -0.2010
 7758W        W10978   7.167  10.785  16.768  0.1182 -0.1266 -0.1128
 7759W        W10979  17.462   8.954   1.168  0.0236  0.0184  0.1889
 7760W        W10980  17.256  16.883   5.324  0.1549 -0.2871  0.1871
 7761W        W10981  16.894  10.649  16.244  0.1684  0.1411 -0.4001
 7762W        W10982   1.350  10.265  17.729  0.1622 -0.0418 -0.1677
 7763W        W10983   7.837   1.716  12.677 -0.1490 -0.0140 -0.2816
 7764W        W10984  17.260  17.345  11.796  0.1556 -0.1162 -0.0297
 7765W        W10985   7.369  10.796   3.054 -0.1064 -0.0791  0.0970
 7766W        W10986   2.619  14.930  15.792  0.1364  0.2424 -0.0255
 7767W        W10987   5.077  14.819  11.622  0.1399 -0.0092  0.1327
 7768W        W10988   5.641   7.674   9.396 -0.2877 -0.2995 -0.1815
 7769W        W10989   1.820  17.725   2.158 -0.1970  0.2288 -0.1205
 7770W        W10990   2.899  16.481   0.890 -0.0693  0.1237 -0.1339
 7771W        W10991   4.266  11.801  18.231  0.3461  0.3501 -0.3022
 7772W        W10992   0.076   9.308   3.949 -0.0867  0.1127 -0.0005
 7773W        W10993   2.853   8.995  14.039  0.1656  0.0822  0.1656
 7774W        W10994   2.000  15.259  16.098 -0.3146  0.0247  0.0290
 7775W        W10995   2.725  13.652   4.436 -0.2403 -0.1228 -0.0762
 7776W        W10996   2.366   3.571  11.419 -0.1466  0.1038  0.1608
 7777W        W10997   1.000  17.723  17.110 -0.0381  0.2122  0.1017
 7778W        W10998  11.686  15.344  12.402 -0.3615  0.0218  0.0390
 7779W        W10999   0.594   0.921   5.464 -0.1093  0.1244 -0.0695
 7780W        W11000  17.820  14.886   2.873 -0.0783 -0.0785  0.1153
 7781W        W11001   1.847  16.898   0.866 -0.0672 -0.0170  0.1270
 7782W        W11002  16.176   8.625  10.117  0.1658 -0.0138 -0.1189
 7783W        W11003  14.049   6.565   0.380  0.2508 -0.0233  0.2118
 7784W        W11004   4.699  15.484   2.345  0.0842  0.1140 -0.2183
 7785W        W11005   0.242   6.997  13.950  0.0518  0.0418 -0.0061
 7786W        W11006   3.680  12.109  10.172  0.0898 -0.2066 -0.1169
 7787W        W11007  10.596   6.227  12.230 -0.0390 -0.1269 -0.0070
 7788W        W11008   6.131  14.886  12.676 -0.0305  0.1425  0.0481
 7789W        W11009  13.416  15.756   0.511  0.0907  0.0082 -0.0078
 7790W        W11010  13.894   1.197  15.403 -0.0510 -0.0449  0.3562
 7791W        W11011   2.018   4.889   0.551  0.2026 -0.1463  0.2835
 7792W        W11012   4.082   8.589  17.506 -0.0952  0.3113 -0.0267
 7793W        W11013  14.888  13.942   3.101  0.3960 -0.2620 -0.0548
 7794W        W11014   4.033  13.877   1.744 -0.0668 -0.0469  0.3623
 7795W        W11015   6.405   9.353  11.633  0.2549  0.0187  0.0092
 7796W        W11016  13.389   3.505   7.407  0.0503 -0.1085  0.3579
 7797W        W11017   5.784  12.413   2.199  0.2690  0.1442  0.0780
 7798W        W11018  15.011  15.326  15.552 -0.0422 -0.1068 -0.0386
 7799W        W11019   6.606   2.932  12.395 -0.2673 -0.0244  0.2594
 7800W        W11020  17.146  11.753  17.525 -0.0858 -0.0544  0.1521
 7801W        W11021   1.053   1.231  18.076 -0.1419  0.3565  0.2157
 7802W        W11022  11.633  11.558   2.002  0.0447 -0.2244 -0.1432
 7803W        W11023   5.106  16.197   9.449  0.2210 -0.1661 -0.0065
 7804W        W11024   1.083  17.910  16.012  0.0661 -0.0538  0.2244
 7805W        W11025   0.631   3.939   3.967 -0.2627  0.0061  0.1609
 7806W        W11026  10.992  13.326  17.207 -0.0744 -0.0991  0.0535
 7807W        W11027   0.886  12.700   1.566 -0.1617 -0.1560  0.0892
 7808W        W11028  16.079  14.818  17.881 -0.2478  0.0285  0.2482
 7809W        W11029  15.623   9.075   6.636  0.0716  0.1750  0.1007
 7810W        W11030  11.301   8.505  13.054 -0.1458 -0.0751  0.0303
 7811W        W11031   4.873   8.658  18.237 -0.2771  0.3186 -0.2469
 7812W        W11032  11.327  10.315   2.594  0.1170 -0.2370  0.2485
 7813W        W11033   5.746  12.648  16.235  0.0032 -0.2425  0.0000
 7814W        W11034   1.109   9.405   4.882 -0.0527  0.0141 -0.1286
 7815W        W11035  16.503   8.583  13.997 -0.0350  0.0837 -0.2101
 7816W        W11036  12.042  16.169  10.899 -0.0717  0.0179 -0.0961
 7817W        W11037  15.251  16.749  12.952  0.1526 -0.3533 -0.2212
 7818W        W11038  18.120  11.891  11.938 -0.2313 -0.2323  0.0440
 7819W        W11039   2.842   6.994  12.332  0.0856 -0.1735 -0.0286
 7820W        W11040   0.285   6.951  16.608  0.0939 -0.0354  0.3289
 7821W        W11041   3.343  16.590  16.454  0.0131 -0.0970  0.1289
 7822W        W11042  10.273  10.262   0.904 -0.0093  0.1223 -0.0964
 7823W        W11043   9.768   9.158   1.848  0.0038  0.0124 -0.0369
 7824W        W11044   4.601  17.579  15.650  0.2987  0.1512  0.0736
 7825W        W11045   6.977   8.662  12.048  0.1014 -0.0677  0.0136
 7826W        W11046  14.638  15.600  15.867 -0.2127  0.2536  0.0145
 7827W        W11047   3.265  15.425   9.669 -0.1458 -0.0226 -0.1389
 7828W        W11048   0.914   6.908   7.448  0.0928 -0.1602 -0.1631
 7829W        W11049   1.185  12.314  14.557 -0.1019 -0.3912 -0.0055
 7830W        W11050   2.422  11.677   1.892 -0.2356 -0.0305 -0.1838
 7831W        W11051  16.022  17.360  12.652  0.1283  0.1672 -0.3565
 7832W        W11052   6.513  11.184  14.059 -0.2228  0.0628  0.0297
 7833W        W11053   3.017  14.373   4.976 -0.0010 -0.0211 -0.1808
 7834W        W11054  11.281   8.760   2.574 -0.1951 -0.0060 -0.2120
 7835W        W11055   4.538  12.618  15.678 -0.2696 -0.1284 -0.0187
 7836W        W11056  17.508   6.771   2.062  0.1284 -0.0437  0.2082
 7837W        W11057   3.119  11.295  17.232  0.0196  0.2080  0.2555
 7838W        W11058   2.577   2.893  14.295 -0.2706  0.2189 -0.0470
 7839W        W11059   2.618   6.494   1.846  0.2628  0.1861 -0.1531
 7840W        W11060   0.658   2.315   3.778  0.1609  0.1322 -0.0099
 7841W        W11061  15.803   7.599   2.434  0.3445  0.5290  0.1160
 7842W        W11062  15.708   0.659   1.843  0.1331  0.1253  0.1401
 7843W        W11063   1.624   9.787  13.156  0.0842  0.1203 -0.0767
 7844W        W11064   4.967  14.489  11.990  0.2029  0.1821  0.1723
 7845W        W11065   6.054   1.710   0.012 -0.1172  0.0840  0.1816
 7846W        W11066   0.414   6.757  11.575 -0.1675 -0.0702  0.0206
 7847W        W11067   1.226  13.549   1.845 -0.2708 -0.2079 -0.1466
 7848W        W11068   2.893  16.061   0.482 -0.1239  0.0132  0.0898
 7849W        W11069   0.991   0.036   4.344 -0.1892  0.3085  0.1853
 7850W        W11070   0.672   7.850  18.069 -0.0601  0.1026  0.0694
 7851W        W11071   5.132  11.206  13.998  0.2165 -0.4680  0.0626
 7852W        W11072   5.173  11.209  17.720 -0.1831 -0.2756  0.1411
 7853W        W11073  17.262  13.242  16.596  0.2582  0.2985  0.2437
 7854W        W11074   2.095   8.342  16.521  0.0339  0.0574  0.0622
 7855W        W11075   2.876  10.105  18.090 -0.1587  0.1818  0.2643
 7856W        W11076  17.454  14.742   2.498 -0.0157 -0.0426 -0.1621
 7857W        W11077  12.769  13.615   2.250  0.2582 -0.0282 -0.1439
 7858W        W11078   7.402  12.622  12.379 -0.3464 -0.3892  0.2747
 7859W        W11079   1.961  15.297  18.033  0.0495 -0.0989 -0.0365
 7860W        W11080  16.190  12.827   9.817 -0.2568  0.2965  0.0894
 7861W        W11081   9.963  15.561  15.983 -0.1985 -0.5639 -0.0740
 7862W        W11082  14.851  15.188  16.834  0.0011  0.1854  0.2761
 7863W        W11083   2.341  14.334  13.034  0.2145 -0.1201 -0.0476
 7864W        W11084  16.801   9.925  12.190  0.1036 -0.0923 -0.0311
 7865W        W11085  17.287  13.438  14.857 -0.2100  0.2256  0.1169
 7866W        W11086  17.724   7.570  15.742 -0.1869 -0.4078  0.0344
 7867W        W11087   2.761  15.363  17.421  0.0551 -0.1404 -0.3298
 7868W        W11088  15.839  17.083   3.479  0.0245  0.1347  0.0449
 7869W        W11089  16.334   6.733  14.683  0.1567 -0.0401  0.1030
 7870W        W11090  17.030   2.385   3.558 -0.0915 -0.0028 -0.2415
 7871W        W11091  16.782   6.322   3.051  0.0978  0.1299  0.2732
 7872W        W11092  15.981  15.673  14.784  0.0420  0.1815  0.0599
 7873W        W11093   8.388  16.521  13.603  0.2873  0.0398 -0.0708
 7874W        W11094   0.172   8.174  12.593  0.2690  0.1914  0.0370
 7875W        W11095  14.111  10.446   2.633  0.1184 -0.1975  0.1590
 7876W        W11096  17.318  16.978   0.287  0.1504 -0.0668 -0.0557
 7877W        W11097   0.898  17.462  15.651  0.2308 -0.1639 -0.1895
 7878W        W11098  18.020  10.951  18.131  0.4222  0.1924  0.0282
 7879W        W11099   4.595   6.630   4.964  0.3655 -0.1329 -0.1295
 7880W        W11100   0.363  11.437   0.592 -0.3146  0.0478  0.1237
 7881W        W11101  14.232  14.453   0.896  0.0612  0.1063 -0.1523
 7882W        W11102   0.154  11.363  13.802  0.1886  0.0170  0.2432
 7883W        W11103   6.366   1.096  14.406 -0.0381 -0.0541  0.2234
 7884W        W11104   2.299  13.105   0.724 -0.1477 -0.2203  0.0791
 7885W        W11105  15.472  16.035  12.372 -0.0321 -0.0182  0.2228
 7886W        W11106  17.148  13.720  16.669 -0.1029  0.0317  0.2194
 7887W        W11107   5.946   0.387  12.624  0.1666  0.1354  0.1819
 7888W        W11108   7.257  10.466   9.081  0.3476  0.1924 -0.2004
 7889W        W11109   0.726  17.622   0.395 -0.3335 -0.1019  0.0371
 7890W        W11110   5.179  11.265   8.296  0.2433 -0.3743 -0.0099
 7891W        W11111  13.301  16.172  13.701  0.2524  0.0348  0.1983
 7892W        W11112   3.541  12.395  13.385  0.0607  0.0597 -0.1270
 7893W        W11113   7.796  14.274  11.570 -0.1983 -0.0309 -0.0670
 7894W        W11114   0.782  15.359  15.788 -0.1509  0.0630  0.3510
 7895W        W11115   6.593   3.100   4.318 -0.4596 -0.1366 -0.2752
 7896W        W11116   6.010   8.993  16.504 -0.2382 -0.2483 -0.0384
 7897W        W11117   0.373  17.244  14.390 -0.0853  0.1875  0.2777
 7898W        W11118   2.802  14.718  15.363 -0.0201 -0.1266  0.3534
 7899W        W11119   2.132  17.929   2.884  0.2451 -0.1099  0.1042
 7900W        W11120   3.220  14.130   2.929 -0.1097 -0.0930  0.2368
 7901W        W11121   4.582   0.978  15.382  0.1583  0.1161  0.0628
 7902W        W11122   5.829  15.759  14.280 -0.1955 -0.1261 -0.0897
 7903W        W11123   4.416  13.453   1.364 -0.2041  0.0342 -0.0203
 7904W        W11124   1.703  11.909  17.998 -0.3235 -0.0596 -0.4297
 7905W        W11125   1.536  11.502  12.102 -0.2565 -0.0886  0.1833
 7906W        W11126   3.778  17.107  12.871  0.0079  0.1124 -0.3213
 7907W        W11127   1.196   1.865   4.513  0.0809  0.2038 -0.1617
 7908W        W11128   1.600  15.805   0.440 -0.2263 -0.0828 -0.0311
 7909W        W11129   3.914  11.818  15.686  0.1969 -0.3999 -0.0717
 7910W        W11130  16.772  13.648   2.381  0.1199  0.1512  0.0491
 7911W        W11131   4.256  14.368  15.149  0.0448 -0.2447 -0.1441
 7912W        W11132   0.829  11.088  10.781  0.1290  0.0903 -0.0819
 7913W        W11133   6.766  12.698  17.337 -0.1833  0.3641  0.1900
 7914W        W11134  16.825  10.229   4.563  0.1035 -0.1973 -0.0588
 7915W        W11135  16.406   6.378  17.896  0.0179  0.1110  0.3214
 7916W        W11136   2.408  14.335  14.591  0.2694 -0.3617 -0.1272
 7917W        W11137  15.814  12.488  12.403  0.0059  0.0966  0.1165
 7918W        W11138   1.963  15.185   0.220  0.0900 -0.3445 -0.0084
 7919W        W11139   0.301   8.343  13.163  0.2024  0.0808  0.0608
 7920W        W11140   1.021   6.616  12.125  0.2221 -0.1576  0.1944
 7921W        W11141   9.764  10.257  17.543  0.0530 -0.3044 -0.0657
 7922W        W11142   2.385  13.569   3.845  0.0916 -0.0855  0.3936
 7923W        W11143   3.362   9.198  14.362  0.0110 -0.0800 -0.0120
 7924W        W11144   7.321  12.192  17.321  0.0488 -0.5047 -0.2378
 7925W        W11145  15.915  15.728  17.628  0.2266  0.1552 -0.0935
 7926W        W11146   3.878  10.818   1.676  0.1319  0.3526  0.0191
 7927W        W11147  15.832   8.837   0.991 -0.2484  0.2176  0.0425
 7928W        W11148  16.416  16.857   6.943 -0.0879  0.0691 -0.1072
 7929W        W11149   2.270  17.083   4.294 -0.1094  0.0740 -0.2740
 7930W        W11150   4.775   6.045   1.136  0.4288 -0.0722 -0.0117
 7931W        W11151   4.302  12.586  16.956 -0.3619  0.1432 -0.1265
 7932W        W11152  17.408  15.948   3.357  0.1012 -0.1303  0.0189
 7933W        W11153  15.626  10.557   8.598 -0.0390 -0.1935 -0.1893
 7934W        W11154  11.436   3.677  13.649 -0.3688 -0.1179 -0.1831
 7935W        W11155  17.517  16.368   5.562 -0.0600 -0.1083 -0.1351
 7936W        W11156   2.450  12.371   7.334 -0.0673  0.2162  0.1493
 7937W        W11157  15.590  15.234   0.499  0.0624  0.0985 -0.2805
 7938W        W11158   5.193   2.609  14.692  0.1707 -0.1191 -0.2974
 7939W        W11159   1.183   5.732  15.341 -0.0541 -0.2493 -0.1355
 7940W        W11160   4.899  16.394   6.294 -0.0329 -0.1006  0.1404
 7941W        W11161   3.636   5.133   1.431 -0.1817  0.1730 -0.5700
 7942W        W11162  18.222   0.460   3.858 -0.0969 -0.0938  0.2420
 7943W        W11163   7.769   3.218  10.978 -0.1145  0.1252 -0.1322
 7944W        W11164   2.522  17.273  14.307 -0.1128  0.0443  0.1971
 7945W        W11165  17.695   3.823   4.522  0.3213  0.2297 -0.1299
 7946W        W11166   2.788  13.484   1.936  0.3151  0.3528 -0.0957
 7947W        W11167   5.054   0.075  17.783 -0.1176  0.0430  0.1880
 7948W        W11168  16.870  16.077   3.779  0.2834 -0.0778 -0.0272
 7949W        W11169   5.770   5.926   2.465 -0.1554  0.0020 -0.0706
 7950W        W11170   4.605  18.010   1.008 -0.1717 -0.3406  0.0315
 7951W        W11171   3.883  10.735   2.225  0.0263 -0.2125 -0.0128
 7952W        W11172   3.934   1.324   0.558  0.0857 -0.1763 -0.0816
 7953W        W11173   3.011  17.096   3.118  0.0358 -0.2438 -0.5407
 7954W        W11174  16.602   2.512  11.817  0.2505 -0.0019 -0.0886
 7955W        W11175   5.714  14.018  16.666 -0.0886 -0.0637 -0.1187
 7956W        W11176   7.545   9.638   4.849 -0.2324  0.0137 -0.5759
 7957W        W11177   1.545   4.417  16.245  0.0279 -0.1367 -0.0192
 7958W        W11178  13.999  15.135   2.025 -0.1931 -0.0468  0.1110
 7959W        W11179   7.710   0.977   1.880 -0.0491  0.2329  0.3769
 7960W        W11180   2.295  14.710  10.021 -0.0058 -0.1297 -0.0598
 7961W        W11181   4.215  16.000   2.928 -0.1139 -0.1715  0.0014
 7962W        W11182  17.630   1.827  10.545 -0.3745  0.1453  0.1613
 7963W        W11183   3.302  15.634  16.790  0.1666 -0.2070  0.3206
 7964W        W11184   4.592  16.180   1.801 -0.0357 -0.0328 -0.3367
 7965W        W11185   1.176  16.731  13.638  0.2914 -0.0110 -0.1389
 7966W        W11186   3.822  15.868  14.300  0.3825  0.0121 -0.1687
 7967W        W11187   6.685   3.100  17.756 -0.1793 -0.1784  0.2118
 7968W        W11188   7.745  18.246  17.497 -0.1287  0.1642  0.0529
 7969W        W11189  17.034   2.166  18.131 -0.4481  0.0508 -0.0955
 7970W        W11190   5.380   5.004  15.560  0.2143 -0.1292 -0.1958
 7971W        W11191  13.268  15.661   2.502  0.0227  0.1157 -0.1769
 7972W        W11192  17.579   4.925   0.264  0.1395  0.1492 -0.3122
 7973W        W11193  13.345  15.186   4.324  0.2053 -0.2327  0.1545
 7974W        W11194   4.065  16.987   5.447 -0.3531  0.1951 -0.0662
 7975W        W11195   0.193   0.447   6.310 -0.0569 -0.2510 -0.3937
 7976W        W11196  14.192   3.173  18.192  0.0134  0.1945  0.0958
 7977W        W11197  13.602   1.042   3.646  0.0001  0.3446  0.0203
 7978W        W11198   1.756  10.502   5.066  0.1262 -0.4438 -0.1110
 7979W        W11199   6.887  13.064   1.927  0.1509  0.2404  0.0489
 7980W        W11200   6.899  18.148  14.783  0.1159 -0.0125 -0.3616
 7981W        W11201  16.130  17.511   5.267  0.0435  0.0069 -0.2530
 7982W        W11202   2.891   0.319  13.347  0.1144  0.0993 -0.3809
 7983W        W11203   2.291   2.576  13.142 -0.1882  0.0886  0.1828
 7984W        W11204   8.116  16.997   0.829 -0.3566  0.2105 -0.2586
 7985W        W11205   2.958   1.332   3.892 -0.0371 -0.3227  0.3546
 7986W        W11206   6.379  17.725  14.888 -0.1859 -0.1296 -0.1101
 7987W        W11207   1.232  16.041  17.903 -0.1877  0.0332 -0.1144
 7988W        W11208  16.785   7.579   6.251  0.3348 -0.1642  0.2191
 7989W        W11209   1.144  17.826  16.528  0.2411  0.1523 -0.3162
 7990W        W11210   3.646   1.471   2.801  0.0490  0.0234  0.0006
 7991W        W11211   5.070   3.495   2.830  0.2028  0.0635 -0.1126
 7992W        W11212   1.425  17.668   4.816 -0.1159 -0.1153 -0.0919
 7993W        W11213  12.630  12.864   2.964 -0.1437  0.0200  0.2143
 7994W        W11214  15.412  17.363   3.527 -0.2300 -0.2030 -0.2776
 7995W        W11215  18.156  13.714   5.390 -0.2833 -0.1338 -0.2011
 7996W        W11216   2.657   1.412  15.697 -0.0733  0.0689 -0.3244
 7997W        W11217   4.049   4.685   0.276 -0.2456  0.0409  0.0194
 7998W        W11218   5.835   4.285   2.936  0.1934 -0.0030  0.0228
 7999W        W11219   1.504   4.109  16.708  0.2587 -0.1369  0.0040
 8000W        W11220   2.416  16.647   3.233  0.1132 -0.0589 -0.1419
 8001W        W11221  16.851   0.703  15.499 -0.1634 -0.0277 -0.0721
 8002W        W11222   2.118   8.961   4.663 -0.0708  0.0651  0.2926
 8003W        W11223   1.488  14.768   1.785 -0.2212  0.2020  0.0761
 8004W        W11224  16.866   0.276   4.635  0.1213  0.0664 -0.1579
 8005W        W11225   3.198  15.523  12.985 -0.1833 -0.0487 -0.1848
 8006W        W11226   5.510  13.507   1.144  0.1263 -0.2254 -0.1112
 8007W        W11227   6.200  16.362   0.945 -0.1955  0.1194 -0.0627
 8008W        W11228  13.913   9.359  14.746 -0.0277 -0.0675  0.2509
 8009W        W11229  14.701  12.340   3.768 -0.1018  0.2687 -0.3366
 8010W        W11230   3.369  13.747   3.741 -0.0738 -0.0228 -0.1028
 8011W        W11231   4.118  11.201   5.938 -0.1593  0.1772  0.0417
 8012W        W11232   4.300  12.198   3.686 -0.1442 -0.0628  0.0562
 8013W        W11233   1.906   0.621  10.091 -0.1143 -0.2169  0.1474
 8014W        W11234   5.030   3.668  17.014  0.0752  0.1520  0.1247
 8015W        W11235   3.046   5.637  11.240  0.2337 -0.0908 -0.0603
 8016W        W11236  12.958  14.352   2.784 -0.0327  0.1773  0.0566
 8017W        W11237   4.087   0.603   1.103  0.2089 -0.2411  0.2580
 8018W        W11238   5.731   0.497  15.320  0.2962 -0.1183 -0.2009
 8019W        W11239   0.732  16.296  10.559 -0.4408  0.1175  0.0363
 8020W        W11240   2.265  14.543   2.659 -0.3873 -0.0673  0.1427
 8021W        W11241  17.007  16.085   3.019 -0.0081 -0.0199  0.0642
 8022W        W11242   4.150  18.052   8.502  0.1603  0.1965 -0.3061
 8023W        W11243   9.214  16.641   4.565 -0.4301 -0.2623  0.1826
 8024W        W11244  14.925   1.835   6.586  0.1104 -0.3074 -0.0593
 8025W        W11245   1.959   2.343  14.767 -0.0345  0.2436  0.1774
 8026W        W11246  18.105  11.772   5.025 -0.2603 -0.2464 -0.0588
 8027W        W11247  10.555  14.368   0.654  0.2146  0.0412  0.1787
 8028W        W11248   1.931  17.315   1.906  0.1136  0.3314  0.4300
 8029W        W11249   3.395  12.159  17.626  0.0184  0.2545  0.1509
 8030W        W11250   5.934   0.094   0.636  0.1405  0.0768  0.0255
 8031W        W11251   2.406   0.798   4.457 -0.3446  0.1187  0.0775
 8032W        W11252   7.978  10.906   1.583  0.4172 -0.2543 -0.2531
 8033W        W11253  10.879  15.314  17.672 -0.1482 -0.2092 -0.0209
 8034W        W11254   5.046   9.725   7.682  0.4760 -0.0540 -0.2027
 8035W        W11255   4.028  15.748  11.055 -0.2391  0.4366 -0.0028
 8036W        W11256   3.985   1.391  12.232  0.2749 -0.1497 -0.3273
 8037W        W11257   2.597   1.816   0.197  0.0627  0.0216 -0.0115
 8038W        W11258  13.800   0.202   4.545  0.0251  0.2336 -0.2391
 8039W        W11259   1.927  18.087  18.129 -0.2227  0.0153  0.0069
 8040W        W11260  17.477  15.660   6.562  0.0875 -0.3698  0.0735
 8041W        W11261   9.518   4.398  12.498  0.3431  0.0844  0.2150
 8042W        W11262  17.003  10.095  13.231 -0.1860 -0.0251 -0.0164
 8043W        W11263   6.358  14.486   1.584  0.2916  0.3146  0.1438
 8044W        W11264   6.791  16.459  16.620 -0.0086  0.0850 -0.1792
 8045W        W11265   3.156   1.098  16.786  0.2373  0.0516 -0.0682
 8046W        W11266  17.983   2.860   3.546 -0.0835 -0.0605 -0.0210
 8047W        W11267   4.771  13.147  16.298 -0.0898  0.1058  0.2097
 8048W        W11268  17.254  16.968  17.988  0.1598  0.1955 -0.0153
 8049W        W11269  16.194  18.165   4.892 -0.1872  0.1119  0.2652
 8050W        W11270   3.573  17.278   9.409  0.1198 -0.0346 -0.1309
 8051W        W11271   0.044  15.727  17.228 -0.0902 -0.0096 -0.2602
 8052W        W11272   2.765  13.245   5.921 -0.0025 -0.3958 -0.2515
 8053W        W11273   4.084   9.773  11.119 -0.0674 -0.0207 -0.1808
 8054W        W11274   1.835  16.231   4.390  0.0801 -0.0268  0.2003
 8055W        W11275   5.327  10.675   3.185  0.0320 -0.3144  0.1672
 8056W        W11276   3.378  15.116   1.013 -0.4079  0.1865  0.0316
 8057W        W11277   2.689  17.816   0.106  0.0474 -0.0505 -0.0233
 8058W        W11278   2.359  16.137   8.385  0.1108  0.0397 -0.1009
 8059W        W11279   6.598   1.491   6.977  0.1532  0.1074  0.1411
 8060W        W11280  16.054  11.416  12.750 -0.2085  0.0747 -0.2043
 8061W        W11281   9.194  14.624   4.770  0.2293 -0.2862 -0.1021
 8062W        W11282   2.182  14.153   2.294  0.0356 -0.0427 -0.0075
 8063W        W11283  14.976   2.520   3.495 -0.1614 -0.1196 -0.1472
 8064W        W11284   2.414  15.172   1.292 -0.0476 -0.1598 -0.0320
 8065W        W11285   4.404   0.363  10.411 -0.3470 -0.0623  0.1960
 8066W        W11286   2.593  16.691   2.266  0.0039 -0.0437  0.0346
 8067W        W11287  16.930   0.409  12.209 -0.1672  0.3075 -0.0722
 8068W        W11288   1.019   3.436   5.597 -0.0230 -0.0701  0.0314
 8069W        W11289  11.523   3.255   1.166  0.1907  0.4634 -0.2761
 8070W        W11290  13.854  15.385   4.553 -0.1172 -0.0914  0.0481
 8071W        W11291  14.225  14.210   3.715 -0.0871 -0.0020 -0.1034
 8072W        W11292  16.598   1.015   1.706 -0.0243 -0.2166  0.1161
 8073W        W11293   4.763   2.893   0.253  0.1151  0.3379  0.2769
 8074W        W11294  17.077   0.939   6.805  0.2298 -0.3953 -0.2611
 8075W        W11295   6.602  16.438  18.228 -0.1148  0.2574  0.2495
 8076W        W11296   2.574  12.906  13.570  0.1523  0.0104 -0.1651
 8077W        W11297   1.073  15.775   0.436 -0.1392 -0.0045  0.1062
 8078W        W11298   0.833   2.581  16.226  0.0006 -0.4627 -0.1827
 8079W        W11299   0.661   7.640   1.433 -0.0217 -0.5230  0.2979
 8080W        W11300   7.132   2.788  15.835 -0.2158  0.2141  0.2457
 8081W        W11301   7.916  12.436   6.126 -0.2387 -0.2575 -0.0718
 8082W        W11302   4.134   0.730   3.142 -0.1323  0.1795 -0.0348
 8083W        W11303   3.371   0.680  12.727  0.0324 -0.0256  0.0185
 8084W        W11304   1.129   1.527  16.122  0.1427  0.1706 -0.2090
 8085W        W11305  14.273  18.025  14.973 -0.0371 -0.2577 -0.0748
 8086W        W11306   0.289  15.885   3.845  0.5228  0.0061  0.1278
 8087W        W11307   4.369  14.455  16.897  0.0931  0.0843 -0.3368
 8088W        W11308   1.585  16.763   1.270 -0.0153  0.0503  0.1154
 8089W        W11309   4.793   3.862   2.978  0.0988 -0.1166 -0.1840
 8090W        W11310   0.789  11.077   0.968  0.0390 -0.1511 -0.1952
 8091W        W11311   1.796  17.909   4.466  0.1724 -0.1262 -0.0571
 8092W        W11312   4.926  11.350   9.139 -0.1287 -0.1190 -0.1704
 8093W        W11313   0.358   2.374  11.699  0.1388 -0.1948  0.2163
 8094W        W11314   5.540   1.930   0.852 -0.1234  0.0245 -0.2907
 8095W        W11315   9.300  10.919  12.303 -0.1327 -0.3371  0.2280
 8096W        W11316   4.074  14.559   0.421  0.0423  0.0089 -0.1112
 8097W        W11317   1.187  17.716  14.466 -0.1509  0.2176  0.0563
 8098W        W11318   4.061  16.138  17.505  0.0419 -0.0481 -0.2560
 8099W        W11319  15.131  14.093   2.003 -0.1465  0.0253  0.2130
 8100W        W11320   3.203   9.446  16.832  0.0495  0.3996 -0.1316
 8101W        W11321   8.616   2.048   2.382 -0.1276  0.3517  0.0081
 8102W        W11322   4.328   5.428  11.913 -0.2989  0.2857  0.1980
 8103W        W11323   4.696   2.493   5.277  0.1494 -0.1235  0.0898
 8104W        W11324   6.307  15.604  18.016 -0.1099  0.0253  0.4532
 8105W        W11325  14.704   2.814  16.493 -0.1094 -0.2203 -0.0791
 8106W        W11326   1.132  11.351  16.962 -0.1070 -0.0560 -0.0219
 8107W        W11327  17.397   2.261  16.189 -0.2434  0.1414  0.1107
 8108W        W11328   4.446  15.656  13.102  0.4185 -0.1098 -0.1904
 8109W        W11329  18.177  13.882  12.458  0.1536 -0.0397  0.1604
 8110W        W11330   1.617  13.847   4.329 -0.0844  0.0226  0.2840
 8111W        W11331   6.583   3.457  12.433  0.0832  0.2425  0.0630
 8112W        W11332  15.292   1.885  17.726  0.0222  0.0377 -0.0766
 8113W        W11333   1.023   0.801   1.827 -0.2629  0.0308  0.3588
 8114W        W11334  16.996   6.695   4.199  0.0810  0.1357  0.0290
 8115W        W11335   7.089   1.348   6.112 -0.2668  0.3443 -0.0506
 8116W        W11336  17.069  14.609   2.837  0.0260 -0.2076  0.1501
 8117W        W11337  13.693  14.269   1.973  0.2188  0.1117 -0.3830
 8118W        W11338  17.641   9.528   1.146  0.2946 -0.3963  0.1548
 8119W        W11339   4.426  16.428   5.090 -0.1079 -0.2872 -0.0271
 8120W        W11340   4.723  13.239   1.722 -0.4286 -0.2322  0.4378
 8121W        W11341   2.720   2.372   6.398 -0.1420  0.0396  0.0687
 8122W        W11342  18.089  16.229  17.419  0.2499 -0.1246 -0.1253
 8123W        W11343  16.474   0.630   5.394 -0.0947 -0.1198 -0.0930
 8124W        W11344   3.987  15.839  17.871 -0.2299  0.0238 -0.0226
 8125W        W11345  10.386   6.966  17.075 -0.1701 -0.2250 -0.0450
 8126W        W11346   3.206  16.665   3.140  0.0837  0.0668 -0.1148
 8127W        W11347  15.374  15.989   0.224  0.0581  0.0600  0.0964
 8128W        W11348   4.686  14.417   3.296  0.2230  0.1340  0.1791
 8129W        W11349  10.209   2.531  12.717 -0.1333 -0.0319 -0.0332
 8130W        W11350   7.917  17.610   0.560  0.2284  0.1669 -0.0884
 8131W        W11351  14.340   1.606   6.732 -0.0690  0.2778  0.1074
 8132W        W11352   1.994  12.867   0.191  0.1642 -0.0006 -0.2137
 8133W        W11353   1.039  14.894   2.620 -0.0069 -0.2856 -0.3991
 8134W        W11354   4.891   1.644   1.532 -0.0808  0.1720  0.1342
 8135W        W11355   0.500   1.430  12.852  0.0676  0.0925 -0.3233
 8136W        W11356  17.498   6.471   5.578 -0.0111 -0.1223 -0.1683
 8137W        W11357  17.400   0.271   2.923  0.0332 -0.2092 -0.0170
 8138W        W11358   6.729  16.114   1.040 -0.2822  0.0863 -0.1537
 8139W        W11359   2.126  16.635   4.578  0.0665 -0.2060 -0.2409
 8140W        W11360   2.164  11.317   0.400 -0.1407  0.0513  0.1449
 8141W        W11361   1.211   0.379  17.817  0.0616 -0.0878 -0.1719
 8142W        W11362   5.984   6.244  16.047 -0.2914 -0.1547 -0.3068
 8143W        W11363  16.581  18.005   2.649  0.0737  0.0244 -0.0588
 8144W        W11364   6.849   3.914   0.403  0.1250 -0.3035  0.0049
 8145W        W11365   2.691   6.087   9.209 -0.0485 -0.1299  0.2378
 8146W        W11366   8.714  13.013   5.060  0.1715 -0.0775 -0.2423
 8147W        W11367  13.083   0.982  16.660 -0.2529 -0.0609 -0.1148
 8148W        W11368   1.974  17.839   3.546  0.1382 -0.0050  0.0355
 8149W        W11369   2.459  11.746  15.858  0.1837  0.1905 -0.3236
 8150W        W11370  16.253  15.810  16.670 -0.0236 -0.0097  0.1790
 8151W        W11371  10.434  17.274  10.896  0.0441 -0.2102 -0.1831
 8152W        W11372   0.255  16.595  17.547 -0.1238  0.1632 -0.0541
 8153W        W11373   3.644  14.731   3.668 -0.1129  0.2825 -0.2314
 8154W        W11374   1.012   2.709   3.617 -0.1190 -0.0045 -0.1748
 8155W        W11375  16.621   3.008  14.048  0.1285 -0.5399  0.1699
 8156W        W11376   3.569  14.457   2.434  0.1297 -0.1380  0.0878
 8157W        W11377   1.290  14.825   3.866  0.1994  0.0811 -0.0798
 8158W        W11378   0.586  17.708   2.830  0.0366 -0.1730 -0.3639
 8159W        W11379   3.700  16.178  18.116 -0.0281  0.0178  0.0085
 8160W        W11380   5.670  16.564  13.993 -0.0686  0.3696  0.2067
 8161W        W11381   5.860   2.492  11.924  0.3986 -0.0344 -0.0285
 8162W        W11382   2.217   4.820  16.532  0.0948 -0.1349  0.1262
 8163W        W11383  12.564  10.293   1.099 -0.1289  0.3066  0.1912
 8164W        W11384   0.141  12.855   2.866  0.2702  0.1250 -0.3702
 8165W        W11385   1.937   2.494   1.023 -0.1171 -0.0563 -0.1454
 8166W        W11386   4.787   1.227  16.766  0.1609  0.1084  0.0704
 8167W        W11387  15.783   3.197  17.864 -0.1449 -0.1166  0.0441
 8168W        W11388   5.015  11.505  16.953  0.0328  0.4218 -0.2966
 8169W        W11389   3.050  18.252  13.699  0.0090  0.1299 -0.2326
 8170W        W11390   2.353  13.963   3.523 -0.3350 -0.5586  0.2236
 8171W        W11391  17.102   3.566  12.781  0.1362  0.1119 -0.2883
 8172W        W11392   2.117   1.959  13.633  0.1062 -0.1428 -0.0753
 8173W        W11393  17.742   0.660   3.145  0.0501  0.1217  0.2930
 8174W        W11394   6.761   1.726   7.403  0.1467  0.2928  0.0724
 8175W        W11395   0.671  15.291   4.420 -0.1729 -0.0569 -0.1858
 8176W        W11396   5.806  16.877  15.882  0.1249  0.0360  0.3859
 8177W        W11397  12.878   2.123   3.397 -0.1400 -0.0762 -0.1664
 8178W        W11398  14.293  14.554  10.418  0.2924 -0.2270  0.0107
 8179W        W11399   9.757  17.075  10.442  0.2433 -0.0411  0.0828
 8180W        W11400   0.726   3.479   0.027 -0.2870  0.1313  0.1148
 8181W        W11401   4.670  17.304  16.059  0.0417 -0.2975 -0.2334
 8182W        W11402   2.675  14.195   2.568  0.2245 -0.4070 -0.1692
 8183W        W11403   4.722  15.356   6.237  0.1315  0.1318 -0.0338
 8184W        W11404  15.076   3.097  16.624  0.1593  0.0777  0.2440
 8185W        W11405   6.391  16.725   2.219  0.2959 -0.1067  0.1975
 8186W        W11406   1.719  16.999   2.415 -0.0296  0.0531 -0.4095
 8187W        W11407   1.375  17.806   3.078 -0.1302 -0.2737  0.0715
 8188W        W11408   5.605  17.937   3.048 -0.1279  0.4723  0.1937
 8189W        W11409   0.573  11.224   4.575 -0.1503  0.1279  0.1754
 8190W        W11410  16.838   1.584  14.419 -0.0751  0.2479  0.3859
 8191W        W11411  11.644  17.649   2.366  0.1611  0.0576  0.1579
 8192W        W11412   9.910  12.387  13.901  0.1374 -0.0954 -0.0580
 8193W        W11413   2.903  12.375   5.645  0.0366  0.0624  0.1651
 8194W        W11414   6.783  13.558   2.457 -0.0971  0.0836  0.1696
 8195W        W11415   4.635  16.641  16.756  0.1598  0.1366  0.1108
 8196W        W11416  14.680  17.870  15.358 -0.0763  0.0508  0.2619
 8197W        W11417   6.470  15.104   0.764  0.2535 -0.0682  0.0093
 8198W        W11418   3.134  15.067  16.908  0.1888 -0.0564 -0.3800
 8199W        W11419  14.815   0.902   9.070 -0.1902  0.1795 -0.0131
 8200W        W11420   3.414   4.763   4.690  0.1898  0.3952 -0.0242
 8201W        W11421  17.045  14.445   4.365  0.3005 -0.1555  0.0117
 8202W        W11422   2.511  13.452   3.373  0.2524 -0.1265 -0.2326
 8203W        W11423   1.179  12.340   1.411 -0.0521  0.0941  0.2384
 8204W        W11424  11.929   9.912  17.317 -0.1670 -0.0094 -0.2633
 8205W        W11425   4.495  10.667  15.138  0.3323 -0.0358  0.1278
 8206W        W11426   6.796  15.878  17.920  0.3821 -0.1905  0.2426
 8207W        W11427   0.884   2.422   5.316 -0.3086  0.2332 -0.0535
 8208W        W11428   0.090   2.114  14.512 -0.3388 -0.1286 -0.1261
 8209W        W11429  10.099   2.817  13.916 -0.0252 -0.2119  0.1859
 8210W        W11430   0.396  18.013   9.979  0.0402 -0.1247  0.2077
 8211W        W11431   1.359  13.044  15.441  0.0871 -0.0495  0.0285
 8212W        W11432   1.643   2.353  10.547  0.0562  0.2347 -0.3793
 8213W        W11433  16.471  14.493   7.343  0.0236 -0.0748  0.0232
 8214W        W11434  17.125  16.614   2.500 -0.2477 -0.0182  0.3644
 8215W        W11435   3.929   6.036  17.035 -0.0584 -0.0468 -0.2004
 8216W        W11436   0.842  11.617   5.320 -0.1947 -0.0703 -0.1911
 8217W        W11437  17.464  17.582   7.765 -0.0919  0.0901  0.1363
 8218W        W11438  10.465  15.934   0.091  0.1024 -0.0501  0.1226
 8219W        W11439   1.843   2.567   1.858  0.1620 -0.1602  0.1847
 8220W        W11440  16.140   1.596   6.004 -0.0789 -0.2977 -0.3851
 8221W        W11441   7.502   0.001   5.321  0.0665 -0.0060  0.0500
 8222W        W11442   1.406   1.366   5.363  0.1543  0.2023 -0.1428
 8223W        W11443   4.804  14.982   5.761  0.0242 -0.1733  0.0263
 8224W        W11444  10.359   2.617   1.086  0.0034 -0.0127  0.2841
 8225W        W11445  18.091   4.383   7.613 -0.0796 -0.0895 -0.0149
 8226W        W11446   0.445  14.914   2.823 -0.1745 -0.4308  0.0117
 8227W        W11447  17.485  13.231   6.561 -0.2596 -0.0443 -0.0019
 8228W        W11448   1.161   4.965  14.581 -0.0653  0.0102 -0.1523
 8229W        W11449   6.750  14.209  18.191 -0.1364 -0.2281 -0.0211
 8230W        W11450   0.824  14.440   5.875  0.1606 -0.2527 -0.0664
 8231W        W11451  17.057  17.889   7.944 -0.0404  0.2820 -0.0864
 8232W        W11452   3.853  14.066   5.482  0.2442 -0.4252  0.1094
 8233W        W11453   3.740   0.521   0.251  0.1824 -0.2279 -0.4314
 8234W        W11454   6.814  11.159  16.352 -0.0123  0.2491  0.1541
 8235W        W11455  18.125  17.769   4.215 -0.1546  0.0836  0.1117
 8236W        W11456  13.133  10.249   1.198 -0.0750  0.0585  0.1511
 8237W        W11457   4.301   1.388   1.881 -0.1854 -0.0643 -0.1437
 8238W        W11458   1.705  18.145  16.907  0.1788  0.0947  0.0876
 8239W        W11459   1.151  12.606   2.023  0.1592 -0.2654  0.3860
 8240W        W11460  16.014  17.146   5.665  0.1060  0.1816 -0.1027
 8241W        W11461   4.135  15.923   3.730 -0.1668  0.1304 -0.0559
 8242W        W11462  17.374   3.115  10.915  0.1379 -0.1015 -0.2308
 8243W        W11463   6.834  16.007  14.308 -0.0621 -0.0455 -0.0247
 8244W        W11464   2.555  13.358  16.036  0.0116  0.0241 -0.1079
 8245W        W11465   6.780   3.644  17.948 -0.0106 -0.0595 -0.0261
 8246W        W11466  16.571  17.256   5.118  0.1182  0.0494  0.4027
 8247W        W11467  18.036  13.395  17.492  0.0038 -0.3864 -0.2386
 8248W        W11468   7.061  16.310  17.785 -0.0563  0.1169 -0.2227
 8249W        W11469  15.599   2.130   3.253  0.0679  0.0521  0.5472
 8250W        W11470   0.661   2.315  10.832  0.0274  0.1181  0.1719
 8251W        W11471   3.873  16.316   1.382 -0.4178 -0.1724  0.0585
 8252W        W11472  13.683  13.295   3.844  0.1161  0.0829 -0.2842
 8253W        W11473  16.338  13.511   0.011  0.0456  0.1384 -0.0603
 8254W        W11474  17.730   2.402  15.852 -0.0103  0.4218  0.1890
 8255W        W11475  18.044  15.339   0.869  0.1466  0.0044  0.2768
 8256W        W11476   4.247  10.605   1.874  0.2073  0.0914  0.0374
 8257W        W11477   4.047  16.078   4.236  0.1997  0.1070  0.0841
 8258W        W11478   4.647   2.265   7.634  0.1762 -0.1021 -0.2697
 8259W        W11479  11.147  14.078   4.054 -0.0093 -0.0097  0.3384
 8260W        W11480   8.518  16.965   4.250  0.2289 -0.1982  0.3177
 8261W        W11481   2.470   2.868  18.148  0.1328 -0.0453  0.0356
 8262W        W11482   4.412  16.315   4.578  0.0360 -0.2944  0.0413
 8263W        W11483  12.533   5.805  17.014  0.2659  0.3071 -0.0354
 8264W        W11484   7.443  17.800  17.616 -0.1586 -0.4093  0.1575
 8265W        W11485   0.191   2.453  16.887  0.1666 -0.0495 -0.2226
 8266W        W11486   3.313  11.146   3.762  0.2375  0.2950  0.1609
 8267W        W11487   6.102   1.766  17.743  0.1084  0.1890  0.6100
 8268W        W11488   0.586   1.240  17.803 -0.3791 -0.0554 -0.0423
 8269W        W11489   5.916   3.242  12.897 -0.0485 -0.2793  0.1098
 8270W        W11490   0.982   0.638   2.301  0.0564 -0.0573  0.0158
 8271W        W11491   0.667   1.724   4.729  0.1777 -0.0372 -0.0345
 8272W        W11492   3.689  15.408   0.257 -0.2101 -0.1116 -0.2086
 8273W        W11493  16.715  17.941  11.463  0.1730 -0.3270  0.2120
 8274W        W11494  14.643  10.998   0.659 -0.1111  0.0364  0.0405
 8275W        W11495   9.651  16.159   2.247 -0.0230 -0.3683 -0.0012
 8276W        W11496  13.553   0.563   3.442 -0.1952 -0.1754 -0.1075
 8277W        W11497   0.207   3.781  15.306  0.1479 -0.1525  0.0622
 8278W        W11498   3.541  17.539   1.028  0.1505  0.2625 -0.3677
 8279W        W11499   6.662   1.266   5.258 -0.1092 -0.4784 -0.0311
 8280W        W11500   4.593  17.160   0.432 -0.2036 -0.2777 -0.1660
 8281W        W11501   4.797   2.333  14.465 -0.0434 -0.2011 -0.1695
 8282W        W11502   6.351  18.172   3.534  0.0207 -0.0828 -0.0684
 8283W        W11503  17.552   0.410   5.025  0.3091 -0.0067  0.3145
 8284W        W11504  17.757  16.488   6.979  0.0627  0.1985 -0.1445
 8285W        W11505   7.232   5.581   1.821  0.0934  0.0161  0.0891
 8286W        W11506   2.012  15.351   4.813 -0.0288  0.0734  0.1822
 8287W        W11507  12.555   1.010  16.546 -0.1782  0.1943 -0.1232
 8288W        W11508  18.147  14.745   1.756 -0.1678  0.1105 -0.1143
 8289W        W11509   3.153   1.055   8.810  0.2140 -0.0337  0.1285
 8290W        W11510   5.548  13.108   2.915  0.2939  0.0114 -0.3349
 8291W        W11511   4.257   8.280  16.332  0.0767  0.2376 -0.1560
 8292W        W11512   6.354   6.861  17.343 -0.0425  0.1412 -0.0168
 8293W        W11513  17.493  16.914   1.275 -0.1096  0.2304  0.3431
 8294W        W11514   4.915  15.699  18.251  0.0339  0.1568 -0.0017
 8295W        W11515  14.920  13.916  16.634  0.1033 -0.0970 -0.1071
 8296W        W11516   6.311  17.055   1.716  0.1092  0.1140 -0.1846
 8297W        W11517   7.750   4.129  14.835  0.0887  0.3328  0.1408
 8298W        W11518   3.885   4.032   5.793 -0.1662 -0.1469 -0.0342
 8299W        W11519   3.734  18.111   0.916  0.3266  0.2790  0.1775
 8300W        W11520   0.569   1.003  18.235  0.0507  0.1810  0.1219
 8301W        W11521  12.982  11.918   2.032 -0.0481  0.1285 -0.1254
 8302W        W11522   2.686   0.893   4.020  0.2388  0.1488  0.1709
 8303W        W11523  16.015  13.406   0.808  0.1504  0.1980  0.0006
 8304W        W11524   1.902   4.673   0.066  0.0096  0.0898 -0.0131
 8305W        W11525   7.329  14.927   1.654 -0.0638 -0.1071 -0.1083
 8306W        W11526   0.716   1.273   1.606 -0.1199 -0.1542 -0.2311
 8307W        W11527  13.561  14.560  12.548 -0.2818  0.1781 -0.0238
 8308W        W11528   7.265  14.050   5.685  0.0114 -0.0456 -0.0599
 8309W        W11529  11.202   1.252  13.350  0.0127  0.2088  0.1499
 8310W        W11530   3.969  14.392   1.987  0.0552 -0.0114 -0.1038
 8311W        W11531   1.652  12.813   6.775 -0.1461  0.0833  0.0877
 8312W        W11532   2.431  16.677  15.792 -0.4889  0.2246 -0.1104
 8313W        W11533   0.187   0.626   0.079 -0.1500 -0.0153  0.1911
 8314W        W11534   3.758   0.089   0.013 -0.1432  0.3138 -0.1462
 8315W        W11535   3.678  17.136   2.435 -0.0813  0.0718 -0.0251
 8316W        W11536  15.559   2.668  11.533  0.2632  0.0775  0.3969
 8317W        W11537   1.153  15.382   0.719  0.1996  0.3360  0.0515
 8318W        W11538   6.521   0.973  13.399 -0.2637 -0.0815  0.1757
 8319W        W11539   6.877   1.723  16.735 -0.0932  0.0107 -0.2409
 8320W        W11540   3.914  16.171   2.041  0.2408 -0.0591 -0.1345
 8321W        W11541   4.530   3.968  15.602  0.1188  0.2594 -0.1250
 8322W        W11542  13.381   7.827   3.954 -0.0238 -0.2756 -0.0784
 8323W        W11543   2.557  11.004   4.923 -0.0921 -0.1428  0.2810
 8324W        W11544   2.137  17.341   0.954  0.0728  0.1001 -0.1364
 8325W        W11545  15.135  13.022   8.024 -0.1278 -0.1793  0.1378
 8326W        W11546   2.704  14.769   8.301  0.1895 -0.0811 -0.1246
 8327W        W11547   8.361  17.375   2.054 -0.0300 -0.1512  0.2073
 8328W        W11548  15.850  16.647  17.229 -0.1895 -0.0176  0.2035
 8329W        W11549  13.834  12.633   8.989  0.2187  0.0107  0.1130
 8330W        W11550   2.497   9.617   5.632  0.2236  0.2612 -0.0063
 8331W        W11551   5.155  13.214   0.845 -0.0697 -0.2134 -0.0413
 8332W        W11552   3.866  15.687   3.005 -0.0869  0.1206  0.1263
 8333W        W11553   1.830   2.755   6.104 -0.0418 -0.1116  0.1430
 8334W        W11554   3.351  12.851   1.698 -0.1211  0.3305  0.0614
 8335W        W11555   1.220  14.888   6.115  0.3205 -0.1527  0.0733
 8336W        W11556   2.382  11.223   7.384  0.1175 -0.0700  0.2722
 8337W        W11557   1.078   2.483   0.908  0.1832  0.3301  0.1895
 8338W        W11558   6.489   3.060  15.144  0.0197 -0.0588  0.4408
 8339W        W11559  16.611  11.178   7.700  0.0603  0.0250  0.1549
 8340W        W11560   3.596   1.739  12.441 -0.1664  0.1171 -0.1303
 8341W        W11561   4.789  10.574   6.088  0.0508 -0.1668 -0.0452
 8342W        W11562   1.632  16.341   9.805 -0.1959 -0.1838  0.2403
 8343W        W11563   7.769  11.514  17.655  0.2271 -0.0225  0.2504
 8344W        W11564   4.462   8.510   3.502  0.0709  0.2049 -0.1190
 8345W        W11565   2.195   2.749   6.995 -0.0798  0.1247  0.0201
 8346W        W11566  17.675   4.905   3.445 -0.0327  0.0298  0.2897
 8347W        W11567   4.875   6.981   1.064  0.1654  0.2114  0.0606
 8348W        W11568   4.030  13.737  10.839  0.0108  0.0397 -0.2440
 8349W        W11569  11.434  13.343   3.243  0.2166 -0.1758  0.0949
 8350W        W11570   8.856  18.175  10.848 -0.1818  0.1978 -0.0672
 8351W        W11571   4.694  10.370   7.538  0.1043  0.0856 -0.0603
 8352W        W11572   2.578  16.643   8.800  0.0125  0.2367  0.1314
 8353W        W11573   0.428  18.181   2.797 -0.0027  0.0494  0.0459
 8354W        W11574   7.099   9.235   6.062  0.2299 -0.4433 -0.0219
 8355W        W11575  13.946  18.048   4.330 -0.3754  0.0896  0.1034
 8356W        W11576   1.184   3.908   3.956  0.0075 -0.0036  0.2424
 8357W        W11577   3.318  17.025   3.512  0.2367 -0.1606 -0.0654
 8358W        W11578   0.098  13.414   4.409  0.1745 -0.0132 -0.0015
 8359W        W11579   5.760  13.351   4.263  0.3162  0.0774  0.1278
 8360W        W11580   7.027  17.392  16.580  0.2511  0.0832 -0.0879
 8361W        W11581  15.717  15.957   7.782 -0.1664 -0.0398 -0.1650
 8362W        W11582  14.079  16.765   6.880 -0.0268  0.0129 -0.0672
 8363W        W11583   1.070  17.727   2.273  0.0558 -0.0525 -0.1196
 8364W        W11584   5.339  17.132   6.465  0.2652  0.0425  0.0931
 8365W        W11585   2.654  14.090   1.372  0.0201 -0.0090  0.2319
 8366W        W11586  17.845  17.181   6.603  0.2478  0.0933  0.2704
 8367W        W11587  13.907  15.150   8.256 -0.2610  0.1162  0.3008
 8368W        W11588  13.317  14.612   4.799 -0.0289 -0.2749 -0.1173
 8369W        W11589   0.886  12.556   6.229  0.0336  0.3160  0.0761
 8370W        W11590  17.838   0.426   7.842 -0.0672  0.2025 -0.2141
 8371W        W11591   6.643  14.663  10.545  0.1205  0.0809 -0.1655
 8372W        W11592  16.096  12.009   3.313 -0.1120  0.2083 -0.3200
 8373W        W11593  16.646  18.249   3.562 -0.0233  0.1223 -0.2651
 8374W        W11594   4.648  16.053   5.428 -0.3568 -0.1479  0.0980
 8375W        W11595  16.164   2.192   5.115 -0.1774 -0.0470  0.1153
 8376W        W11596  11.969  13.484  14.737 -0.0557  0.1643  0.0641
 8377W        W11597   6.244  17.149  10.082  0.2467 -0.1018  0.3014
 8378W        W11598   3.697   0.480   8.642  0.0075  0.2280  0.2605
 8379W        W11599  15.644  16.743   8.576 -0.1537 -0.3617 -0.3276
 8380W        W11600   4.475  13.926   3.136 -0.3350  0.0937 -0.1411
 8381W        W11601  17.073   8.469   1.907 -0.1487 -0.0452  0.3880
 8382W        W11602   4.690  17.940   7.709  0.0263 -0.0634 -0.3048
 8383W        W11603  17.292   4.476   0.182 -0.4911 -0.0642  0.0481
 8384W        W11604  15.951   5.987   8.448  0.0752 -0.0193 -0.3182
 8385W        W11605  12.855  15.380   6.602  0.0409  0.0054  0.1813
 8386W        W11606  12.686   1.048  12.239 -0.1605  0.0738 -0.0988
 8387W        W11607  12.628   0.409   2.296  0.1340 -0.0561 -0.3550
 8388W        W11608  10.373  12.011  12.460 -0.0055  0.2201  0.0231
 8389W        W11609   8.512  12.875   9.749  0.2337 -0.0035 -0.0565
 8390W        W11610  13.662  12.626   5.450 -0.2278 -0.1458  0.0682
 8391W        W11611  14.273   7.498   1.831 -0.1493  0.1752 -0.1509
 8392W        W11612   6.938   9.716   3.552  0.2599  0.0361  0.2252
 8393W        W11613   0.985  14.340   4.994  0.1778  0.0095 -0.1288
 8394W        W11614  17.707   1.785   7.339  0.0018 -0.2232  0.0043
 8395W        W11615   7.837  11.117   3.962 -0.2752 -0.0238 -0.0818
 8396W        W11616  14.548  14.637  11.397 -0.1911 -0.0699 -0.0866
 8397W        W11617  17.323  18.067  11.500  0.0591  0.0775  0.0253
 8398W        W11618   4.261   0.667   5.875  0.1397  0.4311 -0.1118
 8399W        W11619  16.771   2.237   8.689  0.0089  0.3523 -0.3212
 8400W        W11620   1.513  18.040  17.377 -0.0331 -0.0340  0.1096
 8401W        W11621   0.155   0.811   0.885  0.2027 -0.0381 -0.0443
 8402W        W11622   1.110   9.414   3.944  0.1313 -0.1622  0.0145
 8403W        W11623   7.443  16.188   5.625 -0.2031 -0.2562  0.0515
 8404W        W11624   2.391  17.134   1.732 -0.4140 -0.4831  0.2115
 8405W        W11625  17.564  10.243   5.325 -0.3822  0.1481 -0.3022
 8406W        W11626  17.870  16.881  11.515 -0.0551  0.2132 -0.0611
 8407W        W11627   7.727  14.406  15.575 -0.0436  0.0600  0.0401
 8408W        W11628   0.668   8.637   4.771 -0.0079  0.0539  0.1972
 8409W        W11629   4.967  17.499   5.660  0.0911  0.1358 -0.1211
 8410W        W11630   0.425  12.065  10.493  0.0325 -0.1075 -0.0515
 8411W        W11631   2.879  15.688   2.713  0.1171 -0.4262  0.2226
 8412W        W11632   5.846  16.005  12.609 -0.1117 -0.1778 -0.4012
 8413W        W11633   2.929  12.276   3.222 -0.0221  0.1488  0.3869
 8414W        W11634   5.166  14.570   9.186 -0.1045 -0.1779  0.2489
 8415W        W11635  16.474  14.994   0.001 -0.1565 -0.0304  0.2091
 8416W        W11636  15.725  16.864   0.875  0.1826  0.0744 -0.1295
 8417W        W11637   7.653  13.797  11.229 -0.1138  0.0449  0.1106
 8418W        W11638   6.933  16.410   0.305 -0.2183 -0.0194 -0.0173
 8419W        W11639  16.581   5.211  13.880 -0.1781  0.2302 -0.3060
 8420W        W11640   3.042  17.710   5.885 -0.1899  0.1357  0.0815
 8421W        W11641  12.900   9.748   7.042 -0.0267 -0.0763  0.0859
 8422W        W11642  16.314   3.969   9.301 -0.1085  0.1424  0.1048
 8423W        W11643   8.887  10.581  15.099 -0.1994 -0.0832  0.1156
 8424W        W11644  12.148  17.864  11.026  0.1271  0.2667  0.0995
 8425W        W11645  17.691  16.026   4.381 -0.0179 -0.2172 -0.5428
 8426W        W11646   2.119  18.219   9.480  0.0113  0.0944  0.1539
 8427W        W11647   3.498  13.702  10.833  0.0601 -0.1462 -0.0079
 8428W        W11648   4.935  12.979   6.016  0.1769 -0.0622 -0.0696
 8429W        W11649  17.904  13.055   2.072 -0.1496 -0.1406 -0.1882
 8430W        W11650  17.346  17.275   7.382  0.0411 -0.0351 -0.3226
 8431W        W11651   4.393  10.458  14.640  0.1973  0.0312 -0.0861
 8432W        W11652  17.392  17.970   3.717  0.2258  0.0782 -0.0151
 8433W        W11653   3.453  15.574   0.900 -0.0858 -0.2044  0.0832
 8434W        W11654  13.888  18.193   7.502 -0.0179  0.0691  0.2222
 8435W        W11655  13.587   1.741  15.889  0.1162 -0.0003  0.0381
 8436W        W11656   6.342   1.468   3.489 -0.3734  0.1728  0.2754
 8437W        W11657  18.110  18.007   9.124  0.0827  0.0612  0.4671
 8438W        W11658  15.447   1.890   5.172 -0.0172 -0.3394 -0.2548
 8439W        W11659  10.104  13.434   1.955  0.0800  0.0228 -0.0700
 8440W        W11660   5.536  13.697   5.815  0.2814  0.1110  0.2226
 8441W        W11661  15.185  16.938   8.505 -0.1003 -0.1197 -0.0015
 8442W        W11662   1.928  14.756  18.201  0.1169  0.1608 -0.0713
 8443W        W11663   1.986  13.646  17.489 -0.0103  0.0852  0.0180
 8444W        W11664   3.301  17.621   0.475  0.1475 -0.0455 -0.2920
 8445W        W11665   0.324  17.201   6.356 -0.2738 -0.0437  0.0349
 8446W        W11666   8.441  16.379   1.228 -0.4364 -0.1801 -0.0988
 8447W        W11667   4.459   3.929   6.738 -0.2117  0.2152 -0.0767
 8448W        W11668  15.997  11.474   5.489 -0.0940 -0.1732  0.0297
 8449W        W11669  16.767  11.181   4.954  0.1701 -0.0692  0.0763
 8450W        W11670  17.160  14.543   6.854  0.0037 -0.3753  0.2465
 8451W        W11671  16.730   2.897   5.104 -0.0935  0.0362  0.0781
 8452W        W11672   0.669  17.110  10.202 -0.1957 -0.1864  0.4336
 8453W        W11673  16.953   3.820   5.125  0.0808 -0.0544  0.1744
 8454W        W11674  16.961  12.411   9.928 -0.2672 -0.0627 -0.0020
 8455W        W11675   4.898  14.856   0.441  0.2356 -0.0364 -0.0449
 8456W        W11676   0.847   8.922   5.348  0.2715 -0.2766  0.0445
 8457W        W11677   1.269   3.335  11.440  0.1118 -0.2289  0.2046
 8458W        W11678  12.661  16.360   6.772  0.2170  0.1115 -0.1092
 8459W        W11679  11.258  14.287   5.815  0.5565  0.4028 -0.2294
 8460W        W11680  14.775  14.956   9.082 -0.3325  0.2089  0.1672
 8461W        W11681  12.543   0.678   1.888 -0.3342 -0.1494  0.1646
 8462W        W11682  16.187  11.264   4.086 -0.0694 -0.6436 -0.3515
 8463W        W11683   6.587  18.056   1.554 -0.0401 -0.0191 -0.4495
 8464W        W11684   5.025   0.912   7.970  0.1051 -0.0504  0.1834
 8465W        W11685  17.803  13.701   5.015 -0.2915  0.2217  0.0788
 8466W        W11686   5.991  15.035   4.470 -0.1516 -0.0478  0.1230
 8467W        W11687   4.406  14.074   0.360 -0.1733  0.3176 -0.1923
 8468W        W11688  17.841  16.199   1.999 -0.1225  0.0936  0.0023
 8469W        W11689   3.774   3.186   3.608  0.0351 -0.2577  0.1501
 8470W        W11690   4.686  10.152   8.566  0.0708  0.3911 -0.2481
 8471W        W11691  14.435  15.471   3.955  0.1220 -0.1148  0.0209
 8472W        W11692   2.717   2.616   3.095  0.0014 -0.2180  0.0504
 8473W        W11693   2.604   8.808   9.452  0.1965 -0.0418 -0.4643
 8474W        W11694   3.679  16.891   4.927  0.1141 -0.1805  0.1163
 8475W        W11695  17.671  15.727   1.550  0.1129 -0.1421 -0.0821
 8476W        W11696   4.441  16.451   2.290 -0.0873 -0.0501  0.2113
 8477W        W11697  16.943  17.689   8.351  0.0291  0.0084  0.1254
 8478W        W11698  10.469  17.607   8.870  0.2242  0.1105 -0.0400
 8479W        W11699  16.854  15.712   5.245  0.0316 -0.0046 -0.0380
 8480W        W11700   0.203  18.142   4.109  0.1643  0.0684 -0.3197
 8481W        W11701  15.728  17.980  11.131 -0.2267 -0.1939 -0.0635
 8482W        W11702   9.025   3.012   8.062  0.0651 -0.1051 -0.0034
 8483W        W11703  17.873  12.269  10.784 -0.0107 -0.0936 -0.0568
 8484W        W11704  14.706  12.450   8.804  0.2370 -0.1084  0.2310
 8485W        W11705   1.154  13.077   5.943  0.3217 -0.0600  0.2415
 8486W        W11706   0.123   8.393   5.558 -0.2707 -0.0058  0.1580
 8487W        W11707   0.514  14.843  17.745  0.1280  0.1578  0.2399
 8488W        W11708  15.978   1.806   2.670 -0.0276 -0.1730 -0.1015
 8489W        W11709   3.881  13.960  11.989  0.0185  0.1569  0.1460
 8490W        W11710  17.987  16.240   0.416 -0.1506 -0.1903 -0.1551
 8491W        W11711   2.115  12.030   6.313  0.0391 -0.2250 -0.0477
 8492W        W11712   1.330  18.107   5.089 -0.2125  0.3344 -0.1443
 8493W        W11713  17.672  15.152  11.353 -0.0802 -0.1049 -0.0022
 8494W        W11714   6.235   2.478   1.664  0.1018 -0.0112 -0.1321
 8495W        W11715   3.421   6.261   3.686 -0.1719 -0.2169  0.0142
 8496W        W11716  17.246  12.341   3.256 -0.3133  0.0410  0.1052
 8497W        W11717  13.441  10.567   2.107  0.2655  0.0689 -0.0508
 8498W        W11718   4.886  14.925  16.304 -0.1948 -0.3344 -0.1243
 8499W        W11719  12.480   2.565   2.424  0.1221 -0.0976 -0.0435
 8500W        W11720   2.975   0.007   5.892 -0.1196 -0.2253  0.0907
 8501W        W11721   4.399   6.294  10.687  0.2042  0.0893  0.0559
 8502W        W11722   2.882   0.153   9.095  0.0052  0.1861  0.2230
 8503W        W11723   8.433  10.341  10.052 -0.0348 -0.0547  0.0322
 8504W        W11724   3.751  13.999   4.632  0.1652  0.0621 -0.0305
 8505W        W11725   2.836   5.499   5.336 -0.2084  0.1399 -0.0774
 8506W        W11726  16.935  15.754   9.033 -0.2152 -0.1039 -0.0127
 8507W        W11727  12.404   7.128   4.986 -0.1132  0.1906 -0.0810
 8508W        W11728   5.488   7.646   0.620 -0.0030  0.1179  0.1446
 8509W        W11729   0.584   1.375   6.301 -0.0282 -0.0773 -0.4267
 8510W        W11730  10.888   5.306   1.838 -0.1054  0.1196  0.0162
 8511W        W11731  13.876  12.433   6.498  0.1819 -0.0917  0.2792
 8512W        W11732   3.366  13.713   1.407 -0.1454  0.2779 -0.3302
 8513W        W11733   4.289  13.807   3.924  0.2098 -0.1406  0.0931
 8514W        W11734   2.914  13.372   6.396 -0.1242  0.1637  0.3399
 8515W        W11735  16.737   0.763   4.478 -0.2722 -0.0274  0.0225
 8516W        W11736   2.110  11.988   7.245  0.4106  0.0370 -0.1779
 8517W        W11737   3.787  14.166   9.689 -0.1893  0.0382  0.3593
 8518W        W11738  13.950  16.078  17.632  0.0507 -0.1072  0.0378
 8519W        W11739  14.070  15.641   3.169  0.1633 -0.4829  0.1002
 8520W        W11740   1.375  17.346   2.386 -0.1546 -0.1274  0.2671
 8521W        W11741   1.148   6.021   5.098  0.2122 -0.1547  0.4572
 8522W        W11742   2.035  17.001   4.906  0.2297  0.0734  0.0114
 8523W        W11743   0.674  14.256   8.157  0.2287 -0.5414 -0.0277
 8524W        W11744  12.374  10.692   1.528  0.0585 -0.2053  0.0455
 8525W        W11745   4.871  10.424   4.464  0.2912  0.2372 -0.0336
 8526W        W11746   4.278  14.866  13.376 -0.2442 -0.1238 -0.0566
 8527W        W11747   4.050  17.208   6.782  0.0332  0.3584 -0.1146
 8528W        W11748  12.711  12.865   3.445  0.0783  0.2584 -0.2159
 8529W        W11749  17.153  18.237   6.299 -0.1713 -0.0582 -0.0222
 8530W        W11750  16.327  12.916   3.019 -0.3019 -0.1278 -0.0687
 8531W        W11751   5.465   9.629   7.509  0.3798 -0.1059 -0.0264
 8532W        W11752  13.961  13.007   6.026  0.0498 -0.2766  0.0112
 8533W        W11753   0.574  14.286  10.894 -0.1079  0.2520 -0.0518
 8534W        W11754  10.642   3.569  18.102 -0.1767 -0.2207 -0.1221
 8535W        W11755  15.389  17.726   6.530 -0.1002 -0.1923  0.1370
 8536W        W11756   2.089   3.836   1.748 -0.0114 -0.3481 -0.2588
 8537W        W11757  16.235  16.897  16.671 -0.2786  0.0081 -0.0815
 8538W        W11758   3.462   1.103   5.276  0.2293 -0.2099  0.4024
 8539W        W11759   6.299  15.241   3.210  0.0689 -0.0643 -0.1404
 8540W        W11760   0.355  17.648   6.915 -0.2507  0.2005  0.1041
 8541W        W11761   0.408  14.736  10.838 -0.2382  0.3623  0.0681
 8542W        W11762   7.450  11.498   0.296 -0.2307  0.0784 -0.4261
 8543W        W11763   3.306   1.918   1.862  0.2373  0.1396  0.0528
 8544W        W11764  17.040  12.634   3.715  0.1748  0.1803 -0.1321
 8545W        W11765  15.884   6.866   1.324 -0.3767  0.1222  0.0206
 8546W        W11766   7.779   2.967   2.320  0.4495 -0.0075  0.0875
 8547W        W11767   1.637   2.183   5.893  0.1438  0.1156 -0.1761
 8548W        W11768   3.431   0.563  17.365 -0.1932 -0.1853 -0.3295
 8549W        W11769  16.690   0.974   9.085  0.0269  0.1851 -0.0536
 8550W        W11770   0.616   4.419  10.300  0.1650 -0.1833 -0.2078
 8551W        W11771   2.219  14.159   6.313  0.0157 -0.1381 -0.2167
 8552W        W11772   1.365   1.487   8.964 -0.2616  0.1950  0.0130
 8553W        W11773  16.881  16.178   9.888  0.0324 -0.1498  0.1434
 8554W        W11774   2.349  16.131  16.334  0.0990 -0.0953  0.0414
 8555W        W11775   0.726   2.657   9.620  0.0655 -0.0417  0.2289
 8556W        W11776   6.891  14.962   7.832  0.3801 -0.1460 -0.4729
 8557W        W11777   2.696   1.010   9.084  0.0914  0.3676 -0.1069
 8558W        W11778   7.178  16.287   2.534 -0.2774 -0.0601 -0.0678
 8559W        W11779   3.165  14.693   5.646  0.0973 -0.0341  0.1006
 8560W        W11780  15.752  13.704  10.172 -0.0151  0.1232 -0.2838
 8561W        W11781  15.329  16.151  14.059 -0.2246 -0.2346 -0.1489
 8562W        W11782   3.288   3.264   0.093 -0.2732 -0.0053  0.0371
 8563W        W11783   1.157   8.055   7.533  0.0403 -0.2859 -0.0611
 8564W        W11784   3.163  13.570   8.740  0.0370  0.0409  0.0800
 8565W        W11785  14.696  10.844   5.148  0.0511 -0.0180  0.2321
 8566W        W11786  16.977   1.381   1.664  0.1097 -0.3693  0.1416
 8567W        W11787   0.820   5.387  11.179  0.2135 -0.1445  0.0986
 8568W        W11788  13.207  15.636   1.351 -0.2370 -0.1873  0.2015
 8569W        W11789   0.430   2.125   5.156  0.2987  0.0112  0.2060
 8570W        W11790   1.348   0.000   1.719 -0.1463 -0.2429 -0.3957
 8571W        W11791   0.573   0.638  14.824 -0.0172  0.1270  0.2932
 8572W        W11792  14.988  12.049   7.879 -0.0116  0.0700  0.0982
 8573W        W11793   7.734   0.496  10.078  0.1081  0.2628  0.0292
 8574W        W11794   9.943  13.215  17.152  0.3024  0.0099 -0.2939
 8575W        W11795  17.632  16.050  10.089  0.1364 -0.2252  0.0064
 8576W        W11796  13.887   1.959  10.776  0.1506  0.0232 -0.3523
 8577W        W11797   2.710  13.230   5.342  0.3019 -0.1044 -0.0032
 8578W        W11798   1.700  13.525   2.447 -0.0126 -0.0970 -0.0239
 8579W        W11799   7.937  16.544   1.197 -0.1221  0.1083 -0.0315
 8580W        W11800  17.650  14.532   7.967 -0.0646 -0.1012 -0.0197
 8581W        W11801   3.054  12.276  12.497 -0.0847  0.3327 -0.2236
 8582W        W11802   1.138  16.064   3.165  0.1128 -0.1824 -0.1064
 8583W        W11803  15.570   1.457   1.451 -0.2890 -0.1014  0.1656
 8584W        W11804   3.608   0.623   5.312 -0.1299  0.4434 -0.0913
 8585W        W11805   3.298  10.633   2.985 -0.1297  0.2405 -0.2024
 8586W        W11806  11.765  17.645   3.825 -0.0179  0.1176 -0.1462
 8587W        W11807  17.249  15.677   3.748 -0.1477 -0.3055  0.1976
 8588W        W11808  15.717   8.346   1.756 -0.1180  0.2357  0.0709
 8589W        W11809   3.555   0.971   0.339 -0.0598  0.1431  0.0999
 8590W        W11810   3.806   9.818   4.977  0.1437 -0.1607  0.0540
 8591W        W11811   7.891   3.252   1.427  0.0308  0.0439  0.1738
 8592W        W11812  17.534  11.698  10.065 -0.3015 -0.0888 -0.2198
 8593W        W11813   5.092   8.847   6.471  0.0285 -0.0622  0.2373
 8594W        W11814   1.940  10.341   9.939 -0.0193  0.1476  0.0218
 8595W        W11815  14.712  15.807   4.848 -0.2053  0.3886  0.2032
 8596W        W11816  14.223  17.617   3.225 -0.1475 -0.0985 -0.2146
 8597W        W11817  14.880  15.845   7.146  0.0980  0.0934  0.1195
 8598W        W11818   3.808  16.418  17.070 -0.0858 -0.1788 -0.1507
 8599W        W11819   0.019  15.071   1.144 -0.2728  0.0157  0.0459
 8600W        W11820  16.938   5.336   4.842 -0.0002 -0.1883 -0.0102
 8601W        W11821   9.307  15.816   4.721 -0.3934 -0.0307 -0.1309
 8602W        W11822   5.589   5.678  14.142 -0.0601 -0.3990  0.2833
 8603W        W11823   6.737  17.989  11.949 -0.2201  0.0080 -0.1897
 8604W        W11824  15.280  15.868   4.696  0.1181 -0.1354 -0.0950
 8605W        W11825   5.902  15.715  18.268  0.0373  0.1340 -0.2987
 8606W        W11826   2.201   1.947   3.607  0.3876 -0.1415 -0.0691
 8607W        W11827   1.637  14.955  15.855 -0.2526  0.0098 -0.1175
 8608W        W11828  16.168   1.278  11.238 -0.1225 -0.0976 -0.2984
 8609W        W11829   5.038  12.534   1.337  0.2530 -0.3229 -0.3145
 8610W        W11830   7.345  10.380   9.598 -0.3417 -0.1449  0.0841
 8611W        W11831  18.012  11.650   3.290  0.1672  0.2450 -0.1850
 8612W        W11832   5.265   0.984   1.999 -0.0741  0.2163 -0.2379
 8613W        W11833   0.619   1.556  11.467  0.1439 -0.0882  0.0647
 8614W        W11834   8.356  15.181   3.962 -0.2494  0.1853 -0.0774
 8615W        W11835   3.659  16.229   0.345 -0.0314 -0.0882 -0.0343
 8616W        W11836   6.985   7.497   7.934 -0.0162  0.1508 -0.4731
 8617W        W11837  15.175  18.185   4.583 -0.1591 -0.3746  0.0690
 8618W        W11838  17.653  12.798   0.303 -0.0489 -0.0609  0.4794
 8619W        W11839  11.966  12.287   9.234 -0.1094 -0.0692 -0.2514
 8620W        W11840   5.237  14.998   5.603  0.3580  0.1142  0.0003
 8621W        W11841   6.124  13.328  16.553  0.2701  0.1401 -0.2629
 8622W        W11842   8.114  16.674   0.347 -0.0574  0.1114 -0.1580
 8623W        W11843   0.567   0.794   4.107  0.1234 -0.0939 -0.0274
 8624W        W11844  13.531   1.377   7.447 -0.0328 -0.1012  0.0428
 8625W        W11845   2.468  15.279  13.994 -0.2128  0.1037  0.0295
 8626W        W11846  15.978  16.952   6.736 -0.1826  0.5053 -0.0868
 8627W        W11847   8.950  16.806   6.680 -0.2031  0.4678 -0.0990
 8628W        W11848   6.921  16.556  17.081 -0.0795 -0.0580 -0.0621
 8629W        W11849   3.992  15.177   3.630  0.0048 -0.1573 -0.2283
 8630W        W11850  14.536  15.028  11.086 -0.0262  0.1025 -0.3112
 8631W        W11851  14.591  17.226   0.953  0.1599  0.0668 -0.2776
 8632W        W11852  16.378  16.350   3.723 -0.4743 -0.0230  0.2156
 8633W        W11853  15.587   7.237   2.090  0.4416 -0.0133 -0.0513
 8634W        W11854  17.458  16.627   4.390 -0.0855 -0.1483  0.2292
 8635W        W11855   1.044  18.041   2.739  0.0450  0.1164  0.1922
 8636W        W11856   5.907  16.889  15.375  0.0343 -0.2768  0.2364
 8637W        W11857  16.884   2.170   9.625  0.2549 -0.0785  0.0657
 8638W        W11858   5.071   1.438   2.081  0.1432  0.4243  0.2489
 8639W        W11859   2.942   1.390   6.876 -0.0428 -0.1580  0.0450
 8640W        W11860  17.545  18.069   7.942 -0.4042 -0.0949 -0.0350
 8641W        W11861  14.987  16.853  18.211 -0.1669  0.2279  0.0248
 8642W        W11862  15.839   1.323   8.789 -0.1301  0.0915  0.1426
 8643W        W11863   5.154   2.450   6.178 -0.0625  0.2789 -0.0712
 8644W        W11864  18.249  15.293   6.722 -0.1206  0.1861 -0.1135
 8645W        W11865  14.920  17.610   4.978  0.2274 -0.0913 -0.0028
 8646W        W11866   2.064   0.098   9.993  0.1667 -0.0926 -0.0640
 8647W        W11867   5.696  11.553   6.260  0.1413 -0.0893 -0.1739
 8648W        W11868   6.030   8.927   2.547 -0.4253 -0.2384 -0.1522
 8649W        W11869   8.216  15.172   2.614 -0.2630 -0.1644 -0.0584
 8650W        W11870   4.689  17.917  15.960  0.4634 -0.2239 -0.0951
 8651W        W11871   0.837  10.809  13.028 -0.0495 -0.3665 -0.1440
 8652W        W11872  10.736  10.883   3.056  0.1437  0.1226  0.2047
 8653W        W11873  17.287  13.396   4.467 -0.0492  0.0413  0.1148
 8654W        W11874  17.995   1.450  11.286 -0.3447 -0.1115 -0.0318
 8655W        W11875   3.425   2.554   0.948  0.1998  0.3319 -0.3804
 8656W        W11876   2.369  12.889   5.630 -0.0591  0.2377 -0.1168
 8657W        W11877   5.131  14.431   3.009  0.1505  0.1144 -0.0917
 8658W        W11878   5.463  17.479   0.942 -0.3250 -0.0148 -0.0003
 8659W        W11879   1.142   2.672  16.695 -0.0794  0.0843 -0.0912
 8660W        W11880   0.613  10.271   6.113 -0.3798  0.2801  0.0854
 8661W        W11881   1.098   5.380   2.021  0.0894  0.1881 -0.0808
 8662W        W11882   4.578  14.526   0.653  0.0016 -0.1898  0.0718
 8663W        W11883   0.478   0.248   1.609 -0.2072 -0.2373 -0.3894
 8664W        W11884  11.705  14.481   5.665 -0.2730 -0.3903 -0.1938
 8665W        W11885   0.019  14.511   0.732  0.0600  0.1487  0.1964
 8666W        W11886  17.167  17.927   5.141 -0.0935  0.1340 -0.2853
 8667W        W11887   3.638  14.847   8.731  0.2075 -0.0392 -0.0097
 8668W        W11888  10.986  11.090   5.384 -0.2460  0.3316 -0.1584
 8669W        W11889   1.177  14.487   6.373  0.0151  0.0591 -0.1454
 8670W        W11890   2.196  15.639   3.998 -0.0346  0.4599 -0.0329
 8671W        W11891   2.610   3.135   5.954  0.2960  0.1719 -0.2010
 8672W        W11892   3.076   1.416   5.186  0.3690  0.0855 -0.2843
 8673W        W11893   1.675   3.315   3.533  0.1141  0.0923  0.5372
 8674W        W11894   0.335  16.011   5.273  0.0529  0.0516 -0.1175
 8675W        W11895   6.294   8.552  11.664  0.1204 -0.3321  0.1920
 8676W        W11896   2.706  11.338   5.320  0.2174 -0.0793  0.0747
 8677W        W11897  16.092   3.736  10.718 -0.0724 -0.0731 -0.1584
 8678W        W11898   1.875   0.624   8.505 -0.1638 -0.1338 -0.1293
 8679W        W11899   1.747   9.344   1.427 -0.0502 -0.3158 -0.1685
 8680W        W11900   0.507   4.332   9.022  0.1473 -0.0788  0.2495
 8681W        W11901   0.250   1.162   3.995 -0.2400 -0.3784  0.1147
 8682W        W11902  12.929  17.180  17.942  0.0783  0.0018  0.2709
 8683W        W11903   0.661  15.144   8.141  0.2344  0.0519  0.0601
 8684W        W11904   1.265  15.706   5.468 -0.0634  0.2464 -0.1467
 8685W        W11905   0.333  13.310   2.955 -0.0045 -0.0265 -0.0276
 8686W        W11906  16.647  17.980   6.562 -0.1923 -0.2704  0.0117
 8687W        W11907   1.793  13.802   6.380  0.1798  0.0704  0.0400
 8688W        W11908   0.222  13.906  11.181  0.0401 -0.0638 -0.1952
 8689W        W11909   1.808  13.549   5.531 -0.1102 -0.1198 -0.1854
 8690W        W11910  11.921   0.465   4.586 -0.1704 -0.3889 -0.0336
 8691W        W11911   3.862  12.688   3.108  0.2349 -0.1754 -0.0594
 8692W        W11912   8.925   3.835   6.683  0.1050  0.0980 -0.4494
 8693W        W11913  17.137   0.476  10.923  0.0314 -0.0839 -0.4938
 8694W        W11914  17.926   3.080   2.177 -0.0329  0.0569  0.0495
 8695W        W11915   2.704   5.883   2.857  0.0481  0.1170 -0.0826
 8696W        W11916  16.951  13.282  14.466 -0.0480  0.1185  0.3187
 8697W        W11917  15.153  15.866   2.015  0.1814  0.0451 -0.1360
 8698W        W11918  16.520  15.796  11.592 -0.1646 -0.0403 -0.1565
 8699W        W11919   9.589   0.793   1.504 -0.0523  0.2667 -0.1669
 8700W        W11920   7.346  16.685   0.115 -0.1964  0.2668  0.1851
 8701W        W11921   3.801  17.715   6.102  0.1062  0.2940  0.0668
 8702W        W11922   9.340  15.775  15.873 -0.1113 -0.1292  0.0326
 8703W        W11923  10.696  16.737   7.444  0.1569 -0.0620  0.1655
 8704W        W11924   4.788  12.499   2.462 -0.1695 -0.0783  0.1279
 8705W        W11925   4.477   4.438   4.727  0.0439 -0.0604 -0.2167
 8706W        W11926   0.990  10.453   9.796  0.2180  0.1371 -0.4300
 8707W        W11927   6.418  14.037  17.617  0.0152  0.0899  0.2003
 8708W        W11928   5.851   9.071   8.066  0.2912  0.1185 -0.3118
 8709W        W11929   5.256  13.153   6.882  0.0854 -0.2823 -0.1418
 8710W        W11930   7.689   1.129   2.601  0.0390 -0.2075  0.3681
 8711W        W11931  15.439  16.828   2.113  0.0390 -0.1516  0.1123
 8712W        W11932   6.171   2.557   0.563 -0.1066 -0.0964 -0.0088
 8713W        W11933  17.620   0.236   4.506  0.1080  0.2093 -0.0721
 8714W        W11934   4.078  11.228   2.123  0.2055  0.1635  0.0819
 8715W        W11935  16.105  17.062   4.988  0.0951 -0.0309 -0.1240
 8716W        W11936   7.309  17.378   7.158 -0.0208  0.2127 -0.2133
 8717W        W11937   2.075  14.593   4.753  0.2845  0.1017  0.1346
 8718W        W11938  14.528  13.858  10.013 -0.2209 -0.1060  0.2772
 8719W        W11939   0.973  17.538  12.662 -0.0568 -0.2166 -0.2694
 8720W        W11940   6.264   4.267   8.778  0.1517 -0.0387 -0.1549
 8721W        W11941  14.317  16.576  15.456 -0.0839  0.1982  0.2395
 8722W        W11942  17.764   0.051   2.552 -0.3313  0.2352 -0.2432
 8723W        W11943   2.115  12.891   6.728 -0.5762 -0.2777 -0.1252
 8724W        W11944   0.170  15.527   0.545 -0.1692 -0.1972  0.1318
 8725W        W11945   3.958   1.411   6.251  0.2864 -0.1412 -0.0629
 8726W        W11946   0.682  11.312  13.940  0.2283 -0.0170  0.1549
 8727W        W11947   1.262   2.208  14.823  0.2887 -0.2146  0.2315
 8728W        W11948  16.988  11.409   6.866 -0.2194 -0.3042  0.0527
 8729W        W11949  14.411   1.128  11.051  0.1912  0.0797  0.3095
 8730W        W11950  11.503   0.660   5.414  0.0705 -0.1898 -0.1275
 8731W        W11951   8.081  17.970   7.364  0.0966  0.0514  0.0472
 8732W        W11952  13.121  12.589  12.218  0.0405 -0.1193  0.2184
 8733W        W11953   8.300  16.178  10.524  0.0234 -0.1765  0.0567
 8734W        W11954   2.655  12.892   0.989 -0.0274  0.0326  0.3488
 8735W        W11955   0.025  13.322  13.325 -0.1092 -0.0533 -0.1432
 8736W        W11956   0.787  13.028   6.944 -0.0874  0.0972 -0.2447
 8737W        W11957   5.090  15.469  12.151 -0.2843 -0.2646 -0.0165
 8738W        W11958   4.908  11.851   9.241  0.0402 -0.0246 -0.0284
 8739W        W11959   1.606  17.786  10.115 -0.0409  0.0004 -0.2064
 8740W        W11960   3.794  16.951  11.764 -0.0419  0.1216  0.3657
 8741W        W11961  16.435  12.074   8.635  0.1212  0.0453  0.3997
 8742W        W11962  16.576  14.259  14.706  0.1670 -0.0184 -0.0100
 8743W        W11963   4.633   5.066   0.727  0.1568  0.3541  0.1979
 8744W        W11964  15.770  12.243  11.522  0.1845  0.2483 -0.3327
 8745W        W11965   1.368   0.291  10.666  0.1339 -0.0878  0.1007
 8746W        W11966   0.709   3.096  12.253  0.2393  0.0822  0.0296
 8747W        W11967  16.265   0.797   4.692 -0.0428  0.0964 -0.0795
 8748W        W11968   4.671  12.580   7.180  0.1291  0.0638 -0.1029
 8749W        W11969  18.070   3.039   6.676 -0.0260 -0.1353 -0.0974
 8750W        W11970   1.000  12.945   6.520  0.0800 -0.3630  0.0266
 8751W        W11971  13.188  13.281  10.363 -0.0903  0.0676  0.0543
 8752W        W11972   5.907   2.380   9.701  0.2181 -0.3717 -0.1078
 8753W        W11973  18.087  11.713  13.791  0.1232 -0.0150  0.1148
 8754W        W11974   5.014  15.946  10.980 -0.1533  0.4099 -0.1489
 8755W        W11975  16.608  14.844   9.295  0.0900  0.2625 -0.0718
 8756W        W11976   0.967  17.877   4.801 -0.0150  0.1492 -0.1241
 8757W        W11977   0.211  13.335   2.119  0.1709 -0.0105 -0.0267
 8758W        W11978  11.595   1.787   8.004 -0.0482  0.2886 -0.2530
 8759W        W11979   4.389  17.485   5.418  0.1146 -0.0783  0.0383
 8760W        W11980  15.810  14.820   5.257  0.0118 -0.1066 -0.0562
 8761W        W11981  15.979   4.788   9.811 -0.0879 -0.0208  0.1853
 8762W        W11982  17.229  16.768  15.119 -0.0514 -0.2983  0.2289
 8763W        W11983   2.856  18.099  11.718  0.0556  0.0922  0.0101
 8764W        W11984   3.867  14.788   5.902 -0.2085 -0.1549  0.1643
 8765W        W11985  15.045  17.320  11.542  0.0257 -0.2270  0.0077
 8766W        W11986   4.796  15.211   7.318  0.0387  0.0909 -0.1379
 8767W        W11987  17.515   2.078   5.890 -0.2701  0.1294  0.2189
 8768W        W11988  13.354  17.902  12.988  0.3499 -0.1955  0.2319
 8769W        W11989  10.465  17.984   8.050 -0.3497  0.1522 -0.0692
 8770W        W11990   1.421  12.664   7.318  0.0605  0.3578  0.3598
 8771W        W11991  15.530  12.374   4.786  0.2081  0.2805 -0.1558
 8772W        W11992   3.748   0.562   2.794 -0.1538 -0.1288 -0.2911
 8773W        W11993   2.961  17.629   8.267  0.1962 -0.0165 -0.1103
 8774W        W11994   0.941   2.211  10.373 -0.3098  0.1898 -0.2216
 8775W        W11995  12.839  17.806   4.310  0.1640  0.0575  0.0708
 8776W        W11996   6.197   0.584  14.279  0.2392  0.2887  0.2171
 8777W        W11997   4.377  13.032   5.326 -0.0153 -0.1044 -0.2617
 8778W        W11998   2.980  13.316   3.100  0.1317  0.0482 -0.0999
 8779W        W11999  16.362  16.036  13.263 -0.0097  0.2465 -0.1956
 8780W        W12000  16.749  14.830   3.248 -0.0198  0.0166  0.0427
 8781W        W12001   0.217   5.557   5.379  0.0610 -0.2962 -0.2374
 8782W        W12002  16.299  11.411   6.361 -0.2653  0.3359  0.3256
 8783W        W12003   1.938  17.149   6.753 -0.2156  0.1523  0.1825
 8784W        W12004   5.879  11.263  12.464  0.0578 -0.1019 -0.3580
 8785W        W12005   7.889  10.148   7.583  0.2244  0.1282  0.2190
 8786W        W12006  14.718   3.507  12.918  0.0128 -0.0616  0.0573
 8787W        W12007   2.061  16.749  11.526 -0.0939 -0.2137  0.0258
 8788W        W12008  17.995  15.710  14.253 -0.1879 -0.1518 -0.0586
 8789W        W12009   7.964  14.792   7.192  0.0893 -0.0572  0.1327
 8790W        W12010   3.544  18.155   3.360 -0.0343  0.0829 -0.2897
 8791W        W12011  16.265   5.857  17.261  0.3518 -0.0756  0.0295
 8792W        W12012  15.509  11.051  14.584 -0.0387 -0.0584 -0.1268
 8793W        W12013   0.530  13.819  15.899  0.0244  0.1428 -0.1628
 8794W        W12014   1.295   2.423  13.806  0.0692 -0.0537  0.2041
 8795W        W12015   4.998  17.867  15.556 -0.1422  0.2413  0.3791
 8796W        W12016   7.893  10.507   5.793  0.0910  0.2678  0.0523
 8797W        W12017   1.740  17.023   7.306  0.1341 -0.1497  0.0608
 8798W        W12018   0.946  12.338  10.467  0.2473  0.3360  0.3226
 8799W        W12019  15.754   1.553   1.899  0.1789 -0.4221  0.1855
 8800W        W12020  10.911   8.311  11.248 -0.0004  0.2562 -0.1592
 8801W        W12021   5.144  17.400   0.131  0.1023 -0.2206  0.1463
 8802W        W12022   3.276  16.689  12.279 -0.0606  0.0658  0.3701
 8803W        W12023   8.108   0.221   7.166  0.0160 -0.0126  0.0921
 8804W        W12024   4.650  10.677   8.805  0.1390 -0.2785 -0.0239
 8805W        W12025  13.778  10.815   5.090  0.3310 -0.3525 -0.0026
 8806W        W12026   2.719  17.266   9.679  0.0685 -0.1136 -0.2692
 8807W        W12027  10.664  13.452   3.841  0.0071 -0.0318 -0.0253
 8808W        W12028   3.492   1.584  15.832  0.3403 -0.0057 -0.0664
 8809W        W12029   0.648  18.091   6.996  0.1278  0.1053  0.1158
 8810W        W12030   4.540   1.855   4.183 -0.1301  0.1968 -0.1938
 8811W        W12031   3.842  17.705   9.193 -0.0070 -0.1606 -0.0712
 8812W        W12032   3.562  11.795   7.949 -0.2591  0.0845 -0.0648
 8813W        W12033   3.238   5.046   5.956 -0.1801 -0.2349 -0.1021
 8814W        W12034   9.367  15.033  13.433  0.0763 -0.2582 -0.0474
 8815W        W12035   2.584  16.554   7.143 -0.2349 -0.3528  0.2463
 8816W        W12036   0.935   0.701  10.773  0.0113  0.0547 -0.0428
 8817W        W12037   9.965   6.443  13.559 -0.2019  0.0759 -0.0888
 8818W        W12038  18.008  12.820  11.935 -0.2284 -0.0948  0.2504
 8819W        W12039  12.859  12.222   9.593 -0.0336 -0.1238  0.2355
 8820W        W12040   1.985   1.927   8.623  0.1565  0.2815  0.3492
 8821W        W12041   3.156  15.150  13.404  0.1219  0.1137  0.2738
 8822W        W12042  12.336  16.915   4.149 -0.2378 -0.0839 -0.1670
 8823W        W12043  16.480   2.058   6.153 -0.3524 -0.0682 -0.0557
 8824W        W12044  11.411  16.552  12.158  0.3442  0.1613 -0.2910
 8825W        W12045   3.625  15.380  12.211 -0.0640 -0.2584  0.3062
 8826W        W12046  15.809  11.326  10.750  0.0976  0.1680  0.2831
 8827W        W12047   3.629  12.856   6.082 -0.1562  0.2931 -0.2585
 8828W        W12048   4.168   0.536  12.271 -0.1611 -0.1396 -0.3134
 8829W        W12049  13.861  16.173  10.557 -0.0673 -0.3314  0.3252
 8830W        W12050   1.054  14.796  15.895 -0.2512 -0.3898  0.0100
 8831W        W12051   1.564  12.175   8.348 -0.3778 -0.1054  0.1374
 8832W        W12052   1.662   2.832   4.226  0.4886  0.1668 -0.0547
 8833W        W12053   8.332  17.166   9.231 -0.0258 -0.1190 -0.0215
 8834W        W12054   9.981  11.837   4.673  0.0232 -0.0058 -0.2276
 8835W        W12055  17.451  15.894   8.276 -0.0728  0.0956  0.2673
 8836W        W12056   2.451   0.604   5.334 -0.0831 -0.0101  0.0950
 8837W        W12057  15.773  13.624   6.593 -0.1038 -0.0648 -0.0955
 8838W        W12058  11.133   2.613  15.164  0.0340 -0.2371  0.1390
 8839W        W12059  17.304   0.806  10.229  0.0627  0.4374 -0.2689
 8840W        W12060   4.555   7.244  14.912  0.1794  0.0571 -0.0133
 8841W        W12061  14.374   0.343   6.701  0.0653 -0.2312 -0.1676
 8842W        W12062   6.985   3.157  12.617 -0.0181  0.0181 -0.0218
 8843W        W12063   7.481  16.159   6.815  0.2047  0.1301 -0.2505
 8844W        W12064   2.965  11.850   6.486  0.1757  0.0544 -0.1598
 8845W        W12065   3.488   0.791   4.436 -0.1699 -0.2198  0.1551
 8846W        W12066  16.276  14.624   8.928  0.1248  0.0961  0.0525
 8847W        W12067   4.973  16.622  12.572 -0.2303 -0.1154  0.3333
 8848W        W12068   1.295   0.519  13.652 -0.0379 -0.2231  0.0162
 8849W        W12069   7.367   2.737   7.936  0.2335  0.0824 -0.1225
 8850W        W12070  16.226  12.636  11.112  0.0938  0.0907  0.2503
 8851W        W12071   0.632  15.765  16.039 -0.3153  0.0252  0.2683
 8852W        W12072  18.014  15.943  12.546  0.2245  0.0861 -0.1549
 8853W        W12073  15.748  15.101  11.620 -0.0045  0.2062 -0.2341
 8854W        W12074   3.967  13.563   4.741 -0.1110 -0.3012  0.0711
 8855W        W12075   6.766   0.742  16.726 -0.3501  0.0908  0.2960
 8856W        W12076   2.640  14.457  11.110 -0.2516 -0.0770 -0.3605
 8857W        W12077   0.622  14.631   4.960  0.2247 -0.0194  0.2934
 8858W        W12078  15.809  15.560  13.430  0.1173 -0.1171  0.0523
 8859W        W12079  12.931   1.743  11.047 -0.0130  0.4724 -0.0810
 8860W        W12080  13.965  16.660  11.497  0.0349  0.1498 -0.2724
 8861W        W12081   5.077  15.630  10.302 -0.0574  0.0266 -0.3182
 8862W        W12082  17.999  13.622   6.334 -0.0311 -0.0358  0.1336
 8863W        W12083   2.469  10.606   5.960  0.2631  0.1899  0.0799
 8864W        W12084  15.288  16.072   7.052  0.3413  0.0890 -0.2013
 8865W        W12085   3.559  14.594  15.263 -0.0448 -0.0486  0.4118
 8866W        W12086  10.895   3.155   5.034  0.2147 -0.0233 -0.0401
 8867W        W12087   0.197  14.221   9.965 -0.0805  0.2028  0.1768
 8868W        W12088  17.882  15.183   6.039  0.0839 -0.1614 -0.0961
 8869W        W12089   6.546  13.363   5.381  0.0077  0.0148  0.2636
 8870W        W12090  16.669  17.991   9.212  0.0395 -0.0270 -0.0993
 8871W        W12091   5.557  12.891   8.767  0.2618  0.4223 -0.0301
 8872W        W12092  17.359   4.142  11.838  0.3978 -0.1078 -0.1778
 8873W        W12093   7.700   5.791   6.189  0.0928 -0.0466 -0.0059
 8874W        W12094   6.509   9.488  10.857 -0.2007 -0.3208 -0.0200
 8875W        W12095   2.111  11.502   7.680 -0.1855 -0.0016 -0.2960
 8876W        W12096   1.408  14.914  10.919 -0.3097 -0.3631  0.0589
 8877W        W12097  16.478  16.407   5.117  0.1427 -0.1872  0.2911
 8878W        W12098   5.331  11.608  12.185 -0.1075 -0.0985  0.4163
 8879W        W12099  15.732  10.768  10.081  0.0424  0.1718  0.1137
 8880W        W12100   0.281   4.335  16.151 -0.3234  0.1938 -0.0714
 8881W        W12101   0.930  15.873  10.704 -0.1120  0.2211 -0.1390
 8882W        W12102   1.681  15.108   5.905  0.0253 -0.0616  0.1336
 8883W        W12103  17.449  16.523  10.588  0.1261 -0.0151  0.4650
 8884W        W12104   7.552   0.323   6.888 -0.0306  0.1012  0.0535
 8885W        W12105  12.413  12.502   2.571  0.0985  0.0607  0.0391
 8886W        W12106   0.608  14.325  11.386 -0.1313  0.2628 -0.1641
 8887W        W12107   6.015  13.666   8.491  0.1004 -0.1833  0.0288
 8888W        W12108  11.081  17.764  10.688  0.1821 -0.1440  0.0609
 8889W        W12109   6.415   6.500   8.681  0.0167 -0.0554  0.0737
 8890W        W12110  14.835   8.714   5.044  0.1150  0.0076  0.0710
 8891W        W12111  16.626   0.156   9.033  0.2555 -0.1508  0.1192
 8892W        W12112  17.315  18.182   9.636  0.2114 -0.0515 -0.2440
 8893W        W12113   4.396  13.480  12.515 -0.0961 -0.0659  0.0773
 8894W        W12114   7.911  11.963   6.450 -0.2866 -0.1027 -0.0982
 8895W        W12115   2.065   4.153  10.273 -0.0535  0.0256  0.1249
 8896W        W12116  17.854  16.803   5.172  0.1533 -0.1064  0.2341
 8897W        W12117   0.944  14.080  10.610 -0.2297  0.1371  0.0273
 8898W        W12118  17.715  12.113   8.213 -0.4535 -0.0718  0.1625
 8899W        W12119  13.327  14.280   6.450  0.3409  0.1239 -0.1824
 8900W        W12120   3.681  16.815   6.788  0.2123 -0.0235  0.3788
 8901W        W12121   5.676  12.491  10.827  0.0296 -0.2989 -0.1221
 8902W        W12122  14.799  15.290  16.313 -0.0889  0.0042  0.0749
 8903W        W12123  15.168  17.237  12.144  0.1041  0.0541 -0.3883
 8904W        W12124   0.605  11.432   7.156 -0.1088 -0.1444 -0.0694
 8905W        W12125  17.478  13.876  10.216 -0.0466 -0.1229 -0.4951
 8906W        W12126   7.905   7.927  15.629 -0.2481  0.0421 -0.0819
 8907W        W12127   0.943   9.735   9.144  0.3597 -0.0017  0.0145
 8908W        W12128   5.546   9.405   6.476 -0.1432  0.0762  0.1408
 8909W        W12129  15.564   5.189  14.827  0.1750 -0.1092 -0.1383
 8910W        W12130  11.584  12.122   5.339 -0.2101  0.3204  0.0268
 8911W        W12131   0.205  14.539  15.672  0.5378 -0.3222 -0.2311
 8912W        W12132  14.140   5.030   8.246  0.1639 -0.0166  0.1139
 8913W        W12133  16.834  16.056  15.935 -0.0224  0.4220  0.1807
 8914W        W12134   1.047  13.700  13.203  0.1572 -0.0517 -0.0699
 8915W        W12135  17.037   2.324  10.062 -0.3402  0.2681  0.1688
 8916W        W12136  13.777   6.002  13.458 -0.1279 -0.2912  0.5461
 8917W        W12137   8.454  16.878   7.327  0.0728 -0.0413  0.2687
 8918W        W12138   2.071   3.830   7.983  0.1223  0.1248  0.0525
 8919W        W12139  18.051  11.347  14.244 -0.1461  0.2354 -0.0646
 8920W        W12140   2.212  12.601   8.453  0.2063  0.1659  0.2979
 8921W        W12141  16.375  16.361   7.294 -0.3557 -0.1730 -0.2720
 8922W        W12142  17.461  16.102   3.942  0.0446 -0.0141  0.1588
 8923W        W12143   7.912  13.408  13.768  0.0139 -0.1997  0.2166
 8924W        W12144   4.732  11.189  11.971  0.0116  0.0269  0.0529
 8925W        W12145   5.187   0.958   4.734  0.0184  0.1228  0.1809
 8926W        W12146  16.768   1.171  11.461 -0.0870  0.0749  0.1049
 8927W        W12147   2.458   2.300   3.382  0.6494 -0.0074  0.1441
 8928W        W12148   0.252   3.641   8.726 -0.1307 -0.0761  0.0715
 8929W        W12149   2.174  13.211   7.602  0.1142  0.3310 -0.0444
 8930W        W12150   5.322  17.111  11.310 -0.0872 -0.0158  0.3204
 8931W        W12151   3.010   1.783  15.785 -0.0789 -0.0457 -0.0415
 8932W        W12152   0.116   0.069  13.617 -0.1410  0.2128 -0.0551
 8933W        W12153  11.600  17.997   6.768 -0.2417 -0.1353 -0.1650
 8934W        W12154   6.028   1.868  13.462  0.1590  0.3586  0.0339
 8935W        W12155   9.529  18.054   6.513  0.0795  0.1132 -0.0845
 8936W        W12156   0.623  11.700   3.856  0.0438  0.0068  0.1289
 8937W        W12157   6.720  16.295   7.800  0.2757  0.2731  0.1531
 8938W        W12158   6.857  14.248  17.717 -0.0361 -0.1862 -0.1959
 8939W        W12159  16.849   2.291   7.250 -0.2454  0.4656 -0.2020
 8940W        W12160   4.318  15.430   7.409  0.0569 -0.2434  0.2140
 8941W        W12161  16.412  12.880  15.063  0.0765  0.0027  0.0734
 8942W        W12162   1.145   7.734   6.228 -0.1147  0.0155  0.1577
 8943W        W12163   3.237  14.902  16.006 -0.0163 -0.1503  0.0445
 8944W        W12164   7.607   1.788  13.519 -0.3713  0.0717  0.2292
 8945W        W12165   5.128  17.696   5.237 -0.1252  0.0812 -0.0150
 8946W        W12166   2.910  16.363   3.480 -0.0543 -0.1085  0.0706
 8947W        W12167   2.951  15.667  13.413 -0.1470  0.1068  0.1960
 8948W        W12168   8.503  14.009   6.233  0.1688  0.1674  0.0873
 8949W        W12169   1.294  15.929   9.652 -0.0374  0.0691  0.1456
 8950W        W12170   1.445  17.169  10.781 -0.1753  0.3265  0.1762
 8951W        W12171   8.140   7.785  10.646  0.0971  0.4093 -0.0984
 8952W        W12172  16.952  13.538   7.788 -0.5169  0.0141 -0.1623
 8953W        W12173   8.384  15.425   6.093  0.0707 -0.0878  0.0885
 8954W        W12174  12.580  17.856   8.186 -0.2554  0.2661 -0.1984
 8955W        W12175   4.204  14.691  12.376 -0.0945  0.0561 -0.0096
 8956W        W12176  16.403   7.149  14.382 -0.0295  0.0228 -0.1739
 8957W        W12177   8.118   1.120  11.056 -0.4808 -0.0504  0.1639
 8958W        W12178  17.398   0.891  11.705  0.0433 -0.0656  0.1468
 8959W        W12179   1.955   2.554  12.193 -0.0041 -0.1509  0.0200
 8960W        W12180   8.876   3.372  10.478 -0.0774  0.0307 -0.2444
 8961W        W12181   4.563  16.156   7.716 -0.2698  0.1359 -0.0976
 8962W        W12182   2.293   0.646   5.910 -0.0555  0.1216  0.2692
 8963W        W12183   6.722   1.180   7.434 -0.0061 -0.1968 -0.2359
 8964W        W12184   3.545   9.092  15.888 -0.1651 -0.0727 -0.0360
 8965W        W12185   4.055  17.905  10.750 -0.1507  0.4438 -0.0137
 8966W        W12186   1.790  10.208  12.833 -0.0278 -0.2010  0.0367
 8967W        W12187   5.701  14.148  12.500 -0.0225 -0.2480  0.0071
 8968W        W12188   0.014  13.383  12.436 -0.0541  0.4133  0.0569
 8969W        W12189   4.489   2.745  13.966  0.0065  0.2081  0.3500
 8970W        W12190  14.832  17.245   8.769 -0.0222 -0.0096  0.1862
 8971W        W12191  16.143  16.755   7.675  0.2460  0.0971  0.0071
 8972W        W12192  16.421  17.020   1.087  0.1746 -0.1093 -0.0078
 8973W        W12193   7.627   8.135   8.594 -0.2590  0.1986  0.1087
 8974W        W12194   5.058   1.530  13.768  0.0894  0.2075  0.2246
 8975W        W12195  12.123  16.178   7.445  0.2066 -0.1170  0.0536
 8976W        W12196  13.798   4.217   6.333  0.0699 -0.1165 -0.2271
 8977W        W12197   4.502  15.044   3.578  0.1398 -0.1077  0.0841
 8978W        W12198   1.211   6.149  12.173  0.2625 -0.1587  0.0876
 8979W        W12199   1.019   5.185   7.340 -0.1540  0.1358 -0.2348
 8980W        W12200   0.899  18.264  16.289  0.2761 -0.2322 -0.3181
 8981W        W12201   4.465   0.437  12.706 -0.2367  0.1605 -0.1455
 8982W        W12202   2.443  16.518  15.239  0.0823  0.2046  0.0707
 8983W        W12203  17.273  17.545   3.951  0.0459 -0.1363  0.0391
 8984W        W12204   9.794  13.751   8.260  0.2280  0.0647 -0.3202
 8985W        W12205   3.386   0.089   7.333  0.0631  0.1604  0.0803
 8986W        W12206  11.566  15.965   5.541  0.0470 -0.4529 -0.2463
 8987W        W12207   5.756  13.588   3.041 -0.0533 -0.1275 -0.1719
 8988W        W12208   1.349  12.728   4.252 -0.4934  0.1601  0.2604
 8989W        W12209   2.426   0.999   7.505  0.1468 -0.2974 -0.1543
 8990W        W12210  15.096   3.480   7.728 -0.0207  0.1752  0.0073
 8991W        W12211   3.053  16.233  13.667  0.1405  0.1471 -0.3363
 8992W        W12212  11.778   4.535  14.875 -0.2211 -0.0780 -0.0055
 8993W        W12213   4.563  16.881   7.089 -0.0416  0.1589  0.1737
 8994W        W12214  15.563   3.569   8.899 -0.1353 -0.2725  0.2084
 8995W        W12215   6.651  10.498  14.021 -0.3704 -0.1592 -0.0389
 8996W        W12216   5.032   0.240  13.142  0.0211  0.2401 -0.2695
 8997W        W12217   0.589  16.297   9.323 -0.0379 -0.0223 -0.1134
 8998W        W12218  15.520   9.267   9.569  0.1764 -0.0568 -0.0918
 8999W        W12219  12.617   9.823  15.340 -0.2475  0.2935  0.3361
 9000W        W12220   1.850  13.649   4.747 -0.1567 -0.1302 -0.0768
 9001W        W12221   5.697  15.695   9.110 -0.2580  0.0513  0.0815
 9002W        W12222   0.787   0.869   9.023  0.3068 -0.3440 -0.0047
 9003W        W12223   4.109  15.280  10.949  0.0722  0.0358  0.1736
 9004W        W12224   0.450  12.337  11.115  0.4328 -0.1097  0.2286
 9005W        W12225   8.964   0.954  10.682 -0.1302 -0.1613  0.1304
 9006W        W12226   2.046  12.534   7.073  0.4344  0.1934  0.3110
 9007W        W12227   3.054  18.074   1.676  0.4142  0.0582 -0.0360
 9008W        W12228   4.821  10.943  12.993  0.1420 -0.4348 -0.0265
 9009W        W12229   8.514  14.874  13.227  0.0269 -0.4477 -0.2270
 9010W        W12230   3.480  13.558   9.270  0.3560  0.1231  0.1705
 9011W        W12231   5.978  14.435   9.143 -0.1223  0.0560  0.0733
 9012W        W12232   0.647   0.544  11.750 -0.1323  0.0881 -0.3162
 9013W        W12233   3.669   0.649  10.094  0.3522 -0.0669 -0.2517
 9014W        W12234  10.899   5.116   8.328 -0.4347 -0.0971 -0.1223
 9015W        W12235  16.751  10.925   5.926 -0.0722  0.3366 -0.0221
 9016W        W12236  11.616  16.100   8.680 -0.0908  0.1616  0.0739
 9017W        W12237   2.173   4.084  13.767  0.0894  0.0620 -0.1601
 9018W        W12238  13.734  14.432   2.668  0.1740  0.0342 -0.0623
 9019W        W12239   2.544  11.606   3.820 -0.4323 -0.4679 -0.0867
 9020W        W12240   1.917   8.000  14.796 -0.0568  0.1228 -0.3304
 9021W        W12241  15.082   5.410  17.121 -0.1435 -0.4316 -0.1777
 9022W        W12242   0.554  17.644  16.159 -0.0234  0.0025 -0.0648
 9023W        W12243   5.406  14.071   7.651  0.0306  0.0836 -0.2304
 9024W        W12244   3.291  17.966   8.898 -0.1399 -0.0221 -0.1670
 9025W        W12245   3.544  17.855  13.252 -0.2084 -0.1500  0.1797
 9026W        W12246   1.273  18.097  10.520 -0.0969  0.0194  0.1277
 9027W        W12247  12.781  16.456   9.326  0.1066 -0.2210  0.3748
 9028W        W12248   3.790  18.163   4.821  0.2506 -0.4110 -0.0231
 9029W        W12249   6.776  16.162  15.336 -0.2059  0.2979 -0.2146
 9030W        W12250   1.420  12.591  15.060 -0.2805 -0.2635 -0.1756
 9031W        W12251   4.045   0.145  13.448  0.1528  0.1760  0.0495
 9032W        W12252  17.858  13.543   8.734  0.0832  0.0117  0.0166
 9033W        W12253   2.280   2.567  13.661 -0.1601  0.1683 -0.0841
 9034W        W12254  13.669  10.460  11.069 -0.1744 -0.2213 -0.1429
 9035W        W12255   4.318   9.819   8.788 -0.0679  0.1342 -0.0761
 9036W        W12256  17.773  11.063   4.718  0.1213 -0.0060 -0.0107
 9037W        W12257  16.625  15.944  12.698 -0.0125 -0.4211  0.0375
 9038W        W12258   7.889  10.471   8.810  0.0048  0.2671 -0.0287
 9039W        W12259  14.018   3.453   4.884 -0.1017 -0.3105 -0.1817
 9040W        W12260   1.464  14.328   5.973  0.1242  0.1309 -0.0771
 9041W        W12261   2.283   0.475   4.070 -0.1803 -0.1349 -0.1912
 9042W        W12262  16.713  14.504   9.673  0.1905 -0.2260  0.0235
 9043W        W12263   3.339   3.352   7.595  0.3483 -0.1680  0.0298
 9044W        W12264   1.357  13.520  10.516  0.0242  0.0389  0.4121
 9045W        W12265  14.655  15.775  12.407 -0.0785 -0.1682 -0.1080
 9046W        W12266   1.148  15.792   0.922 -0.3630  0.2575  0.0617
 9047W        W12267   0.164   1.317  15.938  0.2553 -0.0367  0.2781
 9048W        W12268   2.697   0.700   7.123 -0.0188 -0.0122 -0.1750
 9049W        W12269  15.266   2.302   4.750  0.1901  0.2995 -0.0395
 9050W        W12270  15.434   3.938  12.960 -0.1368 -0.1872 -0.3703
 9051W        W12271   4.918  11.779   5.775 -0.1992  0.0635  0.0746
 9052W        W12272   8.068  14.720   5.642  0.1089  0.1754 -0.0615
 9053W        W12273   2.968  17.531   8.864 -0.2453  0.1237 -0.1127
 9054W        W12274   7.622   0.999   3.141  0.3447  0.0325  0.0038
 9055W        W12275  10.175   2.176   9.352 -0.0910 -0.1830  0.2944
 9056W        W12276   3.821   1.976   7.072 -0.0245 -0.0814  0.0518
 9057W        W12277   2.241  13.574   5.093 -0.1514 -0.1648  0.0392
 9058W        W12278   3.270  11.853  12.765 -0.0229  0.1388 -0.1096
 9059W        W12279   0.138  10.771   6.044 -0.2047  0.1379 -0.0996
 9060W        W12280   2.179  18.079   7.756  0.3934 -0.0593  0.3406
 9061W        W12281   9.364  14.902   7.481  0.0564 -0.0545  0.1833
 9062W        W12282   2.585  16.220  10.391 -0.1086 -0.2387  0.0944
 9063W        W12283   1.847  13.662  16.722  0.2590  0.2210  0.1547
 9064W        W12284  17.028  17.483  15.206 -0.0124 -0.2711 -0.1154
 9065W        W12285  16.504  11.400   8.164  0.0283  0.1147  0.2204
 9066W        W12286   0.996  12.713   3.236 -0.0234  0.2123  0.0137
 9067W        W12287   2.151  11.321   8.134 -0.3336 -0.1367  0.3544
 9068W        W12288   5.968   2.826   3.451  0.1788  0.1458 -0.1380
 9069W        W12289   7.915   3.849  14.421  0.0253 -0.1448 -0.0839
 9070W        W12290  11.297   2.439  13.370 -0.1904 -0.1322  0.3168
 9071W        W12291   5.737  12.552   7.840 -0.1836  0.0680  0.0016
 9072W        W12292   5.485  17.145   5.095  0.1001 -0.3227  0.0233
 9073W        W12293   2.258  10.038   9.583  0.1017  0.0402 -0.2617
 9074W        W12294   2.761  16.033   5.688 -0.3186 -0.0464 -0.0340
 9075W        W12295   2.554   4.740   3.111  0.2360  0.0748  0.0295
 9076W        W12296   4.924  14.318   6.360 -0.0582  0.1416 -0.0784
 9077W        W12297   6.721   6.849  12.354 -0.0320  0.1337 -0.0526
 9078W        W12298   5.345  13.499   7.879  0.1310 -0.1129  0.2817
 9079W        W12299   0.906  12.734   7.343  0.2397  0.0673 -0.0102
 9080W        W12300   5.293  13.028   6.408  0.0220  0.2254  0.0517
 9081W        W12301   2.323  15.470  17.097  0.2870 -0.3474  0.3444
 9082W        W12302   3.807  14.968  10.483  0.0689 -0.0840 -0.0082
 9083W        W12303   0.489   2.832  10.034  0.1887  0.0981  0.4461
 9084W        W12304  16.741  10.625   9.224  0.0451  0.1803 -0.1253
 9085W        W12305  15.451  11.683  10.909  0.0131 -0.1076  0.0770
 9086W        W12306  18.000  15.558  11.324 -0.3023 -0.0231 -0.0686
 9087W        W12307   1.574   1.174  14.036 -0.0388  0.2049 -0.0993
 9088W        W12308  14.759  17.347   5.405  0.0487 -0.1096 -0.3043
 9089W        W12309   2.952  15.328   8.944 -0.1101 -0.0191 -0.0490
 9090W        W12310  15.966   2.446  10.362  0.1461 -0.0449  0.2646
 9091W        W12311   2.244  12.285   9.457  0.3988  0.0600 -0.1112
 9092W        W12312   3.012  15.871   9.819  0.0018 -0.4381  0.4072
 9093W        W12313   6.607  14.557   6.309 -0.3724  0.2360  0.1329
 9094W        W12314   3.556   2.591   8.422  0.2812  0.2582 -0.0821
 9095W        W12315   2.014  15.844  12.902 -0.2279  0.1017 -0.0564
 9096W        W12316   2.322  13.680   8.719  0.0368 -0.1271 -0.3133
 9097W        W12317  16.729   1.867  10.847 -0.0949  0.2035 -0.0581
 9098W        W12318   2.247  17.651   4.328  0.3405 -0.0836 -0.0744
 9099W        W12319   4.645  17.897  13.165 -0.2026 -0.2284 -0.0005
 9100W        W12320   2.017  15.492   5.882  0.2463 -0.0728 -0.4340
 9101W        W12321   4.858   0.515   8.238 -0.1298 -0.2321 -0.3288
 9102W        W12322   2.922  18.045   7.543  0.2146  0.0027  0.0487
 9103W        W12323   4.893  15.445  11.708 -0.3545  0.0654 -0.0381
 9104W        W12324   0.223  18.250   8.893 -0.0776 -0.3723  0.2234
 9105W        W12325  14.824  15.992   8.046  0.1665  0.2826  0.1145
 9106W        W12326  16.111  16.341  13.608 -0.1978  0.1862  0.0097
 9107W        W12327   3.931  16.742  14.547  0.1236  0.2817 -0.0809
 9108W        W12328   2.502   5.346  14.042 -0.1522 -0.0325  0.0346
 9109W        W12329   7.732  13.537  10.782 -0.0380 -0.1024  0.0261
 9110W        W12330  17.000   1.269   2.177 -0.1042  0.1523  0.5372
 9111W        W12331  17.813  15.629  13.483  0.0573 -0.0985  0.1570
 9112W        W12332  16.290   7.115   8.699  0.0185  0.0626  0.1716
 9113W        W12333   2.835   9.321  11.689  0.1098 -0.0591 -0.3750
 9114W        W12334   0.579   1.734   1.840 -0.0075 -0.0390  0.2395
 9115W        W12335  14.285  17.033   1.976 -0.0751 -0.1894 -0.0905
 9116W        W12336   2.150   0.198  17.335 -0.1786  0.2237  0.1990
 9117W        W12337   0.428  18.087   1.329  0.1503  0.3867 -0.3895
 9118W        W12338  16.805   9.254  14.248  0.2597 -0.1371  0.1392
 9119W        W12339  16.978  16.561  17.748 -0.0139 -0.0213 -0.1336
 9120W        W12340   3.067  16.280   6.991 -0.0384 -0.0086  0.0146
 9121W        W12341   1.568  15.614  14.153 -0.0157 -0.0292 -0.0304
 9122W        W12342  17.873   2.720  16.828 -0.2576  0.1729  0.0051
 9123W        W12343  18.062  16.435  16.885 -0.1387  0.3020  0.0181
 9124W        W12344   8.567   2.680  10.974  0.0315  0.4079 -0.0128
 9125W        W12345   8.375   8.387   7.690 -0.1830  0.0930 -0.1637
 9126W        W12346   3.918   2.712  13.252  0.2340  0.0167  0.0600
 9127W        W12347  10.040  16.102  12.161  0.1851 -0.0470 -0.1063
 9128W        W12348   9.001  15.476  11.613 -0.1674 -0.4741 -0.0715
 9129W        W12349   4.944  12.378  15.862 -0.1476 -0.0006  0.1700
 9130W        W12350   3.496   6.796  12.679  0.0562 -0.1462  0.1239
 9131W        W12351  11.789   0.086  12.982 -0.1429 -0.1568 -0.2974
 9132W        W12352   3.971   1.116  11.686  0.3823 -0.0393  0.1478
 9133W        W12353   1.444   5.166  13.532  0.1395 -0.1878 -0.1298
 9134W        W12354  14.534  14.862   0.681  0.0123  0.0310  0.1224
 9135W        W12355  18.270  18.039   7.009  0.0486 -0.2347 -0.2036
 9136W        W12356   2.756  14.895  12.119  0.5016 -0.0060 -0.0556
 9137W        W12357  14.501   3.019  17.381  0.2016  0.2261 -0.3632
 9138W        W12358  16.190   0.922  12.612 -0.1885 -0.2630 -0.1997
 9139W        W12359   8.980  18.244  17.196  0.0081 -0.1507 -0.1152
 9140W        W12360  13.337  15.795   9.281 -0.1051  0.1573  0.0614
 9141W        W12361   1.573   0.659  12.847 -0.0615 -0.2065 -0.1626
 9142W        W12362   4.013  11.261   0.940  0.0362 -0.0152  0.0767
 9143W        W12363  11.875  12.595  17.455  0.1497 -0.3039  0.0916
 9144W        W12364   8.980  10.430   9.278 -0.0559  0.0912 -0.0291
 9145W        W12365   9.160   9.903   7.856  0.0397  0.2074 -0.0311
 9146W        W12366   0.626  16.588   9.750 -0.0898  0.1069  0.2284
 9147W        W12367  10.073  17.414  10.582  0.0216  0.0520 -0.2766
 9148W        W12368  17.759   4.435  15.298 -0.2085 -0.0333 -0.0241
 9149W        W12369   6.933   5.870  15.269 -0.0648 -0.0221 -0.0429
 9150W        W12370  17.633  14.695   6.827  0.1952  0.0475 -0.0939
 9151W        W12371  12.222   0.540  10.762  0.1379  0.1488 -0.0442
 9152W        W12372   2.591  10.856  17.639 -0.0811 -0.0365  0.2450
 9153W        W12373   4.205  17.853   7.651 -0.3636  0.2333 -0.0554
 9154W        W12374   2.604  18.124  13.743  0.1765  0.0727  0.2508
 9155W        W12375   2.434  16.384  11.669  0.2196  0.0930 -0.1576
 9156W        W12376   0.503   4.730  12.466  0.2459  0.2752 -0.0330
 9157W        W12377   2.851  15.937  12.042  0.0308  0.3251  0.0106
 9158W        W12378  16.120  13.444  14.609 -0.0589 -0.1025  0.2557
 9159W        W12379   9.701  11.696  14.504 -0.2749  0.2374  0.0418
 9160W        W12380   2.414  17.373  15.644 -0.0603  0.1114 -0.0769
 9161W        W12381  16.095   3.451  17.058 -0.0626 -0.2640 -0.0981
 9162W        W12382   0.642  12.184  16.952 -0.0588 -0.0156 -0.0214
 9163W        W12383   4.645   5.146  11.591  0.1038  0.0600 -0.0079
 9164W        W12384  17.257  14.667   7.597  0.0257 -0.0681  0.1410
 9165W        W12385  17.485   2.280   3.234  0.1210 -0.1026 -0.1182
 9166W        W12386   8.285   5.736   3.784 -0.1623 -0.0349  0.0373
 9167W        W12387  17.553  16.947   8.609 -0.0345  0.0040  0.0091
 9168W        W12388  11.594  12.222  11.519 -0.0025 -0.2197 -0.0916
 9169W        W12389   0.759  14.569  10.489  0.0849 -0.4262  0.0940
 9170W        W12390  16.714  15.377  17.189 -0.0086  0.0501 -0.2128
 9171W        W12391   8.080  16.485   6.600 -0.2472  0.2644  0.0537
 9172W        W12392  12.556  17.534  11.050  0.1696 -0.3487 -0.2079
 9173W        W12393  17.532   9.016  10.203 -0.0939 -0.0277  0.1744
 9174W        W12394   1.015   0.026   5.439  0.1114 -0.1125  0.0307
 9175W        W12395   3.695   3.232  10.516 -0.2555  0.1224 -0.1765
 9176W        W12396   2.105   5.379  10.587 -0.0329  0.0323  0.4267
 9177W        W12397   0.033  17.992   5.600 -0.0191 -0.1409 -0.0594
 9178W        W12398   8.340  13.422  16.329  0.1094 -0.0573 -0.2880
 9179W        W12399  10.071  14.120  12.652  0.1540 -0.1233  0.1768
 9180W        W12400  13.598  10.407  11.698 -0.0929  0.1494  0.1821
 9181W        W12401   3.693  17.660  10.217 -0.1938  0.3127 -0.1287
 9182W        W12402   2.402  17.089   9.988 -0.1459 -0.0189 -0.0275
 9183W        W12403   2.662   2.017   7.548 -0.0000 -0.1441  0.0643
 9184W        W12404   8.540   2.129  13.081 -0.0460  0.1387  0.1072
 9185W        W12405  17.467  16.279  13.826  0.2828  0.0401  0.4970
 9186W        W12406   4.081  10.014   9.408  0.0447 -0.1842 -0.4218
 9187W        W12407  18.107   5.876  11.744 -0.3118 -0.0551 -0.0183
 9188W        W12408  13.503  16.169  14.158  0.0866  0.2456  0.0773
 9189W        W12409   3.789  11.501  15.342  0.0498  0.4546 -0.1552
 9190W        W12410   3.842   9.130  10.861  0.2132 -0.3480 -0.1363
 9191W        W12411  15.787  16.629  16.734  0.2022  0.2805 -0.0566
 9192W        W12412   1.792  14.374   3.066  0.1110 -0.2059 -0.1732
 9193W        W12413   1.006  11.872   9.176 -0.1286 -0.4243 -0.0438
 9194W        W12414   1.000  17.259  10.540 -0.1509 -0.0436 -0.3489
 9195W        W12415   5.874   9.413  16.706 -0.1498  0.0018  0.1653
 9196W        W12416  16.207  17.247  17.714  0.1280 -0.0216  0.2627
 9197W        W12417   3.751  15.046  16.233  0.0255 -0.1937  0.4487
 9198W        W12418   7.539   0.719  12.158 -0.3574 -0.1314 -0.0686
 9199W        W12419   2.208  17.827  13.458  0.1020 -0.0027  0.1781
 9200W        W12420   3.287   0.305   1.053  0.2940 -0.0426 -0.5082
 9201W        W12421   6.453  16.588   8.975 -0.1316  0.1741 -0.1640
 9202W        W12422  16.913  16.267   9.031  0.1187 -0.0833 -0.1069
 9203W        W12423  13.151  10.160  14.536 -0.3346  0.0331 -0.0774
 9204W        W12424   0.267  13.267   9.895 -0.0748 -0.0290 -0.0843
 9205W        W12425   4.017  17.252  18.081  0.2759  0.0660 -0.0508
 9206W        W12426   1.752   4.661  10.735  0.0982 -0.1366 -0.0641
 9207W        W12427  12.541  14.924  11.150  0.2141 -0.0099 -0.0519
 9208W        W12428  14.563  11.502   8.707  0.0406 -0.0274  0.0480
 9209W        W12429   5.933   6.305  11.584 -0.0502  0.1619  0.0286
 9210W        W12430   7.671  13.653  15.172  0.0821  0.3040  0.0043
 9211W        W12431   1.147  18.149  11.132 -0.1658 -0.1138  0.3407
 9212W        W12432  14.179   1.709  12.059 -0.0196 -0.0864 -0.0482
 9213W        W12433   6.514  14.479  15.083  0.0051 -0.0811 -0.3839
 9214W        W12434   5.466   3.182  11.500 -0.0515 -0.0650  0.0293
 9215W        W12435   0.754  15.941  13.332 -0.3515  0.2555  0.1426
 9216W        W12436   1.389  11.426   7.091 -0.0882 -0.0337  0.1109
 9217W        W12437   1.035  14.904  15.186 -0.0601 -0.0392  0.0941
 9218W        W12438   3.974   1.076   2.810 -0.1663  0.2354 -0.2052
 9219W        W12439   1.763   2.724  13.370  0.0893 -0.1655 -0.0954
 9220W        W12440  17.634  16.586   6.512 -0.0942 -0.1144 -0.1073
 9221W        W12441   1.104  13.820  16.213 -0.0659 -0.1094 -0.2357
 9222W        W12442  16.641  12.901  11.511 -0.0167 -0.1665  0.0808
 9223W        W12443  11.689  17.944   1.031 -0.0024 -0.1097 -0.0804
 9224W        W12444   1.693  17.653  10.621  0.0722 -0.0095 -0.0517
 9225W        W12445  10.512  11.469  11.158 -0.2295 -0.3589 -0.0636
 9226W        W12446   2.564  16.790  11.189  0.1915  0.1800  0.0135
 9227W        W12447  12.653   4.484  12.718  0.2578 -0.2227  0.0830
 9228W        W12448   2.703  16.603  13.611  0.1167  0.0744 -0.2232
 9229W        W12449   2.387  15.915  12.556 -0.0858  0.2445 -0.1050
 9230W        W12450   7.229  12.910  11.041  0.0566  0.0137  0.0018
 9231W        W12451   3.259  11.596  16.333  0.1387  0.4013  0.0208
 9232W        W12452  15.198  16.448  11.033 -0.0033 -0.0549 -0.2028
 9233W        W12453   1.663   9.457   9.935  0.0563  0.0379  0.1010
 9234W        W12454   1.777  14.346   2.567  0.0936  0.3781  0.2163
 9235W        W12455   6.069  16.255   9.041 -0.0489 -0.0901  0.0295
 9236W        W12456  15.474  13.261  13.025 -0.1921  0.0614  0.1114
 9237W        W12457   2.749   3.195  16.160 -0.0945 -0.0169  0.1751
 9238W        W12458  17.448  13.699   9.743 -0.1776 -0.0472 -0.1101
 9239W        W12459   5.174  14.871  15.856 -0.0262  0.0549  0.0580
 9240W        W12460   4.458   9.432  11.555 -0.2573  0.1761  0.2399
 9241W        W12461  15.190  12.856  14.891 -0.0831 -0.5050 -0.0811
 9242W        W12462  12.641  15.373  16.610 -0.0817 -0.0052 -0.1941
 9243W        W12463  16.455   2.690   8.574  0.0760 -0.2634 -0.0247
 9244W        W12464   0.796  17.155  11.473  0.0687 -0.1069 -0.1076
 9245W        W12465  16.556   1.502   7.953  0.0609  0.0343  0.1147
 9246W        W12466   1.516  17.576   9.598  0.0352  0.0071  0.0596
 9247W        W12467   0.928  17.802  13.719 -0.2612 -0.2348 -0.0977
 9248W        W12468  15.736  13.111   3.683  0.1137 -0.1334 -0.0245
 9249W        W12469   1.454  13.964  13.119  0.1984 -0.0014 -0.1006
 9250W        W12470   0.459   4.681  13.599 -0.1303  0.2551 -0.1110
 9251W        W12471  18.202  11.082  10.525 -0.1680  0.1742 -0.0771
 9252W        W12472   2.996  17.932  16.365  0.0511 -0.0068 -0.0092
 9253W        W12473  10.832   0.893  14.006  0.3706 -0.0302  0.1318
 9254W        W12474  16.696   2.698  14.499  0.1787  0.0966  0.2751
 9255W        W12475  16.104  12.203   9.574 -0.0669 -0.1661  0.2610
 9256W        W12476  17.503   5.417  13.372 -0.1618 -0.1628 -0.1718
 9257W        W12477   7.731   1.279  12.134  0.3458  0.1393  0.0007
 9258W        W12478   0.870  17.902  12.003  0.0622 -0.0937  0.2832
 9259W        W12479   4.401  16.004   9.948 -0.1515 -0.2332  0.3362
 9260W        W12480   4.278  15.733  13.584  0.0542  0.0933  0.0847
 9261W        W12481   5.553  10.893  13.033 -0.1405 -0.1170  0.0473
 9262W        W12482  16.405   0.792  15.941  0.0389  0.0217  0.1387
 9263W        W12483   1.552   4.566   8.642  0.1681  0.1623  0.0000
 9264W        W12484  15.441   9.890   4.932  0.2680  0.0014  0.3076
 9265W        W12485   0.206  14.932   9.177 -0.5038  0.1211 -0.0788
 9266W        W12486   4.884  15.664  17.040  0.0837  0.0539  0.3213
 9267W        W12487   4.070   0.726  10.423 -0.2757  0.3068 -0.0912
 9268W        W12488   4.214   2.494  13.604  0.1355 -0.1056 -0.2252
 9269W        W12489   3.034  17.366  10.635  0.1612  0.0060  0.1350
 9270W        W12490   1.915  13.316   0.437 -0.1220  0.2096 -0.1392
 9271W        W12491  17.712   0.757   7.442  0.0703 -0.0108 -0.1358
 9272W        W12492   6.612   5.953  13.582  0.1290 -0.0668 -0.0166
 9273W        W12493   3.031   3.598  14.789 -0.1633  0.2416  0.3102
 9274W        W12494  14.740  13.409  11.975 -0.3368 -0.1215 -0.0423
 9275W        W12495   3.331  14.471  15.691  0.3514 -0.3084 -0.2799
 9276W        W12496  17.648   1.322  17.537  0.0103 -0.1419  0.2679
 9277W        W12497   8.587   7.259   7.121 -0.1418  0.3184 -0.0773
 9278W        W12498   6.694   1.963  14.753  0.0137  0.0573  0.0686
 9279W        W12499  18.111   9.484   2.534  0.0516 -0.2302 -0.1667
 9280W        W12500   4.615   8.082  11.273 -0.0386  0.4908 -0.0414
 9281W        W12501   8.048  16.008  10.122  0.0412  0.3576 -0.2351
 9282W        W12502   1.215   1.866  15.686  0.2823  0.0587 -0.2684
 9283W        W12503  16.137  15.167   9.389  0.2252  0.3066  0.1206
 9284W        W12504   0.595   0.326   6.871  0.1801  0.1949  0.2205
 9285W        W12505  17.286  13.267  13.312 -0.1690 -0.0204  0.1594
 9286W        W12506   4.560  14.529  10.810 -0.0666  0.1557 -0.0393
 9287W        W12507  10.966   0.742   5.626  0.1193 -0.2907 -0.1246
 9288W        W12508   3.097  18.087  13.044  0.0444  0.1016  0.0478
 9289W        W12509   6.529  10.030  12.382 -0.0460 -0.2468 -0.1797
 9290W        W12510   0.502  16.745   5.795 -0.1831  0.2229 -0.2775
 9291W        W12511   3.354  14.793  10.323  0.2064 -0.0882  0.0520
 9292W        W12512  14.351  15.458  11.345  0.1833 -0.5391 -0.2216
 9293W        W12513   1.428  10.149  16.295  0.1633 -0.0448  0.1660
 9294W        W12514   4.974   2.611   3.612  0.2433 -0.1940 -0.0062
 9295W        W12515   2.913  10.900  11.718  0.1620 -0.0810  0.0757
 9296W        W12516  14.022  15.617   5.309  0.0015 -0.0845  0.0633
 9297W        W12517  17.613   1.411   8.080 -0.0587  0.0383  0.3863
 9298W        W12518   1.808  16.347  14.817  0.1659  0.2013 -0.0614
 9299W        W12519  13.538  15.133  14.068  0.1265  0.1989  0.4588
 9300W        W12520  16.486  13.550   7.478 -0.0415 -0.0246  0.2376
 9301W        W12521   1.927   0.336   9.100  0.0831 -0.0337  0.1173
 9302W        W12522  11.126  16.204  10.994 -0.0282 -0.2365  0.0163
 9303W        W12523  13.364  17.871  12.182 -0.1405 -0.1317  0.2365
 9304W        W12524   5.472   0.157  11.743 -0.0381  0.1184 -0.3547
 9305W        W12525   5.603  14.381  14.569  0.0203 -0.1726 -0.0341
 9306W        W12526   0.099   9.845   8.070 -0.1373  0.3794  0.0894
 9307W        W12527   4.085  14.647  14.048  0.1386  0.2952 -0.0788
 9308W        W12528   2.502  17.977  14.390 -0.1697 -0.1633  0.2265
 9309W        W12529   0.619  13.590  15.446 -0.1428  0.0515 -0.2062
 9310W        W12530  14.585  13.784  14.147 -0.0134 -0.2925 -0.0036
 9311W        W12531   3.197  14.312   6.137  0.2058  0.0532 -0.0792
 9312W        W12532   6.016   1.389   8.824 -0.0473 -0.3070 -0.0187
 9313W        W12533  16.056   0.833  17.127 -0.1492 -0.0374 -0.3206
 9314W        W12534   1.991   0.869   5.473  0.2116  0.1791  0.1950
 9315W        W12535   2.198  14.743   8.049 -0.0295  0.0061 -0.1891
 9316W        W12536  13.841   1.832  11.293 -0.0475 -0.1025  0.1498
 9317W        W12537  17.203  10.636  13.417 -0.3053  0.1617 -0.1836
 9318W        W12538   2.273  17.071  16.520  0.0210  0.0941  0.0594
 9319W        W12539  17.333  14.809  12.774 -0.2668  0.2156  0.0164
 9320W        W12540   1.856  12.251  15.867  0.1622  0.0841  0.3522
 9321W        W12541   7.323  10.282   7.753 -0.1425 -0.3112 -0.0458
 9322W        W12542   1.285   1.220  15.724 -0.1512 -0.1155  0.3131
 9323W        W12543   2.959   7.460  15.513  0.0100  0.2891  0.4552
 9324W        W12544   6.078  17.790   8.196 -0.0446  0.2188 -0.0930
 9325W        W12545  12.042  16.518  16.164 -0.1274 -0.1703  0.0037
 9326W        W12546   2.703  14.653  13.398  0.2189  0.3234 -0.0838
 9327W        W12547   5.254   0.474  15.109  0.0510 -0.2017  0.1432
 9328W        W12548  18.201  17.521   6.649  0.2348  0.1378 -0.1431
 9329W        W12549  17.924  14.235   6.997  0.2754 -0.1011  0.1473
 9330W        W12550  10.061   4.276   8.818 -0.1092 -0.1778 -0.2345
 9331W        W12551  13.520  14.186  17.950 -0.0574  0.0431 -0.1385
 9332W        W12552   5.183  16.638   9.084  0.0234 -0.0368 -0.2475
 9333W        W12553   1.916  11.824  12.223  0.0421 -0.0049  0.5367
 9334W        W12554  17.922  16.348  10.497  0.2907  0.1658 -0.1155
 9335W        W12555   4.519   6.558   9.098  0.0951  0.2238  0.1354
 9336W        W12556  13.989   9.325   1.109 -0.1454  0.0812 -0.2705
 9337W        W12557  13.345  16.674  16.745  0.1486  0.0537  0.2312
 9338W        W12558   5.743  16.585   8.297  0.0853 -0.0620 -0.0599
 9339W        W12559  15.604  13.769  13.623 -0.1690  0.0442 -0.1879
 9340W        W12560   5.771  11.892  17.224 -0.0790  0.0558  0.3510
 9341W        W12561   1.874   3.438  17.994  0.2072 -0.0830  0.3380
 9342W        W12562   2.435  16.441  13.260  0.3411 -0.0965 -0.1109
 9343W        W12563  17.444  16.747   9.657 -0.1011 -0.1560  0.2744
 9344W        W12564   1.953   4.990  10.388  0.1298  0.1189 -0.1508
 9345W        W12565  16.382  15.191  15.139  0.1543 -0.1570 -0.0130
 9346W        W12566  10.060  17.987  16.625  0.0138  0.1085 -0.1978
 9347W        W12567  10.556   1.585   8.831  0.1538 -0.0960  0.1492
 9348W        W12568  16.510  15.371   2.339  0.1044 -0.1083 -0.1846
 9349W        W12569   2.872  12.937  15.230  0.0994  0.0231  0.3342
 9350W        W12570   3.650  14.260  12.392 -0.2806  0.1648 -0.4549
 9351W        W12571   7.565   5.047   6.212  0.0042 -0.1930 -0.0342
 9352W        W12572   1.673  12.060  11.888  0.0478  0.0582 -0.3595
 9353W        W12573  13.222  12.164   0.934  0.2469 -0.0736 -0.2145
 9354W        W12574   2.612  13.072  15.649  0.3938 -0.0750  0.0126
 9355W        W12575  15.305  10.698  12.477  0.1553 -0.1260  0.2767
 9356W        W12576  13.099  16.662   5.572  0.4328 -0.0822 -0.2786
 9357W        W12577  17.803  17.965  16.216  0.0908 -0.2383  0.2955
 9358W        W12578   9.884   1.104  14.424 -0.3275  0.1765 -0.2449
 9359W        W12579  14.660  17.157  11.271 -0.1830  0.1497 -0.2299
 9360W        W12580   0.030  11.618   7.337  0.1043  0.1325 -0.3300
 9361W        W12581   4.206   9.959  10.567 -0.0049  0.0720 -0.0431
 9362W        W12582  15.879   0.143   4.637  0.1373  0.1423 -0.0974
 9363W        W12583   4.962   8.944  13.897  0.0508  0.1629 -0.0952
 9364W        W12584   1.064  11.139   3.192  0.1754 -0.1522  0.2186
 9365W        W12585   2.999  17.199   6.483 -0.0293  0.0858  0.0758
 9366W        W12586  17.571  11.846  13.746 -0.0708  0.1556  0.0635
 9367W        W12587   3.164   1.401  11.179 -0.1460  0.1234 -0.0360
 9368W        W12588   3.530   4.346   9.821  0.4653 -0.0889 -0.0168
 9369W        W12589   3.518   1.313  12.121  0.2787 -0.0234 -0.3554
 9370W        W12590   8.428  17.893   4.623 -0.0914  0.3755 -0.0261
 9371W        W12591  17.959  14.403  10.566 -0.2288  0.1846 -0.1501
 9372W        W12592   0.764   4.367  12.104 -0.0374 -0.0265 -0.0658
 9373W        W12593  17.952  10.151  17.434 -0.1913  0.1024  0.1847
 9374W        W12594   7.400  12.343  18.180 -0.1679 -0.0955 -0.1920
 9375W        W12595  17.110  11.601   5.147 -0.3234 -0.1407 -0.1699
 9376W        W12596   3.197  17.350  11.123  0.2144  0.0208 -0.1928
 9377W        W12597  10.555   1.846  17.847 -0.2516 -0.1074 -0.0751
 9378W        W12598   2.497  15.257  14.464 -0.2940 -0.0425 -0.0199
 9379W        W12599  17.711  12.172  10.287  0.2071 -0.0405  0.0383
 9380W        W12600   7.703  15.602  14.070 -0.0115 -0.0488 -0.0254
 9381W        W12601  16.033  14.881  14.849  0.1671 -0.2575  0.0571
 9382W        W12602   5.013  13.411  17.727 -0.1756  0.2525 -0.1086
 9383W        W12603   3.860  14.092  13.675  0.0911  0.1966  0.0357
 9384W        W12604   1.393   1.451  13.635  0.0003  0.0680 -0.0321
 9385W        W12605  13.362  13.022  10.820 -0.2097 -0.2874  0.0670
 9386W        W12606   6.950  12.845   9.424  0.1992  0.2166 -0.0810
 9387W        W12607   1.348  10.814   0.766  0.1451 -0.0574 -0.0209
 9388W        W12608   5.682   0.584   8.783  0.2832 -0.0440 -0.2221
 9389W        W12609  16.447  16.108   9.191 -0.0684  0.0900 -0.1969
 9390W        W12610  18.069   0.597   8.282  0.1952 -0.2177  0.1113
 9391W        W12611   1.775   3.717   8.852 -0.2020 -0.0739 -0.1388
 9392W        W12612  15.967  12.778   6.113 -0.1842 -0.0566  0.3435
 9393W        W12613  15.602   6.040  11.455  0.3824  0.0291 -0.0811
 9394W        W12614   2.028   4.830  12.561 -0.0730 -0.1541 -0.1900
 9395W        W12615   2.600   6.549  11.333 -0.2039 -0.3024  0.1340
 9396W        W12616   5.955  17.815   9.342  0.1634 -0.3744 -0.0729
 9397W        W12617   5.988  13.120  10.172 -0.3847  0.0241 -0.0166
 9398W        W12618   2.210  14.410  16.485  0.2566  0.1721  0.2318
 9399W        W12619  15.372   9.861  15.683  0.1587  0.0857 -0.2352
 9400W        W12620  14.456   0.313  17.698 -0.2315  0.1985 -0.0395
 9401W        W12621   0.531  17.691  16.776 -0.1592  0.3497  0.2846
 9402W        W12622   3.704  11.963  12.438 -0.1906  0.1144 -0.1522
 9403W        W12623   6.029   2.660   5.062 -0.1025  0.2996  0.0240
 9404W        W12624   7.998   3.600  13.665  0.3062  0.1047  0.3822
 9405W        W12625   3.700   2.021   3.512 -0.2520 -0.0749 -0.0309
 9406W        W12626   5.570  17.835  12.563 -0.2621 -0.0588  0.0469
 9407W        W12627   2.811   1.922   0.950 -0.3811 -0.5052  0.1608
 9408W        W12628   1.994   7.748  10.627 -0.2297 -0.0365  0.1522
 9409W        W12629   3.575   4.239  16.595 -0.2944  0.1936  0.1072
 9410W        W12630   3.379   1.857  15.385  0.0685 -0.1451 -0.1886
 9411W        W12631  15.841  14.122   1.466 -0.2458  0.0097  0.2155
 9412W        W12632  17.357  15.123  10.807 -0.0963 -0.0506 -0.2823
 9413W        W12633   7.932  11.672  10.847  0.0524 -0.2561 -0.0660
 9414W        W12634  17.789   0.797  17.412 -0.2358  0.0873  0.4084
 9415W        W12635  15.328  14.032  12.413 -0.0299 -0.3133 -0.2575
 9416W        W12636  16.398   1.979  12.594  0.0228  0.0559  0.1655
 9417W        W12637   6.032   9.915  12.277 -0.1230 -0.1405  0.0193
 9418W        W12638   3.459  11.101  16.361 -0.0618 -0.1049  0.1136
 9419W        W12639  16.333   5.096  15.346 -0.0155  0.0064 -0.0707
 9420W        W12640   3.481  11.010   2.088  0.1380 -0.0242  0.0464
 9421W        W12641  18.253   0.800  14.146  0.3351 -0.0550 -0.2215
 9422W        W12642   3.520   8.719  10.133 -0.1735 -0.0473  0.1433
 9423W        W12643  16.444   0.587  13.970  0.0127 -0.2816  0.4523
 9424W        W12644   3.061  16.770  14.608 -0.0828 -0.1075  0.0506
 9425W        W12645  15.143  18.190  17.701  0.1479 -0.0175  0.0254
 9426W        W12646  17.948  14.073   8.913  0.0127  0.0671  0.0064
 9427W        W12647  12.285  15.416   0.556  0.0624  0.0456  0.0755
 9428W        W12648  15.559  17.438  15.956  0.3249 -0.1378  0.0347
 9429W        W12649   0.629  15.761   0.710 -0.0138  0.0324 -0.1088
 9430W        W12650  17.043  15.845  11.394 -0.0241  0.3215 -0.0381
 9431W        W12651   1.816  10.267   8.287  0.0829 -0.0262 -0.1346
 9432W        W12652   1.002  15.415  13.345  0.0407  0.1212 -0.0938
 9433W        W12653   1.567  15.911  10.646 -0.2233  0.1596 -0.3552
 9434W        W12654  14.800  14.867  12.742  0.1565  0.0976  0.1748
 9435W        W12655   0.300  14.737  11.351 -0.0579 -0.0712  0.0336
 9436W        W12656  17.439  11.493  14.394 -0.0756 -0.1689 -0.1061
 9437W        W12657   6.216  12.969  13.350  0.0839  0.0594  0.1707
 9438W        W12658   0.853   4.173   0.545  0.0844  0.0010 -0.1525
 9439W        W12659   5.871  15.158  13.972  0.0571 -0.1816 -0.3747
 9440W        W12660   4.905   0.565  13.533 -0.0030  0.0586 -0.0794
 9441W        W12661  15.255  15.367  16.497  0.0225  0.0644  0.1315
 9442W        W12662  13.109  13.457  11.664  0.3485  0.1344  0.0510
 9443W        W12663   0.190  15.381   8.939 -0.4328 -0.3182  0.0474
 9444W        W12664  14.296  13.845   6.779 -0.1924  0.0109  0.3487
 9445W        W12665  18.105  17.280   8.251 -0.0870  0.0447  0.1290
 9446W        W12666   4.726  11.422  16.134  0.1304  0.1096  0.0288
 9447W        W12667   1.223  11.311   0.852  0.0762 -0.1107 -0.2064
 9448W        W12668  15.733   0.359   9.027  0.2573 -0.0372 -0.1195
 9449W        W12669  14.481   1.825  15.778 -0.0165  0.1607  0.1443
 9450W        W12670   5.634   5.191   2.334  0.0273 -0.0244 -0.0276
 9451W        W12671   1.941  17.961  17.654 -0.1174 -0.1537 -0.1355
 9452W        W12672   0.991  15.531   1.821  0.0723 -0.0758 -0.0213
 9453W        W12673  12.284   2.905  14.472  0.2279  0.1565  0.3332
 9454W        W12674  16.129   1.428   1.171 -0.2106 -0.0783 -0.2547
 9455W        W12675   1.254   8.466  17.473  0.1428 -0.0570  0.0891
 9456W        W12676   1.133   1.592  14.114  0.1928  0.0740  0.1186
 9457W        W12677   5.751  17.669   1.280 -0.2422  0.0959  0.0093
 9458W        W12678   3.078   9.211  18.249 -0.0887  0.0069 -0.0137
 9459W        W12679   5.765  17.955  14.132  0.1561  0.1390 -0.1165
 9460W        W12680   2.708  13.420   7.307 -0.1361  0.1426 -0.0745
 9461W        W12681  15.455  14.349   1.654  0.0675  0.2294 -0.0754
 9462W        W12682   4.907   1.959   0.117 -0.3014 -0.0794  0.1663
 9463W        W12683  18.098   0.952  13.049 -0.1387 -0.1126 -0.1995
 9464W        W12684   8.434  17.303  10.097  0.1717 -0.1640 -0.2665
 9465W        W12685   7.520  13.277  11.147 -0.1874  0.0179 -0.0995
 9466W        W12686  18.147   2.025  15.903 -0.0607 -0.0240  0.1705
 9467W        W12687   1.091   8.946  13.446 -0.0927 -0.0473  0.3839
 9468W        W12688  17.550   3.416  15.117  0.0415 -0.2514 -0.3062
 9469W        W12689  14.037  13.116   7.677 -0.0286  0.1513  0.0251
 9470W        W12690   9.822  10.326  15.684  0.1492 -0.1010  0.1700
 9471W        W12691   5.810   4.691   9.585 -0.2206  0.1139 -0.0379
 9472W        W12692  17.267   0.303  10.162 -0.0700  0.0499 -0.0364
 9473W        W12693  12.951  13.570  10.855  0.1292 -0.0947 -0.1092
 9474W        W12694   2.754  17.861  14.994  0.0818  0.1881 -0.2833
 9475W        W12695   9.097  10.501   6.595  0.2990 -0.1537  0.2668
 9476W        W12696   8.089  13.955  10.330 -0.3286  0.1983 -0.0192
 9477W        W12697   0.941   7.925  12.025  0.0311 -0.2011 -0.2487
 9478W        W12698   6.262   0.515  17.275  0.4062 -0.0616 -0.4858
 9479W        W12699   1.890   4.094   9.424 -0.0461  0.1044 -0.1737
 9480W        W12700   3.371  13.149  17.558 -0.1734  0.1271  0.4554
 9481W        W12701   1.343  15.144  14.937  0.1090 -0.0332  0.1376
 9482W        W12702   1.020   0.036  15.746  0.0299  0.0293  0.1136
 9483W        W12703   5.136  17.790   3.168  0.1303  0.0410 -0.1207
 9484W        W12704  17.291  10.516  14.491 -0.0887 -0.2067 -0.2725
 9485W        W12705  14.765  17.011  11.848 -0.1923 -0.1024  0.1590
 9486W        W12706   3.693   2.881   9.598  0.0224  0.0667 -0.0882
 9487W        W12707   2.010  13.918  15.773  0.1027 -0.0215  0.0968
 9488W        W12708   7.411  16.819   9.586  0.0169  0.0772 -0.2453
 9489W        W12709   4.639  16.891  11.396  0.1179 -0.0223 -0.0547
 9490W        W12710   5.080   0.059   8.326  0.1154 -0.2186 -0.1109
 9491W        W12711   6.138  14.366  13.692  0.0277 -0.3351 -0.1768
 9492W        W12712  18.203   0.179  11.486  0.2702 -0.0022  0.0605
 9493W        W12713   1.545   7.269  17.250 -0.0013  0.2155 -0.0972
 9494W        W12714  10.791  17.655  13.350  0.4092 -0.0214 -0.0752
 9495W        W12715   2.909  17.198  11.570  0.2340  0.5311  0.0044
 9496W        W12716   6.591  16.627   9.512 -0.2331  0.2062 -0.4132
 9497W        W12717   4.603  15.082  15.899 -0.2659 -0.3372  0.1203
 9498W        W12718   3.387  17.460   9.829 -0.1141 -0.0137  0.0723
 9499W        W12719  14.411   2.091  17.529  0.0490 -0.1613  0.1527
 9500W        W12720  16.864  14.629  14.363  0.0063  0.0259  0.2469
 9501W        W12721   3.464  12.185   9.514 -0.1947  0.2039  0.1762
 9502W        W12722  11.556  15.898  10.928 -0.0213 -0.0283 -0.0300
 9503W        W12723   4.046  15.353  13.051  0.0177 -0.1274  0.1418
 9504W        W12724  16.801   8.092   4.559 -0.3511  0.1539  0.1496
 9505W        W12725  14.158  17.096  17.846  0.2879 -0.3457 -0.3012
 9506W        W12726  17.172  17.803   3.054 -0.1158  0.0491  0.1755
 9507W        W12727   0.050   0.316  10.550 -0.5017 -0.0059  0.1526
 9508W        W12728   3.915   1.756  11.049 -0.0806 -0.1011  0.1381
 9509W        W12729   3.952  17.897  11.783 -0.1035 -0.1567 -0.0677
 9510W        W12730  18.146  13.868  11.927  0.2910  0.2053 -0.1257
 9511W        W12731  17.699  16.705   2.195  0.1795 -0.4942  0.1640
 9512W        W12732   1.202   7.681  15.348  0.1130  0.0876  0.1265
 9513W        W12733  16.937  17.999  15.068  0.2972 -0.1517 -0.2915
 9514W        W12734  14.698   5.999  11.627  0.1741 -0.0320 -0.1363
 9515W        W12735   3.480   1.736  13.952 -0.2430  0.1781  0.3828
 9516W        W12736   2.044  16.288  15.949  0.3436 -0.0053 -0.3351
 9517W        W12737  16.217  16.667  14.563 -0.0290  0.3968 -0.1909
 9518W        W12738   6.361  17.477   1.379  0.1798  0.0796 -0.1159
 9519W        W12739  18.195   5.266  17.734 -0.2320 -0.0241 -0.1209
 9520W        W12740  16.805   7.661   2.023  0.1271 -0.0800  0.2556
 9521W        W12741  14.837  13.734  12.402  0.0585  0.1777 -0.1815
 9522W        W12742  17.717  17.475  12.697 -0.0180  0.1636  0.1015
 9523W        W12743   1.120  17.340   7.914  0.0960 -0.3778  0.1017
 9524W        W12744   5.650  10.013  14.427  0.4093  0.1136 -0.1061
 9525W        W12745   0.992  15.448   6.701 -0.0159  0.1815  0.1671
 9526W        W12746   0.326   1.894  13.062 -0.0673  0.0245  0.2046
 9527W        W12747   8.494  14.322  17.321 -0.2600  0.1193 -0.1543
 9528W        W12748   2.023  16.425  15.466  0.2705  0.1137  0.3805
 9529W        W12749   4.735   1.975  13.096 -0.0548 -0.0578 -0.0665
 9530W        W12750   2.714   0.156  14.165  0.0636  0.0890 -0.1682
 9531W        W12751   1.214   0.502  16.849  0.0539 -0.2673 -0.2142
 9532W        W12752  14.562   2.521  17.412 -0.0895  0.1913  0.1362
 9533W        W12753  16.879  15.824  11.938 -0.3054  0.2092  0.2367
 9534W        W12754   0.917  14.608  13.410  0.2767 -0.2551  0.0471
 9535W        W12755  18.142   3.881  16.072  0.0815  0.1091 -0.1285
 9536W        W12756   2.462   8.897   9.970  0.0348  0.2353  0.0197
 9537W        W12757   0.159  15.742  15.230  0.3233  0.0519 -0.3091
 9538W        W12758   6.494  16.317   0.484  0.0761 -0.2989 -0.0388
 9539W        W12759  16.762   2.975  14.946  0.1580 -0.1825  0.0578
 9540W        W12760  17.303  15.920   1.875  0.4697  0.1506 -0.0605
 9541W        W12761   3.400  16.600  11.767 -0.1247 -0.1528 -0.2033
 9542W        W12762  15.018   0.728   1.628 -0.2011  0.0746  0.1443
 9543W        W12763   1.258  11.775   3.166 -0.1989  0.1171 -0.1817
 9544W        W12764   9.098  17.599  17.291 -0.1969 -0.0062 -0.2501
 9545W        W12765  16.316  14.495   7.882 -0.0277 -0.2172  0.2299
 9546W        W12766  16.311  15.106   7.982  0.1638  0.0299 -0.4677
 9547W        W12767   2.278   2.955  16.765 -0.0878  0.0808 -0.1299
 9548W        W12768  15.836   2.698  15.055  0.2189  0.1508 -0.1118
 9549W        W12769   0.119  16.176  17.887  0.4320  0.0901 -0.0114
 9550W        W12770   3.871  14.827  18.134 -0.3774  0.0005  0.3029
 9551W        W12771   6.025  14.479  12.242  0.2199  0.0336 -0.1435
 9552W        W12772   3.779  17.910  15.885  0.0275  0.0434 -0.2043
 9553W        W12773   2.414   1.433  16.134 -0.0416  0.0552 -0.0002
 9554W        W12774   1.450   1.095  17.893 -0.1541  0.1204 -0.0399
 9555W        W12775  16.141  14.154  12.296 -0.0375 -0.0037 -0.2821
 9556W        W12776  12.022  17.454   6.500 -0.1806 -0.0233  0.1121
 9557W        W12777   7.581   2.389  17.219 -0.0833 -0.2901  0.0240
 9558W        W12778   1.731  16.209  17.398  0.0438 -0.1129  0.2549
 9559W        W12779   0.370  14.236  16.733  0.0395 -0.2615  0.0101
 9560W        W12780   1.216   0.361  14.178  0.1674 -0.0159 -0.0333
 9561W        W12781  11.158  13.538   1.529  0.0387 -0.1235  0.4129
 9562W        W12782  17.141   0.423   2.481  0.0319 -0.1328  0.1499
 9563W        W12783  16.603  12.539  16.361 -0.1684 -0.0523 -0.0440
 9564W        W12784  16.950  12.713  17.308  0.0373 -0.2853  0.0090
 9565W        W12785   7.917   0.057  14.850  0.0178 -0.1599 -0.1437
 9566W        W12786   2.895  15.303  10.060 -0.2786  0.3098  0.2494
 9567W        W12787   2.572   2.930   3.471 -0.2948 -0.0712  0.1210
 9568W        W12788  17.932   0.015  13.297  0.1235  0.2765 -0.1973
 9569W        W12789   6.490  17.666   3.294  0.2385  0.0980 -0.0592
 9570W        W12790   2.629  14.798  14.783  0.1864 -0.0828 -0.3989
 9571W        W12791  13.769  16.093   2.949  0.1131  0.4601 -0.1185
 9572W        W12792   1.696   1.275   9.273  0.2743  0.0199 -0.0428
 9573W        W12793   2.341   1.917   0.729 -0.0390  0.0244 -0.1457
 9574W        W12794   3.291   1.609  16.845 -0.1644 -0.0471  0.5169
 9575W        W12795  17.899  13.085  12.339 -0.1436 -0.0953  0.0675
 9576W        W12796   4.372   3.526   4.911  0.1066  0.0509  0.0348
 9577W        W12797  16.215  17.041  17.191  0.2911 -0.0669  0.1353
 9578W        W12798   9.648  15.614   1.826 -0.2487 -0.3163  0.2945
 9579W        W12799  16.300   4.701   0.001 -0.2749  0.0178 -0.3674
 9580W        W12800  17.384  14.132  13.375 -0.0699 -0.2893  0.2159
 9581W        W12801   7.040  16.904  14.553  0.0047  0.5344  0.2773
 9582W        W12802   3.785   2.526  14.803 -0.2462  0.0309 -0.3572
 9583W        W12803   1.571   3.375  12.444  0.0260  0.1441  0.1578
 9584W        W12804   0.253  16.687  13.327 -0.0618 -0.1708 -0.2134
 9585W        W12805   1.591   1.987   9.761 -0.0011 -0.0578 -0.1992
 9586W        W12806   4.578  17.626  16.470  0.2249  0.1666  0.3043
 9587W        W12807   7.029   3.683  12.462 -0.2261 -0.0706 -0.0060
 9588W        W12808  15.609  17.361   0.446 -0.3541  0.3366 -0.0593
 9589W        W12809   1.164   6.366  16.174  0.0122  0.2162  0.2287
 9590W        W12810   1.084   0.811  16.463 -0.1036 -0.0100  0.2469
 9591W        W12811   7.576  15.428  14.567  0.0244 -0.0913 -0.1609
 9592W        W12812   3.446   2.772  15.810  0.1712  0.1051 -0.1209
 9593W        W12813   0.911  13.482  14.237 -0.1360 -0.1721 -0.2872
 9594W        W12814   4.223  17.946   0.629 -0.1513  0.2034  0.1290
 9595W        W12815  17.943   6.297  15.259  0.2678  0.1686  0.1265
 9596W        W12816  14.487   0.689  14.643  0.1370 -0.2508  0.1888
 9597W        W12817   2.762   2.657  13.914  0.1101  0.1203 -0.2028
 9598W        W12818   8.200   2.948  10.760 -0.2694  0.0263 -0.1930
 9599W        W12819  17.245  14.987  14.439  0.0636 -0.2220 -0.2519
 9600W        W12820   2.452   8.226  14.081  0.0223  0.1753  0.1169
 9601W        W12821  16.104  16.116  14.468  0.2574 -0.3376  0.2893
 9602W        W12822   3.275  10.882  12.028 -0.0452  0.2051 -0.2748
 9603W        W12823   4.316   4.225  12.482 -0.0481 -0.2821  0.1759
 9604W        W12824   6.673  12.160  10.977  0.1307  0.1306  0.2256
 9605W        W12825   7.949  13.472  17.640 -0.1725  0.0562  0.1454
 9606W        W12826  11.267  14.731   2.289 -0.0229  0.0448  0.2658
 9607W        W12827   7.814  15.426   8.053  0.0819  0.3010  0.1054
 9608W        W12828   1.121  13.397   3.593 -0.0416 -0.2928 -0.0911
 9609W        W12829   2.987   1.951  14.708 -0.2426  0.3407  0.0586
 9610W        W12830   3.887   7.894  14.383  0.2995 -0.0910 -0.0614
 9611W        W12831   6.291  12.780   6.641  0.2592 -0.3597  0.1278
 9612W        W12832  18.044   0.272  13.990  0.0456 -0.2113  0.0531
 9613W        W12833   0.903  16.740  14.566 -0.0850 -0.0535  0.1211
 9614W        W12834   7.078   4.627   3.481  0.4621 -0.1441 -0.1818
 9615W        W12835  14.757  10.675   0.203 -0.3718 -0.0850 -0.1212
 9616W        W12836   3.934   0.378  17.126  0.0602 -0.0569  0.3142
 9617W        W12837   2.812   4.825  15.776  0.0200  0.5513 -0.3061
 9618W        W12838   2.878  15.198  14.856 -0.0911  0.1301 -0.1814
 9619W        W12839   3.800   6.952   0.900  0.2446  0.1243  0.1541
 9620W        W12840  17.640  10.535   5.688 -0.2291  0.0715 -0.1251
 9621W        W12841   2.378  16.278  12.175  0.3485  0.0184  0.2749
 9622W        W12842   4.327  16.876  13.661  0.4365  0.0022 -0.2104
 9623W        W12843   7.241  13.177   0.739 -0.2231 -0.1161 -0.0201
 9624W        W12844   2.837  16.489  15.662 -0.0403 -0.0247 -0.1430
 9625W        W12845   3.357  12.470   1.369 -0.2251 -0.0121 -0.1201
 9626W        W12846   1.906   3.203  10.846  0.1240 -0.0623  0.0593
 9627W        W12847  17.008   3.631  16.810 -0.3265 -0.0617  0.1104
 9628W        W12848   4.802   1.813  15.115  0.0835 -0.0308  0.0075
 9629W        W12849  13.706  11.539  17.802 -0.1032  0.2234  0.0889
 9630W        W12850  17.939  14.103   4.637 -0.1868 -0.1647  0.2505
 9631W        W12851   1.373   1.794  10.354 -0.2388 -0.0359 -0.0524
 9632W        W12852   6.598  15.399   5.089  0.2590 -0.2025 -0.0991
 9633W        W12853   1.865  14.126   7.315  0.1725  0.2072  0.0500
 9634W        W12854   0.730  11.931   2.705  0.1539 -0.0997  0.1334
 9635W        W12855   2.220  10.495  16.375  0.0269  0.0366  0.2494
 9636W        W12856  17.813   8.022   0.115  0.1024  0.1385  0.3121
 9637W        W12857   6.799  17.919  16.558  0.1570 -0.1105  0.0935
 9638W        W12858   8.376  16.892  17.135  0.0652 -0.1577 -0.2059
 9639W        W12859   5.630  15.282  13.080  0.0079  0.1706  0.0266
 9640W        W12860  17.246   5.010  15.335 -0.0721 -0.0040 -0.3989
 9641W        W12861  17.706  16.607  13.414 -0.0767  0.0862  0.4622
 9642W        W12862  17.154   1.778   5.908  0.2091  0.0537 -0.2874
 9643W        W12863   1.537   0.067  12.661 -0.0077 -0.1413 -0.2215
 9644W        W12864  16.971   1.754   7.332 -0.3146  0.0831 -0.0783
 9645W        W12865  17.812   0.245  16.775 -0.2336 -0.1883 -0.1173
 9646W        W12866   0.362  14.647  11.942 -0.0859 -0.2343  0.0243
 9647W        W12867   0.034  15.575  11.741  0.6406 -0.0409 -0.0834
 9648W        W12868   3.748  12.419   0.725  0.0014  0.0870  0.2270
 9649W        W12869   3.441  16.881  17.448  0.1885 -0.2798  0.3095
 9650W        W12870  15.079   0.925  10.730 -0.2064  0.1147  0.0600
 9651W        W12871  17.890  16.114   3.033 -0.1946  0.0433 -0.2141
 9652W        W12872   1.110   8.493   5.515 -0.0361 -0.3915  0.4150
 9653W        W12873   6.353   1.922   7.124 -0.0614  0.0010  0.1332
 9654W        W12874  18.207   9.959  16.371 -0.0240 -0.0883 -0.1179
 9655W        W12875   7.359  14.361  17.657  0.2248  0.1911 -0.0371
 9656W        W12876   0.266  17.853   3.149  0.0514  0.2875 -0.0994
 9657W        W12877   1.027  13.771  17.737 -0.0120 -0.1397  0.2072
 9658W        W12878  16.693  11.697   2.665 -0.0574  0.1897  0.0829
 9659W        W12879  17.507   2.701   3.605  0.0021 -0.2221  0.0885
 9660W        W12880   5.169  13.842  13.643  0.2083  0.1367 -0.0089
 9661W        W12881   1.414  10.652  13.852  0.0070  0.0812  0.0639
 9662W        W12882   4.452   0.636  17.179 -0.0274  0.0962  0.1088
 9663W        W12883   6.887   7.609  13.578 -0.1621  0.0531 -0.2239
 9664W        W12884  17.542  13.999  10.682 -0.1710  0.1916 -0.2647
 9665W        W12885   3.982  17.925  18.249 -0.0525  0.0873 -0.2264
 9666W        W12886   8.035   1.724   1.044 -0.0363  0.0511  0.1291
 9667W        W12887   4.260  18.147  15.996  0.2996  0.1798 -0.1566
 9668W        W12888   0.262   0.719   2.324  0.1875 -0.0246  0.0312
 9669W        W12889  13.561  16.662   5.331  0.2890 -0.1067  0.2139
 9670W        W12890  17.921  14.785  16.866 -0.1874  0.1918 -0.2343
 9671W        W12891   3.923   0.152   4.186  0.0756 -0.1973 -0.3525
 9672W        W12892   1.497  12.237   1.828 -0.1100  0.2104  0.1018
 9673W        W12893   2.492  18.038  11.404  0.0671  0.1762 -0.2953
 9674W        W12894   5.561  14.608  17.829  0.3526  0.0090  0.0572
 9675W        W12895   8.696  14.402   8.700 -0.0205  0.0735 -0.3862
 9676W        W12896  10.943  13.255  15.614  0.1390 -0.0919  0.1449
 9677W        W12897   5.335  18.243  14.137 -0.0299  0.0153 -0.0048
 9678W        W12898   2.575   2.030  10.052 -0.2353  0.0704 -0.2473
 9679W        W12899   5.375  17.925  13.765  0.2261  0.3689  0.4150
 9680W        W12900   0.512  15.371   9.955  0.0020 -0.1699  0.1651
 9681W        W12901  14.286  15.547   4.889 -0.1730  0.1329  0.0225
 9682W        W12902   3.842  16.612  16.521 -0.1480 -0.1318 -0.2110
 9683W        W12903  18.047   0.879   0.570 -0.1398  0.0695  0.0045
 9684W        W12904  12.841  18.051  16.718  0.0282  0.1293  0.2970
 9685W        W12905   3.374  13.449  14.401  0.1830 -0.2123 -0.0244
 9686W        W12906   6.254   0.409  15.271  0.1616  0.1777 -0.1603
 9687W        W12907   1.520  17.765  11.852  0.0394  0.2150 -0.0997
 9688W        W12908   6.575   3.122  18.229 -0.0985  0.1698  0.1486
 9689W        W12909   3.542  13.194  13.306  0.1201  0.1570 -0.1037
 9690W        W12910  11.345  15.637   9.840 -0.2688  0.1987 -0.2085
 9691W        W12911  13.879  15.764  11.283  0.0697  0.1162  0.1257
 9692W        W12912  17.844   3.584   4.921 -0.1036 -0.0703  0.1757
 9693W        W12913   0.815   3.101  15.023  0.2915  0.2882  0.0778
 9694W        W12914  15.191  11.998  12.885 -0.2255 -0.0349  0.0558
 9695W        W12915   0.104   5.347   1.731  0.1419  0.0642  0.2778
 9696W        W12916   3.384  12.758  17.171  0.2851 -0.2888 -0.0361
 9697W        W12917   1.323   0.748  15.283  0.1729 -0.1358  0.2773
 9698W        W12918   1.842   7.100   0.404  0.2398 -0.0425  0.2015
 9699W        W12919   5.631  11.870   6.783 -0.0581 -0.1038 -0.1822
 9700W        W12920   1.430  14.604  11.263  0.3359 -0.0631 -0.3133
 9701W        W12921   1.659  14.572   7.250 -0.1051  0.1639  0.1147
 9702W        W12922   7.728  10.652   1.212  0.1350 -0.2319 -0.1636
 9703W        W12923   7.452   3.623  16.172  0.0064 -0.2305 -0.0921
 9704W        W12924   2.182  18.004  17.027  0.0222  0.2820 -0.1867
 9705W        W12925   4.733   5.354  11.127  0.0055  0.0747  0.2332
 9706W        W12926   2.461  13.546  12.377 -0.1077  0.0313  0.2522
 9707W        W12927   3.474  12.185  16.958  0.0771  0.1326 -0.0965
 9708W        W12928  15.766  12.101  12.897 -0.1071  0.2092  0.1771
 9709W        W12929   4.457  11.277  12.395  0.4430 -0.0240 -0.0770
 9710W        W12930  18.102  15.022  15.918 -0.1444  0.0015  0.2378
 9711W        W12931   5.325   2.850  17.278 -0.1237  0.0331 -0.1975
 9712W        W12932   0.129   9.566  12.571 -0.0970  0.0528 -0.1945
 9713W        W12933   4.274  13.475   5.132 -0.0267 -0.2641  0.0856
 9714W        W12934  15.253   0.828  12.993  0.1623  0.0022  0.1244
 9715W        W12935   2.221   4.902  10.870  0.1038  0.0077  0.0395
 9716W        W12936   5.608  15.678   6.669  0.0021 -0.3796 -0.1165
 9717W        W12937   0.766   0.224   0.022 -0.1720 -0.0442  0.0506
 9718W        W12938  11.348   6.323  15.879  0.0348 -0.0038  0.2288
 9719W        W12939   0.804  15.434  12.566  0.1837  0.1101  0.2017
 9720W        W12940   9.952  15.469  11.728 -0.2270 -0.3038  0.1676
 9721W        W12941  11.533   1.168   1.223 -0.4014  0.1842 -0.0076
 9722W        W12942   8.624  16.373  15.102 -0.0683  0.1467  0.0741
 9723W        W12943   5.245  13.885   3.761  0.1597 -0.1698  0.1630
 9724W        W12944  16.081  15.041  12.737 -0.2630  0.1134  0.2212
 9725W        W12945  13.695   1.915  17.453  0.2343 -0.0257 -0.0244
 9726W        W12946   5.027  16.688  17.946  0.0387  0.0380 -0.1314
 9727W        W12947   2.623  15.563   7.707 -0.1501 -0.1797  0.0170
 9728W        W12948  17.942  12.384  15.003 -0.1381 -0.3318 -0.1108
 9729W        W12949   3.213  13.496   7.401  0.1205  0.5566 -0.2427
 9730W        W12950   1.723  10.178   2.542  0.1008 -0.2545 -0.1995
 9731W        W12951   5.219   1.859  11.536 -0.0361  0.2021 -0.2766
 9732W        W12952   0.545   3.017  17.059  0.1989 -0.2828  0.5568
 9733W        W12953  15.626   6.098   1.394 -0.4206 -0.0750 -0.0431
 9734W        W12954   2.731  13.339   0.912 -0.0807 -0.0691 -0.1738
 9735W        W12955  15.158  15.325   1.407 -0.0799  0.1732  0.3260
 9736W        W12956   6.681  15.008  14.975  0.1371 -0.0105 -0.1133
 9737W        W12957   4.063  16.485   8.202  0.3280 -0.3547  0.0074
 9738W        W12958   5.535  16.896  16.306  0.1906 -0.0474 -0.3993
 9739W        W12959   2.891  13.810   2.790  0.2657  0.1056  0.4046
 9740W        W12960   1.454  15.334   0.310  0.1073  0.0722  0.0560
 9741W        W12961   0.082   1.412  15.420 -0.1897 -0.2021 -0.3968
 9742W        W12962   5.058  16.174  18.104 -0.0028  0.1747  0.1254
 9743W        W12963   8.750  14.259  13.609  0.0918  0.2256  0.1899
 9744W        W12964  14.543   1.281  13.451 -0.0087  0.3657  0.0976
 9745W        W12965  18.018  15.858   4.007  0.1463  0.2173 -0.1135
 9746W        W12966   0.419  15.615  14.508  0.2027  0.3062  0.0853
 9747W        W12967   3.439   2.321  15.692 -0.2539  0.0020 -0.0178
 9748W        W12968   4.286   1.771   2.303  0.0144 -0.2913  0.0980
 9749W        W12969   2.446  12.730   0.467 -0.0973  0.0161  0.0104
 9750W        W12970   5.091  17.370  15.269 -0.1477  0.0407  0.1659
 9751W        W12971  14.413  15.690  12.828  0.0175  0.0191  0.1341
 9752W        W12972  16.375  16.887  12.737 -0.2322 -0.1278  0.0552
 9753W        W12973   2.901  12.420   1.707 -0.1083 -0.0937  0.1644
 9754W        W12974  14.727   0.728  17.989 -0.1416  0.0901 -0.2924
 9755W        W12975  17.740  16.977  12.746 -0.1799 -0.1739  0.4176
 9756W        W12976  10.497   0.530   0.971  0.2518  0.0287  0.2827
 9757W        W12977  15.876   4.266  13.735  0.0067  0.1420  0.1828
 9758W        W12978  15.890   7.947  18.217  0.3412 -0.0195 -0.2183
 9759W        W12979   4.196   2.920  11.784 -0.1657 -0.1430  0.1966
 9760W        W12980   0.671   0.175   8.801  0.1007  0.2740  0.2896
 9761W        W12981  16.747  16.857  13.804  0.0724 -0.1441 -0.1160
 9762W        W12982   2.782  14.476   8.714 -0.2468  0.0073  0.1057
 9763W        W12983  16.577   1.042  13.314  0.1003 -0.2116  0.2797
 9764W        W12984   3.167   5.898  17.156  0.1376  0.2498 -0.0403
 9765W        W12985  17.964  18.218  10.569  0.0684 -0.2376 -0.0536
 9766W        W12986   3.960  15.137   6.907 -0.0331 -0.0717 -0.0797
 9767W        W12987   6.517  17.004  15.230  0.0076  0.0871 -0.2527
 9768W        W12988  14.782  15.015  14.416  0.2995 -0.2894 -0.1721
 9769W        W12989   4.718  15.914   6.262  0.0445 -0.0571 -0.0650
 9770W        W12990   3.686  17.365  11.148 -0.2624  0.1909  0.4085
 9771W        W12991   1.512   1.185  12.796 -0.1052  0.0458 -0.3497
 9772W        W12992  17.424   1.053   1.751  0.1449 -0.0545 -0.1325
 9773W        W12993   0.071  16.683   0.373  0.1543  0.2589 -0.0337
 9774W        W12994  11.713  16.958  16.125  0.1042 -0.2495  0.1537
 9775W        W12995  18.089  16.976  13.495  0.0444  0.1929 -0.2491
 9776W        W12996   1.446   2.118  16.133 -0.0311 -0.2085 -0.1431
 9777W        W12997   8.071   0.122  13.654 -0.1385  0.0479 -0.1846
 9778W        W12998   2.541  12.754  11.371  0.2356 -0.0003 -0.3408
 9779W        W12999  15.059   7.194   2.313  0.1031 -0.0144 -0.3534
 9780W        W13000   1.619  17.637  15.213  0.0132 -0.0219  0.1332
 9781W        W13001  16.677  14.861   8.292 -0.0629  0.1671  0.1464
 9782W        W13002  11.593  14.509   2.618 -0.1294 -0.0241  0.0188
 9783W        W13003   1.542  17.447  12.463  0.2662  0.2420 -0.1549
 9784W        W13004  17.442  16.973  10.767 -0.0840 -0.0028 -0.1685
 9785W        W13005   5.384  16.363   1.216  0.1736  0.1193 -0.1416
 9786W        W13006   4.470  11.591   0.701 -0.0389  0.0385  0.1056
 9787W        W13007   2.086  16.019  13.374 -0.0939  0.2360  0.1834
 9788W        W13008   2.945  15.726   0.911  0.1916  0.0073  0.1619
 9789W        W13009  10.696   5.594   9.580  0.1752  0.1612  0.2050
 9790W        W13010  10.302  15.158  15.258 -0.0376 -0.0686 -0.1324
 9791W        W13011   4.825  10.418  12.962 -0.0703 -0.0886 -0.1787
 9792W        W13012   4.874  15.065  15.515 -0.0059 -0.0734  0.1447
 9793W        W13013   2.040  12.762   9.244  0.1440 -0.2445 -0.1573
 9794W        W13014  12.297  14.515  11.935  0.1567  0.0813  0.1347
 9795W        W13015  14.418  10.325   0.966 -0.1805 -0.2061 -0.2350
 9796W        W13016  12.271  12.341   0.974  0.2554  0.1696 -0.0496
 9797W        W13017   4.213   2.251   2.192  0.0645 -0.0536 -0.2862
 9798W        W13018   2.067  17.192  14.710  0.1338 -0.1413  0.1553
 9799W        W13019   2.227   0.200   0.479 -0.2148  0.3225  0.0805
 9800W        W13020   1.171   2.264  15.385 -0.3021 -0.2100 -0.0008
 9801W        W13021   4.105   4.111  10.621 -0.0203 -0.1830  0.1245
 9802W        W13022   4.372  14.738  17.598  0.1057  0.0374 -0.0713
 9803W        W13023  14.355  16.692  15.998 -0.1914  0.0780  0.1512
 9804W        W13024  16.059  17.543  17.280  0.1925 -0.1965 -0.3110
 9805W        W13025  16.275   1.690   4.239 -0.0767 -0.0510  0.1717
 9806W        W13026   9.412   3.450   1.272  0.0900  0.0735  0.0797
 9807W        W13027   8.429  16.307  14.282 -0.1265 -0.0299 -0.1036
 9808W        W13028   0.424  15.478   8.377  0.3178  0.1891 -0.0974
 9809W        W13029  11.369   7.987   3.060 -0.0238  0.1099 -0.2828
 9810W        W13030   5.386   6.691  15.220  0.2830 -0.4027  0.4268
 9811W        W13031  17.730   3.011  17.200  0.4701  0.1156  0.3371
 9812W        W13032  16.546  16.272   8.693  0.1452 -0.1506 -0.3009
 9813W        W13033   3.669  11.374   2.362  0.1737  0.1093  0.0573
 9814W        W13034  15.193   2.274  11.429  0.0071  0.0392  0.1281
 9815W        W13035   3.348  11.152  10.931 -0.3974 -0.0998 -0.0407
 9816W        W13036   6.592  16.110  12.148  0.0616  0.1687 -0.0563
 9817W        W13037  12.200   1.224  14.370 -0.1927  0.3050  0.1715
 9818W        W13038   0.702   2.087   2.275  0.0067 -0.0846  0.0388
 9819W        W13039  17.808   5.624   1.594  0.0625  0.0495 -0.3388
 9820W        W13040   6.665   4.099   1.643  0.2899  0.0680 -0.2036
 9821W        W13041  15.404   2.839   4.429  0.2900  0.2132  0.1270
 9822W        W13042   4.084  17.728   1.044  0.0186 -0.0382  0.1141
 9823W        W13043   3.619  12.041  11.138  0.0453 -0.1332 -0.1611
 9824W        W13044  16.552   1.589  13.125  0.0009 -0.0130 -0.1556
 9825W        W13045  13.425  14.254  16.375 -0.1004 -0.2229 -0.0184
 9826W        W13046   2.393   2.289   3.913  0.2013  0.1525  0.3166
 9827W        W13047  15.373  17.722  12.872 -0.3580 -0.3223  0.1556
 9828W        W13048  13.951   1.595   0.588  0.1577 -0.0892 -0.0292
 9829W        W13049   2.436  13.571   0.386  0.1286 -0.0512 -0.0161
 9830W        W13050   5.439  12.549   5.065 -0.2372  0.1924  0.0658
 9831W        W13051  15.916  10.992   6.320  0.0739  0.0361 -0.1424
 9832W        W13052  16.437  17.007  11.647  0.3054  0.1769 -0.2499
 9833W        W13053   3.782  16.019  13.794  0.0432 -0.1434  0.1573
 9834W        W13054   0.317   0.130  15.745 -0.0371 -0.2194  0.0782
 9835W        W13055   5.652  12.722  16.716 -0.0626  0.2464 -0.1413
 9836W        W13056   9.145  11.934  18.197 -0.0594 -0.3820 -0.1494
 9837W        W13057   1.727  16.395   0.953 -0.2202 -0.1391 -0.2734
 9838W        W13058   1.892  17.635  17.210  0.3474  0.0512  0.0429
 9839W        W13059  16.438   2.611  17.494  0.1386  0.4018  0.0438
 9840W        W13060  15.811   0.022  11.492 -0.0934 -0.1413  0.4256
 9841W        W13061   5.350  13.721  12.489  0.0602  0.1338 -0.2156
 9842W        W13062  16.931   7.812   4.079  0.1843  0.0165 -0.0422
 9843W        W13063  14.205   2.607  18.211  0.0343 -0.1493 -0.1074
 9844W        W13064  17.511  14.966  14.879  0.1204  0.0127  0.1917
 9845W        W13065   4.492   8.930  15.588 -0.1719 -0.3522  0.1189
 9846W        W13066   4.032  13.692  15.868  0.1054  0.1311  0.2415
 9847W        W13067   2.217  16.824  10.863 -0.1113 -0.0624 -0.2727
 9848W        W13068   4.897  16.518  16.216  0.0993 -0.0917  0.0355
 9849W        W13069   2.321  15.313   2.103  0.2584 -0.0383  0.2672
 9850W        W13070  13.574  12.996  13.550 -0.0104  0.0944 -0.0465
 9851W        W13071  14.790   2.006  12.917 -0.1752 -0.1192 -0.1845
 9852W        W13072   0.597  14.387  15.954 -0.1636  0.1795  0.0011
 9853W        W13073   3.293  15.268  10.452 -0.3509 -0.1483 -0.2698
 9854W        W13074   3.201  14.754   0.287 -0.1874  0.0858  0.1201
 9855W        W13075   0.176  15.110   1.703  0.0181 -0.1621 -0.1391
 9856W        W13076  16.577   1.024  11.934 -0.1193 -0.2258 -0.3755
 9857W        W13077   0.237  16.349   8.918  0.2483 -0.1373 -0.0342
 9858W        W13078   8.633   0.384   8.674  0.1985 -0.2613 -0.1832
 9859W        W13079   1.138  18.139  16.914 -0.1058  0.0666  0.0991
 9860W        W13080   4.689  13.484  17.359 -0.2611 -0.0200  0.0643
 9861W        W13081   2.821  17.950   0.614  0.0216 -0.1810  0.0111
 9862W        W13082  13.418  12.187   6.476  0.0451 -0.0444 -0.0608
 9863W        W13083   0.558  12.555  12.075 -0.1473  0.3779  0.0458
 9864W        W13084   1.762  12.614   1.152 -0.1721 -0.0467  0.2379
 9865W        W13085  13.243   0.119   3.195  0.0529  0.0976  0.1470
 9866W        W13086   0.822  16.981   0.749 -0.1789  0.2739  0.1813
 9867W        W13087  18.122  18.174  15.733  0.1603 -0.0226  0.1777
 9868W        W13088   4.053  16.097  10.363 -0.1326 -0.1472  0.2246
 9869W        W13089   6.213  16.038   0.109  0.1464  0.0468 -0.1876
 9870W        W13090  13.399  13.149   8.538  0.1535  0.0043  0.0551
 9871W        W13091  17.677  17.725   3.108  0.3323 -0.0060  0.2996
 9872W        W13092  11.599  11.070  13.297 -0.0566  0.2709  0.1197
 9873W        W13093  17.878  12.059  16.710  0.3028  0.1630  0.1474
 9874W        W13094   4.929  17.595   0.930 -0.1024  0.0584  0.0668
 9875W        W13095   2.380   8.051  11.491 -0.1431 -0.1356 -0.0322
 9876W        W13096   0.257   3.493   0.807 -0.1408  0.1555 -0.0251
 9877W        W13097  18.251  15.808  13.481 -0.0859  0.2969  0.1638
 9878W        W13098   3.144  15.753  15.980  0.0481 -0.0625 -0.0141
 9879W        W13099  17.945  15.357   2.729 -0.2246  0.1299 -0.0764
 9880W        W13100   1.287   1.527   4.033 -0.0687  0.0951  0.1497
 9881W        W13101  15.957  16.226   2.591 -0.0828  0.0866 -0.0898
 9882W        W13102   1.109  15.033   2.085 -0.0267 -0.1756 -0.1128
 9883W        W13103   5.356  11.126   1.144  0.0946  0.2143 -0.0447
 9884W        W13104   0.252   1.427  16.556  0.1910  0.1916 -0.0680
 9885W        W13105  13.112  12.032  14.609  0.0856  0.1395 -0.1966
 9886W        W13106   3.741   1.840   2.219  0.0301  0.2280  0.0708
 9887W        W13107   3.758   1.618  17.339 -0.5903 -0.0046  0.4303
 9888W        W13108   2.104   6.816  16.927 -0.2225 -0.1265  0.3067
 9889W        W13109  15.339  16.600   1.113 -0.0953 -0.2784  0.0135
 9890W        W13110  17.257   1.418  14.120 -0.2135  0.0915  0.0469
 9891W        W13111   2.192  16.939   2.107 -0.0887  0.2428  0.0060
 9892W        W13112   8.048  16.942  17.774 -0.1475 -0.1252  0.3063
 9893W        W13113   4.137   3.459  12.857  0.2837  0.1222  0.1461
 9894W        W13114   5.866   7.205  17.997 -0.0575 -0.2708 -0.2337
 9895W        W13115  15.620  15.600   3.106 -0.0266  0.2362 -0.1867
 9896W        W13116  14.008  16.470  15.027 -0.2276 -0.0621 -0.0053
 9897W        W13117   3.360   0.139  14.138 -0.0967 -0.1367 -0.1857
 9898W        W13118   4.522  10.101   0.245 -0.1195 -0.2140 -0.2193
 9899W        W13119  13.278   2.708   2.344  0.0660  0.0253 -0.2375
 9900W        W13120   9.783   3.640  15.876  0.0180  0.3817 -0.0624
 9901W        W13121  12.944   0.677  15.947 -0.0410 -0.2808  0.2017
 9902W        W13122   8.235   4.898   9.440 -0.0072  0.1711  0.0395
 9903W        W13123   1.238   5.377   0.743 -0.2693  0.0283 -0.1611
 9904W        W13124   8.275   4.530   5.070  0.1110  0.0048 -0.3723
 9905W        W13125   6.932  16.677  15.538  0.1536  0.0885 -0.1829
 9906W        W13126  11.212   4.378   3.659  0.1154 -0.0202 -0.1621
 9907W        W13127   7.419  14.456   5.489 -0.0842  0.1037  0.0167
 9908W        W13128  16.427  18.121   2.153 -0.1511  0.0820 -0.1713
 9909W        W13129   4.677  14.444  16.495 -0.1008  0.0608 -0.1355
 9910W        W13130   6.607   7.326  10.946 -0.3144 -0.3763 -0.0508
 9911W        W13131   5.245  17.945   2.706 -0.0845 -0.0207  0.0786
 9912W        W13132   7.436   3.229  15.071 -0.1709 -0.1759  0.2471
 9913W        W13133  11.871  17.266  10.363 -0.0407  0.2293 -0.0691
 9914W        W13134   3.754  18.000   0.395 -0.0684 -0.0361  0.2217
 9915W        W13135   6.513  16.804  17.957  0.0583 -0.1118 -0.0250
 9916W        W13136   2.347  14.845   3.073  0.0309  0.1851 -0.0024
 9917W        W13137   2.352   1.601   5.715 -0.1402  0.0131 -0.3498
 9918W        W13138  17.630   3.819   0.533  0.2597  0.2367 -0.0159
 9919W        W13139   5.595  15.443   6.188  0.0985  0.0953 -0.2482
 9920W        W13140   5.731   1.396   4.154 -0.0549  0.0583 -0.0775
 9921W        W13141   5.005  17.819  12.807 -0.2454  0.4245  0.0747
 9922W        W13142   3.967   4.776   2.122  0.1716 -0.2746  0.0875
 9923W        W13143   2.954   0.651  16.617  0.3454  0.0082  0.2602
 9924W        W13144   9.393   8.968   7.423 -0.2893 -0.2586  0.0081
 9925W        W13145   3.557  16.312   6.074  0.1859 -0.1455  0.2307
 9926W        W13146   3.004   2.368   7.383  0.4156 -0.3241  0.0845
 9927W        W13147  12.134   0.931   1.706 -0.1688  0.0405  0.2054
 9928W        W13148   7.882   1.346   8.671  0.0936  0.2225 -0.0509
 9929W        W13149  13.355   5.589   2.801  0.0354 -0.0089  0.1316
 9930W        W13150   7.344   5.135   9.956 -0.0892 -0.2119 -0.1390
 9931W        W13151   4.649  17.252  14.019  0.1499  0.0290  0.0462
 9932W        W13152   2.036   3.596   6.482  0.1579  0.1118 -0.1790
 9933W        W13153  11.002   1.681   4.494  0.0632  0.0182 -0.2647
 9934W        W13154   2.043  15.917  10.322 -0.0842 -0.0706 -0.0589
 9935W        W13155   6.939   2.887   6.865 -0.1461  0.2820  0.0168
 9936W        W13156   1.544  11.306   8.116  0.2063  0.1187  0.1828
 9937W        W13157   9.022   0.951   7.250  0.0583  0.0673 -0.1172
 9938W        W13158   5.709   8.372  16.696 -0.1751  0.0793  0.3169
 9939W        W13159   5.211   3.941   2.506 -0.0167  0.1584  0.0661
 9940W        W13160   1.584  15.371   7.396 -0.0478  0.1532 -0.1995
 9941W        W13161   4.317   1.916   6.830 -0.0496 -0.2628 -0.1520
 9942W        W13162   9.469  17.166   4.503  0.1911 -0.1385  0.0647
 9943W        W13163   6.093   0.542  15.716  0.0048 -0.0385  0.2096
 9944W        W13164   3.497  15.033   4.513  0.1305 -0.2176  0.0232
 9945W        W13165  14.042  18.152   2.510 -0.1237 -0.0193 -0.0664
 9946W        W13166   5.605   4.858  17.228  0.0541 -0.5679  0.3950
 9947W        W13167   7.884   0.675  17.909 -0.0394 -0.1783  0.3512
 9948W        W13168   7.033  17.600   2.266 -0.2063 -0.0776  0.0933
 9949W        W13169   4.503   0.769   4.461  0.3017 -0.0750  0.0566
 9950W        W13170   0.786  16.705   2.781  0.1636  0.0130 -0.3707
 9951W        W13171  17.071   0.163   6.713 -0.2153  0.0796  0.0857
 9952W        W13172   6.022   1.245  15.522 -0.1545  0.0059 -0.2022
 9953W        W13173   8.278   2.175   1.274  0.1642 -0.0546 -0.2458
 9954W        W13174   3.493   7.909  14.743  0.1076 -0.1849 -0.1943
 9955W        W13175   3.998   0.381  11.324 -0.0143  0.1994 -0.1352
 9956W        W13176   2.713  17.532  16.425  0.2940  0.0083 -0.3587
 9957W        W13177   8.109   0.348   9.779 -0.1347  0.1391  0.2328
 9958W        W13178   2.467   3.393   6.600 -0.0031  0.1571 -0.3748
 9959W        W13179   8.100   4.710   3.378 -0.0357 -0.0661  0.2948
 9960W        W13180  16.065   4.523  15.351 -0.4044 -0.2249 -0.0177
 9961W        W13181   7.908  16.468   3.837  0.0952 -0.0898 -0.2252
 9962W        W13182   1.424   0.603  11.060 -0.0588  0.3865 -0.1589
 9963W        W13183  17.838   4.096   6.274  0.2823 -0.0612  0.1708
 9964W        W13184   8.129  17.266   2.897  0.2398  0.1764  0.0162
 9965W        W13185  10.680  17.461  12.855  0.1738 -0.3257  0.0735
 9966W        W13186   1.878   5.209   1.393  0.3731 -0.0980  0.1678
 9967W        W13187   1.599   1.931   2.696  0.1090 -0.3059  0.2088
 9968W        W13188   5.747   0.840   1.956  0.1709  0.2891 -0.1743
 9969W        W13189   6.868   2.558   4.000 -0.0208  0.0089  0.3060
 9970W        W13190  10.805   6.102   3.643  0.1161  0.1121  0.1229
 9971W        W13191   7.294  17.517   4.010  0.1137 -0.0883  0.0694
 9972W        W13192   8.371  16.215  15.474 -0.4010 -0.1545  0.1387
 9973W        W13193  14.892   1.615  17.533  0.1017  0.2804  0.2807
 9974W        W13194   8.387   3.335  15.636 -0.0161  0.2221  0.1378
 9975W        W13195  10.187  17.708   2.828  0.0745  0.0986  0.2770
 9976W        W13196   7.405  12.885   8.224 -0.0254 -0.2388 -0.2267
 9977W        W13197   3.877  15.618   7.656  0.1150  0.3651 -0.2313
 9978W        W13198   3.678   5.478  15.334  0.0732 -0.3541 -0.2133
 9979W        W13199   5.794  16.999   8.586  0.0217  0.3474 -0.0936
 9980W        W13200   3.471   3.103  15.392  0.1367  0.3522  0.0361
 9981W        W13201  10.432   5.082   1.761 -0.0233  0.3469 -0.1867
 9982W        W13202   7.254   4.174   3.291  0.0853 -0.1288 -0.0035
 9983W        W13203  10.951  10.548   3.384  0.1706 -0.1063  0.3007
 9984W        W13204  10.701   3.872   0.805  0.1508  0.1019  0.2285
 9985W        W13205  12.465   3.590  15.769  0.0621 -0.0229 -0.1517
 9986W        W13206   1.162  15.928   6.632  0.1795  0.1988 -0.0995
 9987W        W13207   6.961   6.152  17.693 -0.1777  0.0678  0.1988
 9988W        W13208   4.853   8.745  15.131  0.0514  0.4482  0.0095
 9989W        W13209   5.553   1.576   4.565  0.0267  0.1521  0.0647
 9990W        W13210   7.793   5.497   8.452  0.4171 -0.0791  0.4205
 9991W        W13211   7.192  16.358  15.123  0.1271  0.0340  0.0384
 9992W        W13212  15.720   0.080   5.193  0.0722  0.2057 -0.2416
 9993W        W13213   4.192   3.363   4.430  0.2345 -0.1745  0.1991
 9994W        W13214   4.932   0.896  15.764  0.0077 -0.0745 -0.0095
 9995W        W13215   5.857   5.063  16.764  0.1767  0.1968 -0.0400
 9996W        W13216  10.627   5.429   5.164 -0.1476  0.0168 -0.2415
 9997W        W13217   4.882  14.697   7.149  0.0054  0.0632 -0.2706
 9998W        W13218  10.643   2.117   7.857  0.0018  0.1388 -0.1869
 9999W        W13219  14.227  15.123   3.266  0.1579 -0.1088 -0.1868
10000W        W13220  13.585  12.772   3.927  0.0328 -0.0641  0.1924
10001W        W13221  17.710   9.423  15.320 -0.0125 -0.1018 -0.0830
10002W        W13222   3.134   8.625  17.478 -0.0734  0.1846  0.1065
10003W        W13223   9.685   3.410   4.692  0.1181 -0.4087 -0.1989
10004W        W13224   6.586  13.250   4.855 -0.0268 -0.0424  0.0042
10005W        W13225   8.543  15.956   0.941 -0.1429 -0.2149 -0.1021
10006W        W13226   9.450   2.332   1.086  0.0153 -0.0791 -0.2082
10007W        W13227   6.079  13.276   4.582  0.2345 -0.4539  0.0997
10008W        W13228   5.132   1.144  14.689  0.1890  0.2371  0.0055
10009W        W13229   7.996   4.314  16.287  0.2913  0.1007 -0.1256
10010W        W13230  13.630   2.081   3.051 -0.1943  0.1747 -0.0410
10011W        W13231   3.858   1.394   0.062  0.0253  0.1086  0.0544
10012W        W13232   5.391   4.895   4.428  0.3062 -0.2845  0.1515
10013W        W13233   5.082   2.204   2.653 -0.3900  0.1731 -0.1702
10014W        W13234  17.660   6.026   2.717 -0.1027 -0.3206 -0.0134
10015W        W13235   8.598  17.483  15.660  0.0270  0.2288 -0.3470
10016W        W13236   5.967  17.678   2.353 -0.0725 -0.0681 -0.3117
10017W        W13237  15.876   0.961  14.170 -0.1838 -0.0223 -0.3501
10018W        W13238   2.884  17.206   1.587 -0.2235 -0.1519  0.1533
10019W        W13239   1.428   1.978   8.767  0.0094 -0.5098 -0.1247
10020W        W13240  17.806  10.316   0.845 -0.1547  0.0253 -0.1588
10021W        W13241   6.057  11.574  17.595  0.1385 -0.2545  0.1963
10022W        W13242  17.667   5.662   6.273 -0.0327 -0.1932  0.0761
10023W        W13243  14.792   4.687  18.170 -0.2980  0.0265  0.0199
10024W        W13244   3.213   2.687   9.379  0.1729 -0.2321  0.0964
10025W        W13245   3.307  17.135   0.773 -0.1416 -0.1848 -0.0965
10026W        W13246   4.386   8.373  12.808  0.0323  0.1490  0.0536
10027W        W13247   3.070  16.176   1.696  0.0827  0.0878  0.2042
10028W        W13248  10.860   1.655  11.226  0.1881 -0.1607 -0.2027
10029W        W13249   6.245   0.170   6.602 -0.1418 -0.0176 -0.2276
10030W        W13250   7.529   0.144  17.894  0.0982 -0.2365 -0.2833
10031W        W13251   3.497   1.500   4.986  0.2047  0.1782  0.1271
10032W        W13252   4.485  12.297   4.959  0.0812 -0.0127 -0.3541
10033W        W13253   9.114   0.162   5.107 -0.0334 -0.2660 -0.2189
10034W        W13254   7.236   1.995   5.352 -0.3912 -0.1394 -0.1599
10035W        W13255  10.738   1.303   6.409  0.2317 -0.2958 -0.3290
10036W        W13256   3.307   2.294  15.199  0.1713 -0.1806 -0.1928
10037W        W13257  14.104  17.745  16.085 -0.2169 -0.0721 -0.3388
10038W        W13258   5.373  16.065   2.175  0.2088  0.0824 -0.0286
10039W        W13259   6.210  15.582   2.467 -0.1513 -0.1446  0.2648
10040W        W13260   0.798   1.167   0.583 -0.2049  0.4060 -0.0434
10041W        W13261   8.264  17.465  11.992 -0.0862  0.1751  0.2925
10042W        W13262   5.051  14.977   8.822 -0.3411  0.1024  0.0224
10043W        W13263   9.089  14.950  16.161  0.0213  0.2251 -0.0347
10044W        W13264   3.999   1.064  15.762  0.1376 -0.2090 -0.0701
10045W        W13265   8.082  15.977   2.031 -0.1925 -0.2656 -0.2281
10046W        W13266   4.082   2.423  16.866 -0.0498  0.3192 -0.0546
10047W        W13267   9.019   2.402   3.274  0.6120  0.0350  0.1658
10048W        W13268   6.473   0.648   4.681  0.2216  0.3185 -0.0259
10049W        W13269   4.283  15.905   1.448  0.1632 -0.0570 -0.2215
10050W        W13270   3.492   5.557  12.032 -0.2442 -0.1544 -0.0299
10051W        W13271   7.434   0.714   2.795 -0.0944 -0.1234 -0.1486
10052W        W13272   9.536  17.466   4.969 -0.1750 -0.1981  0.2973
10053W        W13273  10.405   4.215   8.302  0.0654 -0.0573 -0.0201
10054W        W13274  12.730   7.937  12.071  0.2292  0.1663 -0.0577
10055W        W13275  17.521   0.009   5.315  0.0736  0.1131  0.2372
10056W        W13276   6.061  17.036  18.094 -0.0321  0.2230 -0.1407
10057W        W13277   6.037   4.597  16.941 -0.0258 -0.1655  0.2348
10058W        W13278   6.431  10.703   0.181  0.4013 -0.2451  0.1935
10059W        W13279  18.177  17.704  12.528  0.0501 -0.0593 -0.1713
10060W        W13280   5.201   0.977  15.134  0.1534  0.1979  0.0488
10061W        W13281   6.036  12.988   2.183 -0.1492 -0.1699  0.0344
10062W        W13282   1.338  17.965   5.726 -0.0067  0.0566 -0.0206
10063W        W13283  10.243   4.152   5.801 -0.0892 -0.0365  0.4683
10064W        W13284   6.898  16.996   9.694 -0.0057 -0.2005 -0.1140
10065W        W13285   5.002   6.650   2.653  0.1284  0.0458  0.1932
10066W        W13286   2.095  15.994   5.288  0.0930 -0.2883  0.0596
10067W        W13287  17.052   2.951   3.649  0.0228  0.1424 -0.1072
10068W        W13288   3.777   7.695   0.273  0.4041 -0.1889 -0.1353
10069W        W13289   1.573   1.941   0.113 -0.0460 -0.2200  0.1276
10070W        W13290   5.991   2.815   0.136 -0.2916 -0.5408 -0.0375
10071W        W13291   1.573  14.917   1.342  0.0091 -0.0771 -0.0743
10072W        W13292   5.035   7.836  17.995 -0.3521  0.0452 -0.0627
10073W        W13293   8.428   2.257   6.093 -0.2853  0.1025 -0.0498
10074W        W13294   9.148  17.029   2.937 -0.0486 -0.3539  0.1859
10075W        W13295   6.749  15.467   0.538 -0.0516 -0.1671 -0.2484
10076W        W13296   1.644   1.691   5.789 -0.1744 -0.0636  0.1423
10077W        W13297   3.033  17.560  17.229  0.4022 -0.2722  0.0572
10078W        W13298   0.241   0.101   2.014  0.0130 -0.2663 -0.1010
10079W        W13299  12.363  16.340   5.585  0.1112  0.2332 -0.1085
10080W        W13300   3.960   1.345  14.718  0.1219 -0.0678 -0.1823
10081W        W13301   3.749   5.738   6.464  0.1841  0.0780 -0.4265
10082W        W13302   3.549   5.588   0.510  0.3074  0.1355  0.2208
10083W        W13303   5.991   4.148  13.682  0.1922 -0.0532  0.1919
10084W        W13304   6.552   2.199   0.646  0.0325 -0.0085 -0.1842
10085W        W13305  14.016  15.542  14.567  0.2439  0.0943 -0.0589
10086W        W13306   7.439   3.714   8.317  0.1801 -0.1444 -0.4092
10087W        W13307   1.594  16.767  11.683  0.2426 -0.1049 -0.0106
10088W        W13308   5.567  18.134  17.799 -0.0663  0.2872  0.3077
10089W        W13309   4.507   9.015   0.391 -0.2622  0.2193 -0.0013
10090W        W13310   9.337   5.424   0.088  0.4586  0.2546 -0.0596
10091W        W13311   3.275  18.075  16.770 -0.0773  0.1491  0.0918
10092W        W13312   3.148   1.551   2.780  0.0605 -0.0560  0.2857
10093W        W13313   7.040   1.828   2.295 -0.1615 -0.2430 -0.1697
10094W        W13314  10.808  13.912  15.036  0.2422  0.1477  0.3434
10095W        W13315   1.762  16.854  14.518  0.0359 -0.1262 -0.1395
10096W        W13316   9.077  15.111  17.987  0.0400 -0.0448 -0.2910
10097W        W13317   8.446  17.009   1.337 -0.2422  0.2304 -0.0646
10098W        W13318   2.557  16.653   4.306  0.0272 -0.0165 -0.2604
10099W        W13319  18.009   5.175  13.881 -0.0041 -0.4002 -0.1683
10100W        W13320   5.952  15.409   2.872  0.2790 -0.2053  0.0491
10101W        W13321   4.707   1.764   2.041  0.2904 -0.1665  0.0050
10102W        W13322   5.272   6.545  17.090 -0.1024 -0.0025  0.2356
10103W        W13323   6.328  15.339  12.646 -0.0240 -0.2341  0.0220
10104W        W13324   4.880  17.754   1.367 -0.0275  0.2901  0.0992
10105W        W13325   4.366  16.904   2.103 -0.0932 -0.0806 -0.2904
10106W        W13326   6.080  17.931   0.146 -0.2167  0.2393  0.1288
10107W        W13327  16.486  13.054   9.176  0.2372 -0.1339 -0.1499
10108W        W13328  17.586  11.315   1.979  0.1266 -0.0322  0.0743
10109W        W13329   5.462   0.512   9.792  0.1143 -0.2260 -0.1483
10110W        W13330   1.555   2.557   1.425  0.6063 -0.1104 -0.0575
10111W        W13331   5.206   3.183  16.869  0.0443  0.0813 -0.0668
10112W        W13332   5.960  12.374   4.153  0.3423 -0.1312 -0.1794
10113W        W13333   4.354  16.029   5.851 -0.0044  0.0437 -0.0301
10114W        W13334   7.983  18.160   5.129 -0.1369  0.0926 -0.2682
10115W        W13335   9.036   1.343   8.660 -0.2243  0.1330 -0.1680
10116W        W13336   7.662   3.015   3.559  0.3051 -0.2148 -0.1554
10117W        W13337  11.537  14.964  16.532 -0.0505 -0.1385 -0.3027
10118W        W13338   4.955   6.585  17.866  0.2295  0.2309 -0.0961
10119W        W13339   7.358   3.561   0.515  0.1997  0.0650  0.2714
10120W        W13340   4.984   8.655  16.049 -0.0173  0.2409 -0.0327
10121W        W13341   9.076  16.283   0.097  0.0898  0.0864  0.3288
10122W        W13342   5.778   2.399   3.200 -0.1326  0.0711 -0.0092
10123W        W13343   5.486   8.073   2.406 -0.4214 -0.0458  0.2432
10124W        W13344  11.049  16.707  17.212 -0.0747  0.1305 -0.1390
10125W        W13345   9.445  18.095  15.644  0.0648  0.0587  0.2362
10126W        W13346   4.636   1.401   4.222  0.1971  0.0916 -0.0525
10127W        W13347   4.136   9.083   1.732 -0.2117  0.0135  0.1601
10128W        W13348   6.319   4.135   3.245  0.0082  0.3777 -0.0689
10129W        W13349   8.980  17.632  14.094 -0.1018  0.1353 -0.2221
10130W        W13350   3.285  15.795  14.382  0.0627  0.1525  0.1425
10131W        W13351   4.990  15.772   0.865 -0.2132 -0.2498 -0.1679
10132W        W13352   2.290   3.318  10.510  0.1409 -0.0320  0.0329
10133W        W13353   5.024  17.782  16.352  0.0740 -0.1207  0.1131
10134W        W13354   9.601  17.443  17.671  0.2403 -0.3111  0.0157
10135W        W13355   5.906   1.053   5.558 -0.0335 -0.1532 -0.0112
10136W        W13356   7.115   8.899   9.391  0.0687  0.0134  0.1300
10137W        W13357   4.337  15.150   6.489 -0.2147 -0.0239 -0.2742
10138W        W13358  16.101   4.233   6.200  0.1995 -0.2459 -0.2186
10139W        W13359  12.828   1.948   7.830  0.1435 -0.0876  0.0805
10140W        W13360   6.453   1.059   2.510 -0.1498 -0.2772  0.1478
10141W        W13361   1.452   0.640   1.578 -0.2815 -0.1333 -0.0675
10142W        W13362   6.713   9.659  17.014 -0.0123  0.0650  0.1786
10143W        W13363   9.334  16.663  12.930  0.1980 -0.3068  0.1184
10144W        W13364   9.007  17.459   4.754 -0.1197  0.0068  0.3188
10145W        W13365   4.032   5.153   1.786 -0.0951 -0.0512 -0.3480
10146W        W13366  10.189  17.441   7.627 -0.1923 -0.1237 -0.0035
10147W        W13367  13.910  16.964   5.003 -0.0361  0.1913 -0.0165
10148W        W13368  12.821   4.241  17.847  0.1998 -0.0005  0.2428
10149W        W13369   4.719   3.635  14.211  0.1719  0.0388 -0.0217
10150W        W13370   8.356   3.196   0.025 -0.5534  0.1840 -0.0503
10151W        W13371   7.789   5.194   5.358 -0.1966  0.0513  0.2705
10152W        W13372   2.997  16.110   1.204  0.0228  0.0183 -0.0793
10153W        W13373   0.180   1.144   1.803 -0.3707  0.0160 -0.0140
10154W        W13374  15.651   4.352   6.156 -0.0111 -0.0253  0.0271
10155W        W13375   8.268   1.355   1.726 -0.1615 -0.2354 -0.0434
10156W        W13376   2.830  17.247   7.971  0.0074 -0.0640 -0.0473
10157W        W13377  13.129  15.710   1.816  0.1225 -0.0798  0.2939
10158W        W13378  12.531   3.087  12.758  0.0757  0.0024  0.4139
10159W        W13379  11.743   2.182   2.209  0.1885  0.1798 -0.2847
10160W        W13380   3.985   8.740   7.316 -0.3886  0.1065 -0.0536
10161W        W13381   9.390   1.163  13.916  0.1522  0.3892 -0.1777
10162W        W13382   0.295  17.226   5.807  0.0694  0.0845  0.1889
10163W        W13383   3.454  17.451   6.784 -0.0825  0.1408 -0.0416
10164W        W13384   8.035   2.676   6.025  0.1765 -0.2881  0.1015
10165W        W13385   5.708   8.265  15.624 -0.0499  0.1048  0.2686
10166W        W13386  14.321   2.209  12.834  0.1729  0.0246  0.0078
10167W        W13387   5.733  14.773   1.546 -0.0038 -0.0706  0.2478
10168W        W13388   2.683   2.573  17.295  0.0018  0.0005 -0.5167
10169W        W13389   2.024   9.164  16.201 -0.0504 -0.2133  0.1843
10170W        W13390   3.709  16.381   0.938 -0.0096  0.1084  0.0478
10171W        W13391   8.311   0.646   3.337  0.0367 -0.2698  0.1596
10172W        W13392   4.642   2.239   4.533  0.0127  0.1285 -0.1456
10173W        W13393   8.486   1.353   6.175 -0.2320 -0.1275  0.2118
10174W        W13394   4.176   1.917   3.334 -0.0622  0.2529  0.2472
10175W        W13395   6.369   9.589   2.528 -0.1151 -0.3700 -0.1745
10176W        W13396  14.755   5.155  16.087  0.0660 -0.0782  0.0866
10177W        W13397   1.124  13.973  14.284  0.0965  0.1587 -0.1482
10178W        W13398   1.164  11.123   3.775 -0.1722 -0.0038 -0.0794
10179W        W13399   5.029   0.524  16.515  0.1159 -0.0360 -0.0337
10180W        W13400   0.226  15.645  11.292  0.0300  0.4276  0.3003
10181W        W13401   9.571  10.643  16.698  0.1511  0.3012 -0.1924
10182W        W13402   2.459   1.681  16.575 -0.2171 -0.1860  0.0319
10183W        W13403   3.169   2.645   6.557 -0.0281  0.0154 -0.1601
10184W        W13404   8.250  17.177   0.016 -0.2419  0.1842 -0.0944
10185W        W13405   7.752   5.546   2.016  0.1197  0.2847 -0.0048
10186W        W13406   4.663   7.891  13.654 -0.1427 -0.0582 -0.1512
10187W        W13407   8.135   2.044   3.030  0.1745  0.1547 -0.0406
10188W        W13408   2.164   2.816  11.019  0.0158  0.2297  0.0093
10189W        W13409   1.880   2.748   0.541  0.1871  0.2824 -0.1336
10190W        W13410  14.287  16.141   4.705  0.0676 -0.2309  0.2444
10191W        W13411   3.299  11.637  10.998  0.0378  0.1777 -0.0389
10192W        W13412   3.510   0.193  16.546 -0.1202  0.1904  0.0239
10193W        W13413  17.102   3.690   3.391 -0.0708  0.1972  0.0558
10194W        W13414   8.509  15.322   5.028 -0.2161  0.1279  0.0890
10195W        W13415   3.192   2.330   0.051  0.0327  0.2970 -0.0293
10196W        W13416   8.382   7.922   7.847  0.0226  0.0295 -0.0472
10197W        W13417   3.663  16.983   7.678  0.2022  0.2473 -0.0056
10198W        W13418   2.268  14.546   3.985  0.0689 -0.0808 -0.1150
10199W        W13419   2.932   7.866  17.192  0.0434 -0.0997 -0.1894
10200W        W13420   6.174   1.853  16.269  0.3280  0.1073  0.0312
10201W        W13421   7.361   4.961  10.641  0.2289 -0.0520 -0.0951
10202W        W13422   5.137  15.356   1.158 -0.0189  0.2287  0.2675
10203W        W13423   3.999   8.687  10.474  0.1810 -0.1038 -0.1786
10204W        W13424   9.461   3.484   2.424 -0.1589  0.0121  0.2619
10205W        W13425   5.044   0.141   6.288 -0.2237 -0.1880 -0.3272
10206W        W13426   6.855  13.804  17.827  0.2328 -0.0010  0.0741
10207W        W13427   1.797   2.124   1.452  0.0907 -0.2082  0.1274
10208W        W13428   8.010   3.047   0.970  0.0518  0.1196 -0.0547
10209W        W13429  10.548   2.376   1.508  0.0055 -0.2181  0.0713
10210W        W13430  10.061   4.781   2.476 -0.2287 -0.1322 -0.1252
10211W        W13431   6.351   0.615  10.109  0.2286 -0.1344 -0.0973
10212W        W13432   6.211   2.928   6.002 -0.2356 -0.0764 -0.1761
10213W        W13433   8.792   0.710   7.784  0.2112  0.2342 -0.1038
10214W        W13434   6.058   9.787   8.604  0.0479  0.4348  0.1676
10215W        W13435   5.724   6.447   6.756  0.2725  0.1074 -0.3280
10216W        W13436  16.230   3.730   9.736  0.0365  0.0420  0.2626
10217W        W13437   9.090   6.233  10.078  0.0235  0.0682  0.1465
10218W        W13438   9.441   9.768   5.105  0.2099  0.1906  0.0095
10219W        W13439   8.943   2.878   3.447 -0.2732  0.3584 -0.0316
10220W        W13440   6.858   3.712   6.641  0.0942  0.1019 -0.1463
10221W        W13441   2.377  17.674   3.268  0.0637 -0.1089  0.2436
10222W        W13442   7.949   4.631  13.230  0.1487  0.0848  0.4174
10223W        W13443   9.588   3.989  17.706 -0.0597  0.0313  0.1050
10224W        W13444   3.903   1.825   2.940  0.1990 -0.2329 -0.1879
10225W        W13445   2.260  14.784  15.167 -0.0154 -0.0566 -0.0850
10226W        W13446  16.037   4.219  16.984  0.1108  0.0523  0.1281
10227W        W13447   0.325   2.908   2.124  0.0999  0.1102 -0.1467
10228W        W13448   1.228   2.107   2.328 -0.2595  0.0949 -0.1970
10229W        W13449   3.915   1.377   1.520  0.1263 -0.3768  0.1141
10230W        W13450  16.579  14.035  11.647 -0.0456 -0.0731  0.1949
10231W        W13451  10.250  15.814   1.569  0.0448 -0.0155 -0.0595
10232W        W13452   7.414   0.007  14.855  0.0837  0.0243 -0.0526
10233W        W13453   5.672  16.260   8.709  0.0120 -0.1734  0.0355
10234W        W13454  10.844   2.080  17.249 -0.4711  0.1261 -0.1522
10235W        W13455   0.533   3.214   4.267  0.1111 -0.1477  0.1286
10236W        W13456   8.454   6.373   2.768 -0.2680 -0.0663  0.2290
10237W        W13457   3.870  12.345   8.271  0.0584  0.1505 -0.0738
10238W        W13458   3.823   5.411  18.168  0.0142  0.0824  0.2498
10239W        W13459  10.081   3.548  17.909 -0.0225 -0.2543 -0.0961
10240W        W13460  10.300  17.907   2.261 -0.0330 -0.2972  0.3780
10241W        W13461   6.452   3.865   0.921 -0.0257  0.1943 -0.0599
10242W        W13462  15.162   6.117  14.591 -0.2412 -0.0201  0.0037
10243W        W13463   3.979  11.952   5.818 -0.1451 -0.1261 -0.1328
10244W        W13464  10.404  16.435   3.403  0.0517 -0.0180  0.1998
10245W        W13465   2.930   2.019   1.464  0.1651  0.2892  0.1525
10246W        W13466   9.889  14.935   0.395  0.1263  0.1354  0.2138
10247W        W13467  16.737   2.526   1.010 -0.0784 -0.0210 -0.0150
10248W        W13468   4.664  18.005   8.897 -0.1833 -0.0273 -0.2219
10249W        W13469   8.578  17.616   5.001 -0.2216 -0.1372  0.3142
10250W        W13470   8.098  14.721   0.605 -0.0867 -0.2347  0.1513
10251W        W13471   9.873  18.136   2.985 -0.2592 -0.1672 -0.1494
10252W        W13472   5.189   9.323   1.615  0.0545  0.0432 -0.1810
10253W        W13473   8.828   4.822   5.351 -0.1293 -0.0021 -0.0897
10254W        W13474  13.245   1.718  14.522 -0.3531 -0.0074  0.0465
10255W        W13475   9.199   7.809  13.882 -0.2426  0.0719 -0.0079
10256W        W13476  16.530  12.532   1.481  0.1425  0.2191 -0.0452
10257W        W13477   8.879  17.934   0.867 -0.0412 -0.1870  0.3099
10258W        W13478  13.602   2.916   3.155 -0.0862  0.1037 -0.0608
10259W        W13479   8.842  17.795  16.209  0.0165  0.1858 -0.2362
10260W        W13480   3.096  17.671   5.360 -0.0408 -0.0238 -0.1202
10261W        W13481   5.399  17.975  15.095 -0.0303  0.1483 -0.1381
10262W        W13482  12.989   1.035  15.174 -0.3610 -0.0738  0.0175
10263W        W13483   3.521  17.463  16.922  0.2053  0.0542 -0.1083
10264W        W13484   6.905   2.428   8.818 -0.1713  0.3076  0.2420
10265W        W13485   0.985  16.981  10.995 -0.1762  0.3099  0.0017
10266W        W13486   2.677   2.562   6.972 -0.0679  0.0965  0.1615
10267W        W13487   7.063   9.738   0.380  0.2247 -0.1733  0.2361
10268W        W13488   7.248  16.111   3.143  0.1013  0.2876 -0.0486
10269W        W13489   4.196   2.326   0.537 -0.0804 -0.1196 -0.0464
10270W        W13490   9.758   2.569  17.572  0.1024  0.0547  0.1736
10271W        W13491   5.047   6.998  11.288 -0.1817 -0.1616  0.0748
10272W        W13492  17.594   7.336   4.669  0.0575 -0.1061  0.1333
10273W        W13493   5.903   4.413   0.556 -0.0629  0.1573 -0.0210
10274W        W13494   3.724  17.729   7.621  0.1136  0.1198  0.0868
10275W        W13495   4.837   5.687   1.452 -0.2256 -0.2197 -0.2871
10276W        W13496   6.361   3.172   4.725 -0.4934  0.1671  0.0560
10277W        W13497   7.929   7.906   7.039 -0.1549 -0.1810  0.0442
10278W        W13498   1.301  12.535   4.784 -0.5502 -0.0266  0.0092
10279W        W13499   7.918   1.804   1.767  0.0176 -0.0678 -0.2819
10280W        W13500   5.063  17.507  14.145  0.1698 -0.0583 -0.1098
10281W        W13501   7.393   1.549   2.412  0.0931  0.1821 -0.2155
10282W        W13502   9.113  17.478   5.263 -0.0746 -0.2521 -0.2235
10283W        W13503  12.750   1.430   6.703  0.2705 -0.1330 -0.3574
10284W        W13504   6.758   1.065  10.835  0.0662 -0.0236 -0.1663
10285W        W13505   9.547   7.293  16.658 -0.1122  0.1713  0.0604
10286W        W13506  17.323   7.596  16.295 -0.0012  0.0639 -0.0903
10287W        W13507   3.764   0.352   0.816  0.1370 -0.2100  0.1859
10288W        W13508   8.293   4.006   1.126  0.1333  0.0635 -0.0298
10289W        W13509   1.243   4.216   6.258  0.0164  0.3964 -0.0501
10290W        W13510   1.120   4.447  17.338 -0.1584  0.0723 -0.1633
10291W        W13511   9.171   0.403  14.591  0.1575  0.3243  0.1202
10292W        W13512   6.108  14.802   2.009  0.1230 -0.0705 -0.1569
10293W        W13513   8.106  13.919   2.467 -0.2015 -0.2319  0.0516
10294W        W13514  17.469   0.585   1.624  0.1213  0.0662  0.2776
10295W        W13515   3.770   8.298  15.712  0.2406 -0.0739 -0.0898
10296W        W13516   7.532   4.742   8.649  0.1016 -0.0670  0.0882
10297W        W13517  13.529  10.679   6.014 -0.3496 -0.2300 -0.1484
10298W        W13518   2.159   8.484   1.208  0.0216 -0.1758  0.1008
10299W        W13519  16.805   2.746  10.050 -0.1747  0.0097  0.2958
10300W        W13520   3.295   0.619   0.548 -0.2658  0.2677 -0.3698
10301W        W13521  10.337  11.689   9.887 -0.0924 -0.1342  0.0199
10302W        W13522   5.846   1.321   7.834 -0.1523  0.2987  0.1004
10303W        W13523   5.535   2.905   2.495  0.0024  0.1624  0.2445
10304W        W13524   3.811  13.607   5.696 -0.1042  0.1671  0.2821
10305W        W13525  17.906   5.229   9.724 -0.0531 -0.0510 -0.0315
10306W        W13526   0.009   4.006  14.866 -0.0314 -0.3374 -0.1338
10307W        W13527   3.974   2.181   2.633  0.2174  0.0138  0.0906
10308W        W13528   5.323  15.709  11.735 -0.0111 -0.0734 -0.2517
10309W        W13529   3.396   1.796  11.381 -0.1145  0.1586 -0.0115
10310W        W13530   1.470   0.541   6.663  0.0665 -0.0925  0.0095
10311W        W13531  13.791   3.760  10.384  0.2240  0.3634  0.0344
10312W        W13532   5.158  17.054  12.309 -0.1850  0.0427  0.2270
10313W        W13533   8.218  13.100   5.796  0.1356 -0.1047 -0.1248
10314W        W13534   4.563   5.232   1.549  0.0108 -0.0665  0.1097
10315W        W13535   1.659  12.642   5.656 -0.0568  0.1799  0.0834
10316W        W13536   4.011   7.594   2.854 -0.0265  0.4230 -0.1781
10317W        W13537   6.092  16.468   3.772  0.0361 -0.5526  0.2694
10318W        W13538   2.592   3.791   7.690 -0.2345  0.1253  0.2143
10319W        W13539  17.938   2.975   8.084 -0.2338 -0.0604  0.3319
10320W        W13540   8.240   2.572   7.701 -0.1478  0.2886 -0.1459
10321W        W13541   3.412  10.948  13.005  0.0740 -0.0338 -0.2957
10322W        W13542   7.146   2.389   7.279 -0.0383  0.1096 -0.1723
10323W        W13543   7.012  11.792   7.666 -0.0513  0.0732  0.0406
10324W        W13544   7.404  14.398   5.030 -0.1741 -0.4297  0.3633
10325W        W13545   6.284   1.155   3.059  0.0362 -0.2780 -0.1290
10326W        W13546   9.356   1.968   4.366  0.0326  0.2104 -0.1410
10327W        W13547   7.051   2.382   8.122  0.2831  0.1832  0.0178
10328W        W13548   0.674  12.889   8.540 -0.3179 -0.2363  0.1206
10329W        W13549   9.126   6.196   1.582  0.0251  0.0082  0.1043
10330W        W13550   5.758   4.636  15.069  0.0385  0.3375  0.0776
10331W        W13551   0.587   5.044  11.480  0.1171  0.2222  0.1376
10332W        W13552  11.625   2.703   8.552  0.0304 -0.1846  0.0103
10333W        W13553   8.501   6.693   7.536 -0.2094 -0.0547 -0.3108
10334W        W13554   5.057   4.955  10.964  0.0497 -0.0708  0.0081
10335W        W13555   6.174  13.234   6.348  0.1877  0.0777 -0.1194
10336W        W13556  14.715   5.894   7.197  0.1274 -0.1726 -0.1192
10337W        W13557   3.315   9.350   7.134 -0.0850  0.0626  0.0150
10338W        W13558   7.262   4.130   4.202 -0.0973 -0.3577  0.1726
10339W        W13559   5.005   3.277   5.552 -0.0305 -0.0676 -0.0233
10340W        W13560   3.321  16.821   8.055 -0.3372 -0.2474  0.0946
10341W        W13561   1.821  15.488   2.905  0.1518  0.2982  0.3256
10342W        W13562   3.607   2.853   6.654 -0.1138 -0.1174  0.0585
10343W        W13563   8.701   0.518   5.865  0.0576 -0.0292 -0.0234
10344W        W13564   8.774   5.847  12.473  0.0917 -0.1966 -0.0414
10345W        W13565  13.556   9.280   1.386 -0.1943 -0.0408 -0.0223
10346W        W13566   2.689   0.746   9.979  0.4172  0.1723  0.0353
10347W        W13567   4.511   1.048   2.723  0.1409  0.0964 -0.0885
10348W        W13568   0.567   4.211   8.210  0.0885  0.0461 -0.0849
10349W        W13569   5.869   0.434   6.808 -0.3312  0.0735 -0.0451
10350W        W13570   4.780   1.622  11.835  0.0636 -0.1482 -0.0194
10351W        W13571   7.014   2.413   6.155 -0.1362  0.0731 -0.0141
10352W        W13572  11.821   0.792   0.426 -0.1407  0.4056  0.3088
10353W        W13573   5.032   4.889  16.428  0.0799  0.1692 -0.0574
10354W        W13574   0.756   5.412   1.006  0.1942 -0.0996 -0.0045
10355W        W13575   4.758   2.943  11.876 -0.0535  0.2514  0.0951
10356W        W13576   7.058   7.564   0.239  0.1354  0.2699  0.0910
10357W        W13577   0.739   0.289   9.847 -0.0696 -0.0921 -0.0039
10358W        W13578   7.190  16.866   2.793  0.1035 -0.4477 -0.1238
10359W        W13579   5.078   3.454   6.007  0.0129  0.0975 -0.0528
10360W        W13580   2.657  16.861   7.694 -0.0059 -0.0912 -0.1201
10361W        W13581   6.832   2.798  17.379 -0.0147 -0.0573 -0.0587
10362W        W13582   8.537  11.161   5.982  0.0816  0.0752 -0.1550
10363W        W13583   3.562   2.249  13.960  0.2891  0.1874 -0.0333
10364W        W13584   9.309  17.587  15.924  0.2874  0.1334  0.1720
10365W        W13585   5.615   1.430   0.145 -0.1909  0.4437  0.2138
10366W        W13586  14.461   8.358   0.817 -0.3293  0.1073 -0.0325
10367W        W13587  17.213   4.473  15.511  0.0796  0.3469  0.0538
10368W        W13588   8.181   6.427   0.455  0.0493  0.1325 -0.0296
10369W        W13589  11.776  17.648  17.975 -0.1001 -0.1524 -0.2606
10370W        W13590   7.772   1.861  11.412 -0.0241  0.0041  0.1543
10371W        W13591  14.086   6.122  11.321 -0.2349  0.1717  0.2514
10372W        W13592  12.164  16.166   7.924  0.0766  0.0597 -0.2094
10373W        W13593   5.809  15.851   9.925  0.0357  0.3833 -0.0773
10374W        W13594   8.847  13.495   5.143 -0.0177  0.0163  0.1998
10375W        W13595   6.341   2.547  11.669 -0.2574  0.1017  0.2615
10376W        W13596   5.495   1.255   7.087 -0.0687 -0.1296 -0.1861
10377W        W13597  15.990   0.209   7.653  0.2429 -0.0210 -0.2760
10378W        W13598   7.878  15.863   0.695 -0.1302 -0.0266  0.2529
10379W        W13599   1.529  14.386   4.334  0.2188 -0.0955  0.1191
10380W        W13600   7.613   5.829  10.887  0.1896 -0.0502  0.2511
10381W        W13601  10.051  10.468  11.843 -0.1393 -0.2368  0.0147
10382W        W13602   6.094   1.999   1.247  0.1785 -0.0587  0.1388
10383W        W13603   0.109   5.237   6.816 -0.4860  0.2472  0.0717
10384W        W13604   8.441  10.290  10.532  0.0385 -0.1155 -0.2423
10385W        W13605   8.397   3.758   6.882  0.0728  0.3176  0.0018
10386W        W13606   0.377   1.428   3.191  0.0833 -0.0262  0.0383
10387W        W13607   9.246   1.790  11.537  0.0190 -0.2998  0.1646
10388W        W13608   3.713   2.803   5.340  0.0026 -0.0230  0.1078
10389W        W13609   3.104   1.149   8.257 -0.0310 -0.0381  0.0904
10390W        W13610   1.230   2.458   9.657  0.2559 -0.1013 -0.2030
10391W        W13611   8.027  15.022   3.608  0.3195 -0.4749 -0.3736
10392W        W13612   9.604   0.236   3.347  0.1197  0.1244 -0.1188
10393W        W13613   1.879   8.011  10.160  0.1809 -0.0189  0.2494
10394W        W13614   0.253   1.481   4.379 -0.0217  0.0806  0.3436
10395W        W13615  17.707  17.455   4.322  0.0764 -0.1094 -0.0147
10396W        W13616   6.371   2.664   7.490  0.1336 -0.1232  0.2203
10397W        W13617   2.082   6.655   2.721 -0.0122 -0.1124 -0.2199
10398W        W13618   5.938  18.167   6.955  0.0171  0.4151  0.3658
10399W        W13619   8.150   5.418  12.087  0.2156  0.2302 -0.1819
10400W        W13620  10.294   2.485   6.677  0.4088 -0.0710  0.1841
10401W        W13621   2.639   5.986   2.267 -0.0434 -0.0952  0.1789
10402W        W13622   5.317   1.346   1.656 -0.0749  0.0644 -0.0119
10403W        W13623  16.472   1.121   6.120 -0.3284  0.0342  0.0330
10404W        W13624   5.116   3.224   3.750  0.1697 -0.1775  0.0057
10405W        W13625  17.823   0.428   7.070  0.1565  0.1948 -0.0012
10406W        W13626   7.194   2.018   7.708  0.2151 -0.2031 -0.4884
10407W        W13627   6.354  14.962   0.276  0.1110  0.1262  0.1352
10408W        W13628  14.759   4.161  11.692 -0.1018  0.1221  0.0425
10409W        W13629   8.137   2.834  10.262  0.0001  0.2609 -0.2756
10410W        W13630   7.358  13.436   6.120 -0.0901 -0.0402  0.0671
10411W        W13631   7.429  16.463  11.732  0.3996 -0.0022 -0.1587
10412W        W13632   8.853   5.658   8.300 -0.1629 -0.0212 -0.0993
10413W        W13633  13.401  14.850   5.693 -0.0118 -0.3476 -0.2861
10414W        W13634  10.095  14.922  17.983 -0.1252 -0.3597 -0.0919
10415W        W13635   7.809  18.110   0.463 -0.2074 -0.1963  0.2439
10416W        W13636   6.209   2.036   2.392 -0.2870 -0.0194  0.0470
10417W        W13637   4.731   2.230  11.292  0.0020  0.0374 -0.0844
10418W        W13638   8.019   0.551   4.798 -0.0968 -0.1606 -0.1169
10419W        W13639  17.319   1.949   4.102  0.2663  0.3483 -0.0351
10420W        W13640  12.350   3.572   7.200  0.0510 -0.1161 -0.1386
10421W        W13641  16.606   7.128   4.052 -0.2407 -0.1156  0.0146
10422W        W13642  10.092  15.592   3.821 -0.0317 -0.1783 -0.3058
10423W        W13643  13.341  13.663   4.292  0.3284  0.2032 -0.2950
10424W        W13644   8.428  17.310  16.107  0.0413 -0.0395  0.4912
10425W        W13645  11.060   5.528   6.982  0.3553 -0.1721 -0.0780
10426W        W13646   4.656  15.583   9.976  0.1317 -0.0023 -0.0555
10427W        W13647   9.836   0.918   8.818 -0.1733 -0.1729 -0.1069
10428W        W13648   3.258   0.658   8.473 -0.0426  0.2785 -0.2665
10429W        W13649   1.955   3.171   6.835  0.2432  0.1536  0.1185
10430W        W13650   3.411  17.372   5.099 -0.0244 -0.0504  0.1264
10431W        W13651   6.354  14.852   5.293  0.1266 -0.2935 -0.0450
10432W        W13652  12.690   1.519   3.001 -0.0886  0.0239 -0.2108
10433W        W13653   8.604  17.756  10.412 -0.0179 -0.0790 -0.3309
10434W        W13654   0.566   7.246   1.911  0.0689 -0.1649  0.2437
10435W        W13655   5.033   0.035  15.068  0.0519  0.0738 -0.0119
10436W        W13656  10.347  16.889   5.267  0.2880  0.0476  0.0288
10437W        W13657   2.680  17.844  16.901 -0.0006 -0.0849 -0.1566
10438W        W13658   3.725   4.233   5.200 -0.0106  0.0845 -0.0745
10439W        W13659   4.838   6.389  11.148  0.1979 -0.2181  0.2219
10440W        W13660   8.157   2.657   8.313 -0.1444  0.2375  0.0258
10441W        W13661   8.200  16.506   4.255 -0.2401 -0.2743  0.0703
10442W        W13662  14.421   4.250   6.984  0.1048  0.4152 -0.1375
10443W        W13663  10.824   7.036  12.444  0.0706 -0.1554 -0.1791
10444W        W13664  11.836  17.522   7.041 -0.2012  0.0485 -0.1384
10445W        W13665   7.130  18.227  18.062  0.1553 -0.0230  0.0070
10446W        W13666  11.714  17.364   4.589  0.0306 -0.2369  0.2422
10447W        W13667   2.412   7.351  14.272  0.5173  0.0148 -0.2555
10448W        W13668   0.533   2.494  13.144 -0.0257 -0.0683  0.0243
10449W        W13669  12.382  16.591  14.953 -0.2380  0.3079  0.4376
10450W        W13670   7.477   3.631   7.802 -0.1467  0.1259  0.1001
10451W        W13671   3.872   6.327   8.590  0.5404 -0.0873 -0.0559
10452W        W13672   8.085   2.828   4.866 -0.0078 -0.0311 -0.4392
10453W        W13673   4.856  14.866  18.163 -0.0336 -0.2091  0.1302
10454W        W13674   1.955  18.137   2.415 -0.1251 -0.2087 -0.2622
10455W        W13675   7.290   3.307   2.387 -0.2943 -0.3107  0.0897
10456W        W13676   4.184   4.673   5.591 -0.0150  0.0304 -0.0762
10457W        W13677   4.007  13.360   3.999 -0.1144 -0.2885 -0.1370
10458W        W13678  12.569  16.909   7.419  0.0667 -0.2233 -0.2111
10459W        W13679   8.304  11.982   2.793 -0.2692 -0.3742 -0.0188
10460W        W13680   2.902   4.078   3.603 -0.3859 -0.0439 -0.0823
10461W        W13681   8.047   9.219   8.360 -0.5169  0.0992  0.2378
10462W        W13682  13.431   3.186   7.848 -0.0592 -0.3423  0.2024
10463W        W13683   3.921   3.391   2.191  0.1837  0.0089  0.0452
10464W        W13684  11.959   1.722   6.058  0.1106  0.2446  0.1207
10465W        W13685  11.985   5.248   9.716 -0.1489  0.3793  0.3482
10466W        W13686   0.032   0.776   1.366 -0.0544  0.0468  0.0677
10467W        W13687  12.284   4.717   3.383 -0.0807 -0.0081  0.1091
10468W        W13688   9.738  17.408   7.679 -0.1491  0.1234 -0.0139
10469W        W13689   3.911  14.009   4.165 -0.3631  0.3887  0.0743
10470W        W13690  14.625   0.882   1.904 -0.0166 -0.0314 -0.0732
10471W        W13691   6.781   2.873   6.109  0.0787 -0.1615 -0.0907
10472W        W13692  17.002   2.658   4.471  0.3010  0.0920 -0.4207
10473W        W13693  18.114  17.231   3.959  0.2147 -0.0325 -0.2991
10474W        W13694   4.336   1.313   6.629  0.0208  0.1491 -0.0856
10475W        W13695  11.704   0.414   3.675  0.0850  0.2131 -0.3195
10476W        W13696   5.980  14.881   2.978  0.0948 -0.2591  0.0609
10477W        W13697   3.406   1.307  18.183 -0.1759 -0.0940  0.1098
10478W        W13698   8.014  17.965  16.615 -0.2434 -0.1459 -0.0266
10479W        W13699   8.439   4.932   8.487  0.1520 -0.0468 -0.1367
10480W        W13700   6.513  17.224   4.647 -0.1834 -0.1873  0.2421
10481W        W13701   6.677  11.389   6.727  0.0221 -0.0095 -0.0176
10482W        W13702   2.307   9.783   6.207  0.1097 -0.3869  0.4632
10483W        W13703   3.688   6.301   5.977  0.3794 -0.4332  0.1511
10484W        W13704  11.868  13.710  17.183  0.1917 -0.1788  0.1508
10485W        W13705   7.627  15.417  13.157  0.0435  0.1618  0.1482
10486W        W13706   5.607   4.988   0.831 -0.0504  0.3026  0.0890
10487W        W13707  14.160   8.904   7.812  0.0413 -0.0365  0.0523
10488W        W13708   2.890   2.527   7.907 -0.1886 -0.0051  0.1663
10489W        W13709   4.664  15.758   0.411 -0.0576  0.0799  0.1020
10490W        W13710  17.591   3.193   8.509  0.0248 -0.2098 -0.1042
10491W        W13711  12.110   4.496  11.878 -0.1153  0.2516 -0.2891
10492W        W13712   5.505   0.935  18.078  0.0301 -0.4963  0.0719
10493W        W13713   4.179  16.810  13.096 -0.3098 -0.0663  0.0632
10494W        W13714   5.686   1.580   2.694 -0.1359  0.1628  0.0512
10495W        W13715   4.276  14.200   6.813  0.2822  0.1245  0.2585
10496W        W13716   8.690   1.469  12.406  0.0715 -0.3019 -0.0852
10497W        W13717   2.032   4.862   4.896 -0.2297 -0.1182  0.2011
10498W        W13718   7.136   1.917   8.871  0.0707 -0.1676 -0.0234
10499W        W13719   2.028   6.373   5.549  0.0370 -0.1081 -0.2117
10500W        W13720   2.799  15.753   6.927 -0.2070 -0.0133  0.2196
10501W        W13721   4.625  17.042   5.581 -0.0203  0.0273 -0.0213
10502W        W13722   4.710  15.992   1.257  0.1353  0.2982 -0.0710
10503W        W13723   0.328   1.223  10.362 -0.3747  0.2350 -0.3694
10504W        W13724   3.794   2.763  10.991 -0.0654 -0.1268 -0.2310
10505W        W13725   9.803   0.294   8.152  0.0036 -0.2077 -0.2792
10506W        W13726   3.523  16.357   4.257 -0.2301  0.0872 -0.0205
10507W        W13727   7.262   6.813   6.125 -0.1958 -0.1943 -0.1802
10508W        W13728   2.430   1.113   6.192 -0.0818  0.0179 -0.0544
10509W        W13729   3.956   2.824   2.049 -0.1506  0.1250 -0.0162
10510W        W13730   3.187  15.902   6.481  0.0673  0.1982 -0.0349
10511W        W13731   7.363   4.051  10.564 -0.1072 -0.1979 -0.2377
10512W        W13732   8.310   9.704  11.841  0.4088  0.0610  0.0886
10513W        W13733   7.660   0.130   9.772  0.1949  0.0143  0.1360
10514W        W13734   7.827  17.827   8.170 -0.2153 -0.1773 -0.0310
10515W        W13735   9.876  17.102   4.988  0.1157 -0.0328  0.2784
10516W        W13736  16.619  17.159   6.524 -0.1345 -0.1242 -0.2604
10517W        W13737   4.027  13.237   6.032 -0.2816 -0.2065 -0.2996
10518W        W13738   9.074   8.338   8.799 -0.0613  0.1417 -0.1773
10519W        W13739   3.994   1.289   8.212  0.0783 -0.1295  0.0063
10520W        W13740  10.890   2.850   3.358  0.0398  0.0932  0.2262
10521W        W13741   4.670  17.085   8.400  0.0377 -0.0423  0.1980
10522W        W13742   0.146  16.275   7.698 -0.2475  0.1585  0.2827
10523W        W13743   6.025  15.208   5.052 -0.0692  0.1122  0.1008
10524W        W13744   7.000   6.513   4.476 -0.2861 -0.2042  0.0074
10525W        W13745   3.522  11.446  14.458 -0.0923  0.1057  0.1036
10526W        W13746   4.378  12.681   3.114 -0.2312  0.0721  0.0117
10527W        W13747   9.186  10.452   4.144 -0.0387  0.1639 -0.0497
10528W        W13748  16.650  16.016  15.418  0.2803 -0.1167 -0.1082
10529W        W13749  17.946   3.838   7.163 -0.1480  0.1860  0.1130
10530W        W13750   0.140   8.162   8.341 -0.0495  0.0519  0.2061
10531W        W13751   4.724   0.691   4.909  0.2156  0.2540  0.0464
10532W        W13752   6.730  17.387   5.394 -0.0095  0.0776  0.0600
10533W        W13753  10.381   7.154  17.989  0.1168  0.0671 -0.2137
10534W        W13754  10.191   0.084   4.694 -0.2536  0.1166  0.1660
10535W        W13755  11.649   9.081  11.270  0.3052 -0.0318  0.1919
10536W        W13756   3.459  17.771  17.322 -0.0967 -0.0968  0.1368
10537W        W13757   1.576   6.487   4.856  0.5160 -0.0168  0.0479
10538W        W13758  12.263  17.165  10.973 -0.0530  0.0010  0.0795
10539W        W13759   1.474   2.300   7.706  0.1638 -0.1116  0.3992
10540W        W13760   4.531  16.960  10.905 -0.2481 -0.4126 -0.1982
10541W        W13761   1.996  14.320  12.665  0.3004 -0.1072  0.0993
10542W        W13762   5.022  15.492  15.234 -0.1672 -0.0327  0.0014
10543W        W13763   9.271   4.493   2.212 -0.0799 -0.0361  0.2038
10544W        W13764   6.038   0.913   4.694  0.2085  0.1566 -0.0740
10545W        W13765   6.180  15.429   8.423 -0.1826 -0.0601 -0.0571
10546W        W13766   4.641  16.045  16.279 -0.0201 -0.0983  0.0243
10547W        W13767   6.933   4.916   2.134  0.2376 -0.1308 -0.3446
10548W        W13768   5.756   5.682   6.814 -0.1466 -0.0002  0.0912
10549W        W13769   4.574   1.459   7.376  0.0697 -0.1461  0.0500
10550W        W13770   4.989   8.125   5.653 -0.0938 -0.0581  0.3528
10551W        W13771  10.460  13.659   6.708  0.2397 -0.0208  0.0909
10552W        W13772   0.316   3.832   4.835  0.0542  0.0734  0.0071
10553W        W13773   1.452   2.293   6.945 -0.1008 -0.1637  0.0395
10554W        W13774   9.422   7.358   5.223 -0.3440 -0.2583 -0.3405
10555W        W13775   7.472   5.124   2.852  0.2770 -0.0461  0.0661
10556W        W13776   1.260  17.194   5.373 -0.0148 -0.1117 -0.0595
10557W        W13777   9.733   1.659   9.317 -0.2529  0.0070 -0.1352
10558W        W13778   4.643  15.504   1.415 -0.0369  0.1642  0.0497
10559W        W13779   4.712   1.972   7.211 -0.1064 -0.2423  0.1275
10560W        W13780   8.280   4.525   4.201  0.2129  0.2539  0.1448
10561W        W13781   4.014   3.616   9.459  0.1058  0.1733  0.0935
10562W        W13782   8.837  18.066   1.383 -0.0740  0.3529 -0.0173
10563W        W13783  11.595   0.224   5.228 -0.1815 -0.0752 -0.2136
10564W        W13784  16.490   3.611  14.360 -0.1987  0.4843 -0.0087
10565W        W13785   1.390   6.000   3.936  0.0408 -0.0622 -0.2471
10566W        W13786   6.585   1.748  13.771 -0.0070  0.2958  0.0742
10567W        W13787   2.227  11.318   2.460  0.2831 -0.0308 -0.3305
10568W        W13788   2.105   1.095  16.390  0.2794 -0.0341 -0.0219
10569W        W13789   3.702   2.701   2.884  0.1554 -0.0059  0.0132
10570W        W13790   0.733   5.207   0.005 -0.0787  0.1341  0.1523
10571W        W13791   9.740   4.220   3.092 -0.0436 -0.0525  0.3397
10572W        W13792   7.101   4.410   1.515 -0.0364  0.1253  0.1967
10573W        W13793   4.708   4.622   5.640  0.0494 -0.0556 -0.2405
10574W        W13794   2.161   1.983   7.646 -0.0630  0.4179 -0.0889
10575W        W13795   1.298  17.256   8.922 -0.0717 -0.1676 -0.2152
10576W        W13796   1.525  11.871   3.650  0.0747 -0.4408  0.1732
10577W        W13797   3.296   2.672   7.051  0.0010  0.0540 -0.0670
10578W        W13798   2.421  17.038   2.600 -0.1999 -0.0468 -0.1887
10579W        W13799  10.066   2.184   5.615  0.1057  0.1861  0.3692
10580W        W13800  11.646  18.203  10.103  0.0653  0.1161  0.2073
10581W        W13801   2.519   1.869  15.929  0.1744  0.0512  0.0053
10582W        W13802   6.080   3.656  13.999  0.1430 -0.1997  0.2246
10583W        W13803   1.339   0.363   4.659  0.0875 -0.1155  0.0775
10584W        W13804   4.526   3.432   3.005  0.1378  0.2664  0.0772
10585W        W13805   7.588   8.806   7.418 -0.0563  0.0425 -0.1204
10586W        W13806   1.539  12.113  17.529 -0.2171 -0.1592 -0.0523
10587W        W13807   4.889   0.630   9.523  0.2909  0.4835  0.0979
10588W        W13808   1.320   2.416  17.078  0.2726  0.2680  0.0522
10589W        W13809   7.720   7.611  10.327  0.0766  0.2016 -0.2305
10590W        W13810   5.775  15.214  15.728  0.2459  0.0927 -0.1044
10591W        W13811   0.068   4.926   4.879 -0.1765 -0.1039 -0.0102
10592W        W13812  14.914   2.018   8.606  0.4006 -0.1383  0.0457
10593W        W13813   4.972  15.171  10.175  0.3186  0.0933  0.1701
10594W        W13814   3.201  17.117   7.604  0.0401 -0.1808  0.1216
10595W        W13815   1.100  10.716   5.515 -0.1063 -0.1939 -0.1212
10596W        W13816   0.146   1.716   5.077  0.0032  0.2321 -0.1569
10597W        W13817   7.090   5.150  13.377  0.2275  0.0265 -0.0058
10598W        W13818  10.917   2.752   7.069  0.2261 -0.5070 -0.1106
10599W        W13819   9.324   0.425  18.029  0.0573 -0.0544 -0.1565
10600W        W13820   9.882   9.420   5.288  0.2700  0.0188 -0.2028
10601W        W13821   3.924  10.098   7.289  0.2359 -0.1726 -0.0322
10602W        W13822   9.275  17.978  16.337 -0.3807  0.0887  0.1038
10603W        W13823   5.342   8.095   6.065  0.1414 -0.1106 -0.1164
10604W        W13824  10.664   4.140   6.902  0.2524 -0.2021 -0.0552
10605W        W13825   5.488  17.978  10.682 -0.2243 -0.1602  0.1875
10606W        W13826   8.580  16.805   2.933  0.0497  0.2373 -0.0824
10607W        W13827  10.675  17.523   0.499  0.1939  0.2805  0.0261
10608W        W13828   3.522   1.926   2.636 -0.2147 -0.1101 -0.1243
10609W        W13829  16.842  18.014   4.018 -0.1320  0.0316 -0.1672
10610W        W13830  17.922   1.867   0.829  0.1819  0.1549  0.1059
10611W        W13831   2.995   3.109   4.109  0.2816  0.2780 -0.0503
10612W        W13832   3.192   6.567   2.243 -0.2082 -0.2142  0.3045
10613W        W13833   0.583  18.025   7.613  0.3535 -0.2216  0.0936
10614W        W13834   2.593   0.542   0.936 -0.1059  0.0242  0.1024
10615W        W13835   1.326   2.577   6.053 -0.1450  0.0196 -0.4113
10616W        W13836   0.844   0.260   2.909  0.2652 -0.2520  0.3228
10617W        W13837  11.664   8.210  18.225 -0.2159 -0.1006  0.0544
10618W        W13838   6.144  16.282   2.283  0.0510 -0.2385 -0.0834
10619W        W13839   4.019   3.704  10.377  0.2020  0.0380 -0.0627
10620W        W13840   0.616   7.251   4.996 -0.1373 -0.0368  0.0914
10621W        W13841  12.187   8.768  13.005  0.3409  0.1985 -0.0999
10622W        W13842   6.300   3.749   8.619  0.0800  0.1767 -0.3374
10623W        W13843   0.863  17.637   3.299  0.1635  0.0959  0.0042
10624W        W13844  11.378   2.567   7.170  0.1836 -0.0841  0.2833
10625W        W13845   4.542  16.866   9.408  0.3497 -0.1923 -0.3563
10626W        W13846   5.419   2.737   7.718 -0.0816 -0.2095 -0.0415
10627W        W13847   1.767   0.362  13.663  0.3374 -0.0371  0.1013
10628W        W13848   6.967   0.399   5.757  0.0553 -0.0137  0.0226
10629W        W13849   5.972   1.277   6.582 -0.2047  0.4218 -0.0710
10630W        W13850   1.642   3.606   6.917  0.2808  0.0796  0.1684
10631W        W13851   2.749  12.899   6.444 -0.2611 -0.1639  0.0973
10632W        W13852   8.141  16.729   1.590 -0.3075  0.1124 -0.0159
10633W        W13853  17.836   3.225   3.206 -0.3269 -0.0175  0.1684
10634W        W13854   2.169   0.802  17.314 -0.0802  0.1417  0.2200
10635W        W13855   4.715   5.824   3.479 -0.2868 -0.1734  0.3751
10636W        W13856   2.488   1.052   6.872  0.0732  0.1009 -0.1358
10637W        W13857  17.299  17.138   4.275  0.2522 -0.0873 -0.0140
10638W        W13858   5.404  18.227   5.983  0.2051  0.0061 -0.2433
10639W        W13859   0.201  14.998   3.520 -0.2882  0.0570 -0.2011
10640W        W13860   3.640   2.931  10.087  0.1043 -0.3408  0.0276
10641W        W13861   2.635   7.623  10.714 -0.0372  0.2082  0.1893
10642W        W13862  11.951   6.335   4.358  0.0174  0.1626 -0.3065
10643W        W13863   8.538   3.302   1.573  0.3018 -0.1867  0.0337
10644W        W13864   4.190   6.184   8.975 -0.1638 -0.1124  0.0720
10645W        W13865   5.727   3.174   2.040 -0.1041  0.0625 -0.1744
10646W        W13866   7.302   4.257   8.980  0.0823 -0.1498 -0.1550
10647W        W13867  17.324   2.267   5.506  0.1982  0.0746 -0.3428
10648W        W13868   8.025   3.680   2.644 -0.0324  0.0228 -0.0946
10649W        W13869   6.390   8.392  14.503  0.2405 -0.0760  0.0770
10650W        W13870  17.071  16.921   8.893  0.1831 -0.0527 -0.5035
10651W        W13871   9.252   1.619  15.506  0.2567  0.0150 -0.3120
10652W        W13872  16.640   3.377  10.489  0.0145  0.1061  0.1810
10653W        W13873  18.184   5.869   2.532  0.1412 -0.2660  0.2390
10654W        W13874   0.848   0.612   3.619  0.0022  0.0370 -0.0769
10655W        W13875   6.027   2.562   7.868 -0.0588 -0.0113 -0.1231
10656W        W13876   4.193  10.953   4.501 -0.2000 -0.0222  0.0063
10657W        W13877  14.279  17.085   3.865  0.0236 -0.2828 -0.2213
10658W        W13878   4.970   7.184   6.238  0.0711 -0.1487 -0.1403
10659W        W13879  17.387   5.204   4.833 -0.4238 -0.0842  0.3282
10660W        W13880   1.079   6.229   5.681 -0.1224 -0.0342 -0.1339
10661W        W13881   4.665   4.443  13.675  0.3516  0.0251  0.0613
10662W        W13882  12.477   0.238   1.516  0.0635 -0.1170  0.0229
10663W        W13883   3.165   2.901  10.740 -0.0298 -0.1343 -0.0589
10664W        W13884  13.029  18.126  13.620  0.0673  0.2596 -0.2048
10665W        W13885   6.641   0.733   7.927 -0.1656 -0.0301 -0.0208
10666W        W13886   4.622   3.482   1.202 -0.1597  0.0399 -0.2489
10667W        W13887   9.534  18.261   3.807 -0.0658 -0.0558 -0.2286
10668W        W13888  16.506   5.196   8.625  0.2734  0.0979 -0.1041
10669W        W13889  16.820  15.774   6.755  0.0733 -0.0486 -0.1360
10670W        W13890  12.346   2.869   8.674  0.1941  0.0017  0.4047
10671W        W13891  17.278   5.277   7.461  0.0109  0.2311 -0.2000
10672W        W13892   8.717   1.755   7.715  0.0516  0.1177  0.0721
10673W        W13893  10.140   5.104   3.292 -0.1569 -0.1318  0.2278
10674W        W13894   3.881  16.978  16.131 -0.0014  0.1637 -0.2548
10675W        W13895  13.569   5.038  10.183  0.0792 -0.0244  0.0802
10676W        W13896  16.943  15.941   6.192  0.1121  0.0043 -0.0632
10677W        W13897   0.362  17.305   4.042 -0.0533  0.2065 -0.1579
10678W        W13898   8.206   0.127  16.289 -0.0836  0.1528 -0.3901
10679W        W13899   4.653   6.411   6.726 -0.1913 -0.0265 -0.0937
10680W        W13900   2.604   0.268   5.722 -0.4130 -0.0415 -0.1748
10681W        W13901   6.137   1.084  10.047 -0.0354  0.2083 -0.0523
10682W        W13902   4.628   1.377   2.336  0.3150  0.1534 -0.1292
10683W        W13903   3.989   1.679   4.964  0.0951  0.2301 -0.2467
10684W        W13904   7.294   2.463   3.077 -0.1131 -0.0938  0.1167
10685W        W13905   4.538   2.852   2.731  0.0526  0.2224 -0.4448
10686W        W13906  15.605   6.681  16.298 -0.1609  0.1683  0.0547
10687W        W13907   9.586   1.873   8.769  0.2174 -0.0903 -0.0281
10688W        W13908  15.527   2.267   6.213 -0.0338  0.1698 -0.0205
10689W        W13909   0.196   1.339   9.653  0.1012 -0.0880  0.0440
10690W        W13910   6.406   4.189   4.725  0.0541 -0.1241  0.1185
10691W        W13911   8.982  16.127   7.039  0.0394  0.4330  0.0866
10692W        W13912  16.841   6.469  15.561  0.0589  0.3057  0.0836
10693W        W13913   5.957   4.467   6.977  0.1621 -0.0477 -0.0964
10694W        W13914   2.037  16.362  12.950 -0.0206  0.1204 -0.1633
10695W        W13915   8.027  15.720   7.580 -0.0058  0.0344  0.1763
10696W        W13916  14.051   9.347   6.182  0.0889  0.1232 -0.0291
10697W        W13917  18.014   3.664  11.324  0.0570  0.2656  0.0183
10698W        W13918   1.066   0.794   9.921  0.1395  0.1937 -0.3277
10699W        W13919   2.514  17.191  13.204 -0.1059 -0.3506 -0.1483
10700W        W13920  11.363  11.360  14.567  0.1645 -0.1478  0.0031
10701W        W13921   0.181   2.260  15.556  0.2692 -0.3234 -0.2528
10702W        W13922   6.076   1.350   5.169  0.0370 -0.1711  0.2188
10703W        W13923   5.784  15.502  12.662  0.1088 -0.3782 -0.1585
10704W        W13924   8.081   5.474   8.896 -0.1392  0.0866 -0.0961
10705W        W13925   3.827   6.758  10.844 -0.0865  0.0892  0.1233
10706W        W13926  10.110   2.979   7.007  0.0388  0.0255  0.0036
10707W        W13927   4.626   1.196  11.352 -0.0102  0.2185  0.0814
10708W        W13928   3.971   2.139   8.331 -0.1109  0.1078 -0.2999
10709W        W13929   3.560   1.649   6.069 -0.2382  0.1905 -0.1211
10710W        W13930  10.232  12.824  14.062 -0.0839 -0.0902 -0.4206
10711W        W13931   5.898   2.294   0.903 -0.1689  0.0735  0.1012
10712W        W13932   6.589   6.088  12.219 -0.0354 -0.3504 -0.5545
10713W        W13933  17.975  15.824  10.478 -0.1162  0.0518  0.0074
10714W        W13934   4.809   5.457   8.738 -0.2569  0.0815 -0.0581
10715W        W13935   0.405  16.661  10.249  0.1326  0.2225 -0.1452
10716W        W13936   9.734  12.785   6.857  0.1844  0.1270 -0.0268
10717W        W13937   4.026   2.197  13.212 -0.3283  0.1203  0.4240
10718W        W13938   6.011   2.407  13.503  0.1507  0.1367  0.1454
10719W        W13939  10.079   0.488   9.926 -0.4723 -0.2167 -0.1269
10720W        W13940   7.370  14.763  13.337  0.1013 -0.1653 -0.0930
10721W        W13941  17.256   3.222  13.041 -0.0744  0.2269  0.0015
10722W        W13942   6.865  17.168  12.265  0.0980 -0.0517  0.0316
10723W        W13943  12.790   0.644   5.841 -0.0003  0.0788 -0.1148
10724W        W13944  14.634   3.224   7.952  0.0040 -0.0254 -0.0776
10725W        W13945   5.294   2.029  10.758  0.1129  0.1474  0.2697
10726W        W13946   5.653  17.041  10.333 -0.1981 -0.1514 -0.0329
10727W        W13947   8.591   8.124  11.430  0.0806 -0.0528 -0.1424
10728W        W13948   7.229  16.881   8.616  0.1379 -0.0267  0.3290
10729W        W13949   6.117  16.059   8.360 -0.0107 -0.0773  0.2657
10730W        W13950   6.946   3.557   4.448  0.1027 -0.1870 -0.0202
10731W        W13951   2.959  16.552   4.925  0.3086 -0.0199  0.0942
10732W        W13952   3.069  18.123   7.003  0.0956 -0.1242  0.1611
10733W        W13953  17.565  12.108  16.152 -0.1529  0.0367 -0.1060
10734W        W13954   1.203  10.301   2.180 -0.3406 -0.5064 -0.2556
10735W        W13955   4.276  13.170   6.669  0.0662  0.1085  0.0724
10736W        W13956   1.461   4.401  15.141 -0.1927 -0.0015 -0.2482
10737W        W13957   3.360   7.268  12.432  0.1690  0.0207 -0.2589
10738W        W13958  11.614  18.043   4.051 -0.0436  0.0991 -0.4012
10739W        W13959   4.612  17.439   7.865 -0.0217  0.1357  0.1088
10740W        W13960   5.327   3.367  13.737  0.1557  0.1070 -0.0557
10741W        W13961   0.839   2.792  10.809  0.1986  0.0191  0.2413
10742W        W13962   7.363   7.514  13.650  0.0216 -0.1388  0.1914
10743W        W13963   3.377   3.462   4.059  0.0821  0.0644  0.0008
10744W        W13964   2.004   1.958   5.540  0.1293  0.2780 -0.0423
10745W        W13965   7.151   5.089   3.238  0.2067 -0.0493 -0.0072
10746W        W13966  17.149   5.375  11.017  0.4301 -0.3961  0.1339
10747W        W13967   3.116   2.025   9.917  0.2266  0.1816  0.0290
10748W        W13968   6.863   8.618  10.608 -0.2088  0.2342  0.0639
10749W        W13969   9.974   2.076  13.449 -0.1515 -0.0174 -0.4109
10750W        W13970   6.052  14.681   4.845  0.0804 -0.3066 -0.0740
10751W        W13971   2.593   5.593   8.962 -0.1394  0.3176  0.3256
10752W        W13972   7.607   2.680   7.485  0.1094  0.0139 -0.1298
10753W        W13973   1.674   6.548   0.324 -0.3013 -0.1819 -0.2380
10754W        W13974   2.933  17.241  10.153 -0.0249 -0.0971  0.1076
10755W        W13975   8.761   5.754  11.706  0.0869  0.0132  0.1496
10756W        W13976  14.084   5.427  12.702 -0.1424 -0.1599  0.1294
10757W        W13977   9.709   1.081   9.265 -0.2912  0.1466  0.2074
10758W        W13978   6.282  16.371  11.230 -0.1792 -0.0584 -0.3353
10759W        W13979   3.759   1.547  12.978 -0.0765  0.1957 -0.1544
10760W        W13980   2.959  17.645   2.408 -0.1392 -0.3509 -0.1195
10761W        W13981   7.280  14.851  12.022  0.3314 -0.1780 -0.1828
10762W        W13982  14.140   6.037   3.702  0.0389  0.1737  0.1449
10763W        W13983   1.030   2.488   7.835 -0.1881  0.0310 -0.1189
10764W        W13984  16.251  17.777  10.431 -0.2731  0.1546  0.0512
10765W        W13985  18.139  16.041  11.427  0.0434  0.4053 -0.1103
10766W        W13986  16.326   6.670   8.436 -0.3428 -0.1242  0.0370
10767W        W13987   6.941   9.403  14.232 -0.1367 -0.3813  0.0134
10768W        W13988   4.803   7.320  10.922  0.4631 -0.2513 -0.1387
10769W        W13989   6.984   0.416  12.506  0.3088  0.2155 -0.0604
10770W        W13990  13.884   3.904   5.852  0.0068 -0.4922 -0.0294
10771W        W13991  11.026  12.916  12.881 -0.0473  0.2938 -0.2031
10772W        W13992   6.196   1.105  11.583  0.1073 -0.4341  0.0395
10773W        W13993   7.309   2.812  12.788 -0.0036 -0.0571 -0.2761
10774W        W13994   8.978  16.228  14.180 -0.0723 -0.0513 -0.2198
10775W        W13995  11.128  14.867  14.114 -0.2896  0.1764  0.2355
10776W        W13996   7.131  15.521  10.478 -0.3001  0.2859 -0.0815
10777W        W13997   5.539   1.384   2.226 -0.1589  0.0390  0.0006
10778W        W13998   6.333   5.791  10.387 -0.2231 -0.0623 -0.1287
10779W        W13999   8.544  11.356  11.947 -0.1016  0.1368 -0.3075
10780W        W14000   5.363  13.680  18.026 -0.1165  0.2771  0.1579
10781W        W14001  11.467   6.179  10.948  0.2858 -0.4107 -0.0928
10782W        W14002  15.286  17.377   7.552 -0.3775  0.0115 -0.1329
10783W        W14003  10.602   4.692   3.682  0.2274 -0.2012  0.1397
10784W        W14004   6.074  10.461   9.454 -0.1918  0.0364  0.0508
10785W        W14005   3.781  16.379  15.110  0.1237 -0.0224  0.2283
10786W        W14006   5.438  17.818   9.211 -0.1386 -0.2212 -0.0538
10787W        W14007   5.832   0.575   8.337 -0.0411  0.0317  0.1245
10788W        W14008  11.595  14.106  11.558  0.0132 -0.0226 -0.1317
10789W        W14009   6.479   6.344   9.736 -0.1243  0.5207  0.6586
10790W        W14010   8.449   4.340  15.241  0.3610  0.1958 -0.1460
10791W        W14011   9.822  14.403   5.179  0.2666  0.2137  0.0080
10792W        W14012   4.789   1.536   9.750  0.1777 -0.1935 -0.1297
10793W        W14013   2.352  12.942   7.135 -0.1271  0.0152 -0.1152
10794W        W14014   2.037   2.404   8.488 -0.0084  0.0230 -0.0077
10795W        W14015   7.467  17.887   5.718  0.1813 -0.2191  0.2114
10796W        W14016   0.962   5.752  12.703 -0.1402 -0.1789 -0.1920
10797W        W14017   4.060  16.797   3.726  0.2192 -0.0452  0.0745
10798W        W14018  11.495   4.939  11.293  0.2189  0.3277 -0.4119
10799W        W14019  15.876  18.110   3.321  0.0029  0.2240 -0.1128
10800W        W14020  17.193   2.499  11.336 -0.0570  0.0449  0.0815
10801W        W14021   9.734  16.351  15.166 -0.0418 -0.1109 -0.0436
10802W        W14022   3.024   3.030   5.644 -0.2350  0.3509  0.0366
10803W        W14023   5.080   0.259   3.715  0.0556  0.2735  0.1724
10804W        W14024   3.920  17.230  10.555 -0.0100  0.1566 -0.0030
10805W        W14025  11.005   0.399  14.581  0.1704 -0.0719  0.0479
10806W        W14026   8.038   1.975   7.763  0.0832 -0.0197  0.2302
10807W        W14027   1.798   1.807   9.145 -0.2449  0.0308 -0.2644
10808W        W14028   1.401   5.770   9.336 -0.1161  0.8486  0.1960
10809W        W14029   1.995  15.800   9.138 -0.2519 -0.0300 -0.1837
10810W        W14030   0.232   4.489  14.776  0.1711 -0.0186  0.1997
10811W        W14031   3.369   3.325   8.106  0.1382  0.0856 -0.1363
10812W        W14032  13.856   6.318  12.686 -0.1966 -0.1069  0.0086
10813W        W14033   3.774   3.393   4.699  0.0334 -0.0395  0.0930
10814W        W14034  12.116  14.977   0.692 -0.2463 -0.0211 -0.2430
10815W        W14035   0.231  17.520  10.262  0.0682  0.0542 -0.2414
10816W        W14036   4.747  17.987   3.774 -0.2757  0.0615 -0.5550
10817W        W14037   5.407   2.455   9.502 -0.0321  0.2686  0.2095
10818W        W14038   4.043   1.306  10.842 -0.1769  0.0792  0.0997
10819W        W14039   9.955  15.549   7.205  0.1031  0.2221 -0.2866
10820W        W14040   4.439   8.346  13.613  0.0219  0.1919  0.0772
10821W        W14041   7.775  12.492  10.461  0.2603 -0.1008 -0.0785
10822W        W14042   4.063   5.279   2.790  0.0595  0.0335 -0.1859
10823W        W14043  10.504  16.711   6.938 -0.3871  0.0949  0.2893
10824W        W14044   2.743  14.687   6.682 -0.2208 -0.0354 -0.0570
10825W        W14045  17.479   3.714   8.325  0.0851  0.1830 -0.2935
10826W        W14046   9.438  11.417   6.762 -0.0078  0.0943  0.1270
10827W        W14047   2.503  15.629   9.926  0.0133 -0.1413 -0.1274
10828W        W14048   6.328   4.824   8.876  0.3235  0.1129 -0.4156
10829W        W14049  16.743   9.349   8.920 -0.0392 -0.0630  0.1957
10830W        W14050   6.482   5.429  10.819 -0.0348  0.0790 -0.2059
10831W        W14051   0.234  11.870   7.692 -0.0982 -0.2375  0.0446
10832W        W14052   8.124  14.214   7.554  0.1200 -0.0927  0.1681
10833W        W14053   6.945   5.039  10.904 -0.2727  0.0088  0.0228
10834W        W14054  12.216   6.782  12.722  0.1350 -0.1120 -0.2215
10835W        W14055   9.276   0.647  16.782 -0.1950  0.0245 -0.0884
10836W        W14056   6.778   1.541  16.263 -0.1304  0.3765 -0.0054
10837W        W14057   4.617  13.581   0.454  0.1087 -0.1478 -0.0403
10838W        W14058   6.226   5.698  13.856 -0.2158  0.0778 -0.4516
10839W        W14059   6.077   0.168   2.502 -0.2243 -0.2366  0.1699
10840W        W14060  15.247  15.482   6.395 -0.4543  0.2497  0.0037
10841W        W14061   5.115   1.292   2.626 -0.3226  0.1156 -0.1173
10842W        W14062  13.180   7.616  14.712  0.0895 -0.0057  0.1146
10843W        W14063  15.802   5.319  10.635 -0.1167  0.3372 -0.0076
10844W        W14064  12.041   7.262   7.250 -0.1653 -0.0139  0.1164
10845W        W14065   1.564  16.907  12.444  0.0681  0.0296 -0.1561
10846W        W14066   5.356   2.762  16.289  0.1639  0.0580  0.1381
10847W        W14067   9.757   3.396  12.437 -0.0075 -0.2445  0.4295
10848W        W14068   3.222   2.704   3.167 -0.0708 -0.0735  0.0746
10849W        W14069   4.639   4.931   4.472 -0.0272 -0.0471  0.1123
10850W        W14070   6.414   5.358  10.192 -0.2714 -0.3664 -0.1308
10851W        W14071   1.346   8.837   1.954 -0.0475  0.1587 -0.0919
10852W        W14072   0.120  14.715   9.996  0.2586 -0.0403 -0.2399
10853W        W14073   1.270   5.644   7.432  0.1028 -0.2141 -0.3803
10854W        W14074  17.954   6.807   3.459  0.0838 -0.1304 -0.2063
10855W        W14075   7.427   1.241  17.864 -0.0709 -0.2263  0.0175
10856W        W14076  10.616   6.881  11.609 -0.0872  0.0545  0.1974
10857W        W14077   3.431   0.146  11.887  0.2530 -0.2193 -0.0884
10858W        W14078   9.082  11.098  13.767 -0.1151 -0.1098 -0.1010
10859W        W14079   4.784  16.320   4.182 -0.2066 -0.0667 -0.3682
10860W        W14080   7.077   0.130   6.858 -0.2975  0.2855  0.0980
10861W        W14081   5.602  16.423  14.703 -0.2270 -0.0313  0.0249
10862W        W14082   0.053   2.716   8.878  0.2677 -0.0794 -0.1306
10863W        W14083   7.789   6.546  12.552  0.2022 -0.1608  0.2899
10864W        W14084   1.319  13.724   6.694 -0.0381  0.1490  0.0837
10865W        W14085   7.011   0.746   8.352 -0.2898 -0.2055 -0.1320
10866W        W14086   5.159   5.839  10.319 -0.0833  0.3019 -0.0971
10867W        W14087   5.452   1.168  15.559  0.3489 -0.4344 -0.3113
10868W        W14088   0.936  15.026   6.930  0.2996 -0.1267 -0.1853
10869W        W14089   6.890   1.476   8.376 -0.3496  0.1433  0.1020
10870W        W14090   2.390   5.921  10.632 -0.0239  0.1890  0.0982
10871W        W14091   9.771   4.863   9.827 -0.1762  0.1433  0.0779
10872W        W14092   7.275   5.463  12.385  0.1643 -0.0299  0.1116
10873W        W14093   2.487   1.238  10.164  0.1031 -0.3540 -0.3420
10874W        W14094   6.396  16.149   9.451 -0.3357 -0.0362 -0.1645
10875W        W14095   2.081   0.294   5.341 -0.3250  0.1918  0.2073
10876W        W14096   4.883   0.701  12.591 -0.2633 -0.0508 -0.2472
10877W        W14097   4.654  17.290   4.538  0.5228 -0.1633 -0.0445
10878W        W14098   8.051   0.251  10.488  0.2149  0.0410 -0.0260
10879W        W14099   2.792   1.814   3.080  0.0513 -0.0333 -0.1062
10880W        W14100   5.998  14.427   8.632  0.0896  0.4485  0.0290
10881W        W14101   4.028   6.201   9.875 -0.2432  0.0100  0.0156
10882W        W14102   5.378   3.144  17.720 -0.1169  0.4086  0.0791
10883W        W14103   7.789  16.474   5.881  0.2561 -0.1159 -0.0601
10884W        W14104   3.576   5.034  11.080  0.2188 -0.3130  0.0441
10885W        W14105  13.644  14.167   7.481  0.1242 -0.0579 -0.0366
10886W        W14106   4.706   7.906   4.969 -0.0319  0.1701  0.0570
10887W        W14107   2.721   5.178  17.206 -0.1107  0.0371 -0.0166
10888W        W14108   2.870   2.364  14.915  0.2737 -0.0486  0.0874
10889W        W14109   0.928   2.035   7.963  0.2049 -0.2374 -0.2773
10890W        W14110   0.648   1.102  11.257 -0.2666  0.2169 -0.0920
10891W        W14111   6.472  17.269   0.009 -0.0566  0.4170 -0.0798
10892W        W14112   0.679   4.710   9.399  0.2610  0.0611 -0.1798
10893W        W14113  10.050  14.608   9.135  0.0352  0.0560  0.0450
10894W        W14114   9.915  10.495   5.160  0.1017  0.1428 -0.0196
10895W        W14115   0.301  16.623  10.900  0.2934  0.0433  0.1413
10896W        W14116  13.903   6.000  14.015  0.0577 -0.2723  0.2533
10897W        W14117   3.756  16.672  12.159  0.0169 -0.0496  0.1952
10898W        W14118   2.811   4.459  14.369  0.1884 -0.0716  0.0078
10899W        W14119   2.734   1.105   4.756 -0.1031  0.0259  0.0830
10900W        W14120  12.393   1.670   4.009 -0.2965  0.0386  0.1098
10901W        W14121   2.819   3.195  13.938  0.1256 -0.1036  0.0241
10902W        W14122   1.565   4.250  11.849  0.1961  0.1248  0.2735
10903W        W14123   0.339  17.376   3.360  0.1282 -0.1760 -0.2334
10904W        W14124   8.538   6.418  12.198  0.1829 -0.1133  0.1525
10905W        W14125   8.142   5.499   9.886 -0.0322  0.0048 -0.1206
10906W        W14126   1.002   1.105   5.590 -0.0394 -0.0328 -0.2079
10907W        W14127   5.874   6.112  17.683 -0.2006 -0.0443 -0.1417
10908W        W14128  10.393   0.239   9.174 -0.1753  0.1646 -0.1273
10909W        W14129   8.560   4.756   9.876 -0.1083 -0.0161 -0.1829
10910W        W14130   5.784   3.224  14.101 -0.1363  0.1776 -0.0473
10911W        W14131   1.795   0.160   8.685  0.1708 -0.0355  0.1411
10912W        W14132   2.330   0.578   8.772  0.3114  0.1848  0.0559
10913W        W14133   8.128   4.533  16.755 -0.2167  0.0081  0.1328
10914W        W14134  11.322   4.944   8.902  0.0175  0.2908 -0.4244
10915W        W14135  14.800   4.651   7.067  0.0338 -0.0146 -0.2064
10916W        W14136   5.362  15.065  14.146 -0.2489  0.1822  0.0744
10917W        W14137   8.239   7.496   7.527 -0.0881 -0.1737  0.1607
10918W        W14138   4.187   3.660   7.056 -0.0125 -0.0420  0.1014
10919W        W14139   2.831  13.624   1.330 -0.3005  0.0204  0.2411
10920W        W14140  17.726   0.171  11.506 -0.0008 -0.0800 -0.0849
10921W        W14141  18.081  17.311  10.336 -0.0678 -0.0398 -0.0472
10922W        W14142   6.655   2.529  16.687 -0.0448  0.1917 -0.1451
10923W        W14143   6.108   0.630  11.462  0.1767  0.1337  0.1843
10924W        W14144  11.577   6.572  10.595  0.3610  0.2154  0.0565
10925W        W14145   6.857  12.864  10.631 -0.4005  0.3123 -0.0573
10926W        W14146   3.287  14.604   9.033 -0.0288  0.1602 -0.0027
10927W        W14147  11.938  17.126   3.007  0.0884  0.1392 -0.0101
10928W        W14148   6.944   6.633   4.954  0.0511  0.3926  0.0949
10929W        W14149   1.966   7.016  14.103 -0.1293  0.2551 -0.1964
10930W        W14150  18.067   4.986   0.037  0.1154  0.2045 -0.0931
10931W        W14151   3.800  16.466   5.583 -0.1725 -0.3143 -0.0816
10932W        W14152   1.513  15.809   4.460  0.0040  0.0184  0.2975
10933W        W14153   7.860   0.984  15.340  0.0504 -0.1257  0.2600
10934W        W14154  16.955  17.151  10.882 -0.1100 -0.1108  0.0238
10935W        W14155   5.241  16.806  13.414  0.2489 -0.1408  0.1776
10936W        W14156   2.935  11.921  15.541 -0.2515 -0.3243 -0.4386
10937W        W14157   1.003   4.819  13.357 -0.2871  0.0400  0.1083
10938W        W14158   3.588   2.345  13.467 -0.0314  0.1224 -0.0210
10939W        W14159   3.118   1.641  13.465 -0.1137 -0.2853 -0.2506
10940W        W14160   5.800   0.143   2.917  0.3491  0.3046 -0.3423
10941W        W14161   4.273  12.315  10.688 -0.0512  0.5009 -0.1293
10942W        W14162  14.625   3.288   0.763 -0.3033 -0.0471  0.1165
10943W        W14163   6.894   3.761  11.478  0.1304 -0.1502  0.1390
10944W        W14164   3.464   5.130   9.391 -0.1493  0.0971  0.2932
10945W        W14165   4.149   0.487  13.937  0.1912 -0.2205 -0.1353
10946W        W14166   8.501   1.671   9.917 -0.1502 -0.1578  0.1554
10947W        W14167   2.889  17.841   9.243 -0.1744 -0.0040  0.1162
10948W        W14168   7.261   2.333  10.148 -0.2208  0.2453 -0.1429
10949W        W14169   8.176   1.576  12.109 -0.0637  0.2248  0.3573
10950W        W14170   8.089  17.700  14.764  0.0325 -0.1084  0.1655
10951W        W14171   7.897   0.951   4.521  0.2156  0.2008  0.3165
10952W        W14172   0.500   0.080   5.485 -0.2476 -0.1983 -0.2019
10953W        W14173   0.979   2.639  10.085  0.0247 -0.0608  0.1246
10954W        W14174   0.336  17.221   7.336 -0.0407  0.1039  0.2973
10955W        W14175   3.456  12.300  12.188 -0.0738 -0.1555 -0.0145
10956W        W14176   8.678  13.327   7.638 -0.1521  0.2043 -0.0336
10957W        W14177   2.747   0.594   9.421 -0.0763 -0.1705 -0.0417
10958W        W14178   3.504   4.678   6.439  0.3042  0.1853 -0.0090
10959W        W14179  13.814  18.226   9.739 -0.0765 -0.1725  0.1862
10960W        W14180  10.013   1.067   8.342 -0.3360  0.0604  0.0259
10961W        W14181  12.113   2.502   7.961  0.0168 -0.2592 -0.3616
10962W        W14182   0.611  13.840  14.626  0.0647 -0.3034  0.1997
10963W        W14183   9.363  17.306  12.987  0.0138  0.0753  0.0362
10964W        W14184   9.479   3.427   1.862 -0.0586  0.0272 -0.2107
10965W        W14185   2.734  17.842  12.210  0.2632  0.0364 -0.3692
10966W        W14186   3.461  17.889   5.084  0.0022  0.1449 -0.2943
10967W        W14187   4.361   2.640   9.593  0.2944  0.0056  0.1620
10968W        W14188   6.336  13.809  11.599  0.3160  0.1022 -0.3330
10969W        W14189   5.096  17.668  10.657  0.2285  0.0102 -0.1271
10970W        W14190  17.126   2.496  11.867  0.1027  0.1315 -0.0590
10971W        W14191  17.204  14.834  11.678 -0.1406 -0.0467 -0.2367
10972W        W14192  11.164   1.299  15.637  0.0294  0.1592 -0.1267
10973W        W14193   2.524   0.455  16.401 -0.0226  0.0487 -0.1633
10974W        W14194   3.304  18.088   7.885  0.0792  0.1165  0.2426
10975W        W14195  16.124   3.915   8.542 -0.1611 -0.3013 -0.0699
10976W        W14196  11.220   3.451  11.158 -0.3575  0.2102  0.2597
10977W        W14197   7.310   2.385   4.870 -0.4398 -0.1331 -0.0471
10978W        W14198   4.746   1.490   5.566  0.0631 -0.0240 -0.1443
10979W        W14199   1.713   0.352   9.625  0.1794 -0.1271 -0.1967
10980W        W14200  13.946   8.488  10.126 -0.3359  0.3336 -0.4315
10981W        W14201   5.355  14.864  10.225  0.1982 -0.1687 -0.2525
10982W        W14202   7.203  16.810  10.066  0.1103 -0.2389 -0.0407
10983W        W14203   3.724   4.822   9.665 -0.1909  0.0443 -0.2730
10984W        W14204  16.502  17.384  10.570  0.1301 -0.3353  0.1690
10985W        W14205   5.923  15.146  15.250  0.3394  0.2012  0.0465
10986W        W14206  14.636  17.908  12.576 -0.0871 -0.3700  0.2498
10987W        W14207   5.117   1.358  10.119  0.0184 -0.2266 -0.1978
10988W        W14208  10.562   1.692  17.363  0.1239 -0.0671  0.0518
10989W        W14209   5.351   3.393   2.455 -0.0443 -0.2172 -0.2527
10990W        W14210   5.765  13.542  10.182 -0.3513 -0.4957  0.1082
10991W        W14211   2.135  16.391   7.856 -0.0300 -0.1294 -0.3746
10992W        W14212   1.059  13.514  14.707  0.0390  0.0960 -0.0634
10993W        W14213   3.405   1.403  16.382 -0.2110  0.3273 -0.3241
10994W        W14214   1.956  17.272  10.845  0.0933  0.2632 -0.3075
10995W        W14215  10.138  16.807  15.413  0.4042 -0.0909 -0.2265
10996W        W14216   3.569   5.243  13.318  0.5082 -0.2402  0.1711
10997W        W14217   0.989   5.840   8.682  0.0972 -0.1659 -0.0638
10998W        W14218   1.454   5.709   5.281  0.1745 -0.1320  0.2075
10999W        W14219   9.710  12.305   4.730 -0.0121  0.2104  0.2410
11000W        W14220   0.383   0.725  10.134  0.1196 -0.0130  0.0881
11001W        W14221   4.436   5.944  17.950 -0.1183 -0.1021  0.2407
11002W        W14222   5.779   0.524   9.335  0.0070  0.2328 -0.0340
11003W        W14223  15.977   2.064   3.832  0.0493  0.2302 -0.1298
11004W        W14224   6.605  14.549  15.849  0.4060 -0.0585  0.0869
11005W        W14225  14.001  15.965  12.735  0.3189  0.0818  0.2183
11006W        W14226   9.789  16.270  13.904  0.1364  0.1560  0.0535
11007W        W14227  10.627   3.171   7.091 -0.2158  0.1560  0.2464
11008W        W14228  10.823   2.270  14.978 -0.0399 -0.0935  0.2143
11009W        W14229  10.887   9.299  13.118  0.0681 -0.0230  0.0864
11010W        W14230   0.856   1.401   7.099 -0.1563 -0.2326 -0.0850
11011W        W14231   7.726  10.532   9.276  0.1933 -0.2382  0.1867
11012W        W14232  17.603  17.258   5.316 -0.2705 -0.0169  0.2614
11013W        W14233   6.752   2.257   5.519 -0.1632 -0.0839  0.1249
11014W        W14234   2.448   5.587   2.496  0.0455 -0.0145  0.0614
11015W        W14235   6.862  14.211  10.617 -0.3372  0.2325  0.0397
11016W        W14236  12.805   2.636   8.708  0.2098 -0.0315 -0.2299
11017W        W14237   6.484  15.601   2.929  0.0336 -0.0022 -0.0405
11018W        W14238   8.261   2.013  11.376 -0.0835 -0.1110 -0.2519
11019W        W14239  10.614  13.829   3.006  0.2899  0.0062  0.3943
11020W        W14240   0.576  16.973   5.321 -0.0266  0.0385  0.0188
11021W        W14241   9.636  15.808   6.446  0.0673  0.0629 -0.4611
11022W        W14242   1.422   0.942   5.838  0.0096  0.2681 -0.0553
11023W        W14243   1.815   4.805   6.441  0.1651  0.2177 -0.1695
11024W        W14244   6.568   0.553   3.873 -0.0639 -0.0668 -0.0201
11025W        W14245   5.323  17.573  11.896  0.1043  0.3650  0.2436
11026W        W14246   9.203   9.043  10.107 -0.1594 -0.1502  0.1586
11027W        W14247   8.698   9.638   7.588  0.0417  0.0910 -0.2251
11028W        W14248   3.108   3.307   6.207  0.2122  0.1961 -0.1106
11029W        W14249  12.604   3.152  11.545  0.0328 -0.1885 -0.1358
11030W        W14250   0.169   4.115  15.731 -0.2005 -0.3036 -0.2626
11031W        W14251   0.158   2.491   9.918  0.0243  0.2178 -0.3053
11032W        W14252  17.362  17.116  11.266  0.2734  0.0081 -0.2111
11033W        W14253   3.375  17.451   3.786  0.1923  0.0551  0.3051
11034W        W14254   1.131   6.571   5.095 -0.0616 -0.0399  0.0770
11035W        W14255   1.947  16.695   9.599  0.0254 -0.0221 -0.2184
11036W        W14256   1.767   8.231  10.638 -0.1161  0.0730  0.1633
11037W        W14257   4.083  13.715   6.190 -0.0795 -0.2333  0.0907
11038W        W14258   0.780   7.542   8.383 -0.1924 -0.1309  0.1232
11039W        W14259   6.687  15.794  11.621  0.1196  0.0721  0.1049
11040W        W14260  13.568   6.148  11.132 -0.0929  0.0225  0.2709
11041W        W14261   5.440  12.474  13.815  0.0042  0.1761  0.1271
11042W        W14262   4.695  17.593   3.501  0.1471  0.2957 -0.2135
11043W        W14263   9.593   1.793   7.726 -0.1237 -0.2812 -0.2433
11044W        W14264   7.815   5.828  14.538  0.1270  0.0012  0.0282
11045W        W14265   6.283   0.510  16.687 -0.0821 -0.0313 -0.0817
11046W        W14266  16.650   1.516   9.981 -0.0865 -0.2034 -0.1939
11047W        W14267   3.596   5.560   9.200  0.1211  0.2038 -0.1944
11048W        W14268   4.304  10.300   3.057 -0.0753 -0.1216  0.0533
11049W        W14269   5.604   1.942   9.832 -0.5884  0.1260 -0.2888
11050W        W14270  17.811   3.125  11.825  0.1073 -0.0064 -0.2400
11051W        W14271   0.121   0.961   9.361 -0.0246  0.2099  0.1208
11052W        W14272   0.638  15.481  10.451 -0.1087 -0.1612 -0.2405
11053W        W14273   2.025  18.107   6.248  0.1972 -0.0820 -0.0957
11054W        W14274   7.005  17.622   7.931  0.0549  0.1062 -0.0081
11055W        W14275  11.811   0.377   7.264  0.2710  0.0930  0.1276
11056W        W14276   3.589   3.163  13.663 -0.0048  0.3208  0.0988
11057W        W14277   6.467   5.092   7.972  0.0897 -0.2846  0.0899
11058W        W14278   3.132   9.714  15.910 -0.0091  0.0917 -0.1671
11059W        W14279   4.784  16.636  11.865  0.0166 -0.0667 -0.0039
11060W        W14280   7.923   0.622  13.675  0.0270 -0.3010  0.0391
11061W        W14281   7.723   3.438  14.048 -0.0087 -0.2571 -0.4184
11062W        W14282   2.692   4.415  10.937  0.0361 -0.1489 -0.0630
11063W        W14283   7.601   4.855   3.422 -0.0595 -0.3599  0.0311
11064W        W14284   0.398   5.381  10.234 -0.1227 -0.0326 -0.1306
11065W        W14285   3.427  17.233  10.305 -0.1352  0.0157  0.0264
11066W        W14286   6.711   2.206   7.454  0.1201  0.2305 -0.1824
11067W        W14287   0.096   6.351   7.658  0.1589 -0.0009 -0.0062
11068W        W14288   5.326   0.855  12.576 -0.0791 -0.2108 -0.2729
11069W        W14289  10.258   6.515  13.993 -0.0483  0.1175  0.0370
11070W        W14290   7.244   0.866  10.592  0.0624  0.1280  0.1371
11071W        W14291   6.156   1.863  10.732 -0.0220  0.1509  0.0703
11072W        W14292   7.647   9.349  11.202 -0.4732 -0.1241  0.3415
11073W        W14293   0.857   4.203  13.136  0.0170 -0.1213 -0.2787
11074W        W14294  12.137  10.514  16.781  0.3064 -0.1317  0.1599
11075W        W14295   7.810   6.145   9.232  0.3427 -0.0932 -0.4529
11076W        W14296   1.864   1.477   8.762  0.0024 -0.1685 -0.0497
11077W        W14297   2.669   6.596  14.687  0.1343 -0.0028  0.0830
11078W        W14298   4.693   3.706   2.522  0.0901  0.0796  0.2292
11079W        W14299   6.489   1.084   6.767 -0.0808 -0.1644  0.1114
11080W        W14300   4.505   4.333  14.126  0.2297  0.4726 -0.0646
11081W        W14301   9.730   0.810  15.961 -0.1361 -0.2051  0.2128
11082W        W14302  17.998  15.965   8.454  0.0516 -0.0151  0.2458
11083W        W14303   0.158   1.785   8.714 -0.2582  0.0178 -0.1591
11084W        W14304   9.022   2.858  13.651  0.1758 -0.1776 -0.0016
11085W        W14305  11.328  18.134   9.245  0.0340 -0.1103 -0.0735
11086W        W14306   4.157   5.087  17.709  0.2052  0.1500  0.1560
11087W        W14307   7.468   1.984  17.570  0.1504  0.1991  0.0102
11088W        W14308  12.694   1.670  13.005  0.0128  0.2250  0.1132
11089W        W14309   4.179   0.406   6.280  0.0463  0.1413 -0.0879
11090W        W14310  12.124   5.797  12.598 -0.2922 -0.2828 -0.0758
11091W        W14311   7.599  12.755   8.681 -0.0777 -0.0167 -0.1265
11092W        W14312  16.771   2.035  17.226  0.0588 -0.0194  0.0899
11093W        W14313   4.173  16.748  15.622  0.3447  0.1534 -0.0759
11094W        W14314  17.157   1.221  10.060  0.0607 -0.0335 -0.2888
11095W        W14315   6.058  17.089  16.276  0.1587 -0.0330  0.2246
11096W        W14316   9.588   1.716  15.137  0.2129 -0.1233 -0.0617
11097W        W14317   8.274   4.193  13.484 -0.2379  0.2382  0.0911
11098W        W14318   3.090   1.022  15.256 -0.0654  0.0791 -0.0229
11099W        W14319   7.326   3.004  13.675  0.0105  0.0447  0.1986
11100W        W14320   3.097   3.810  17.525 -0.1881  0.4744 -0.0903
11101W        W14321   4.475   8.383  17.342  0.0463  0.2607  0.2706
11102W        W14322   5.665  17.047  13.912 -0.0920  0.0646  0.1067
11103W        W14323   8.760   7.784   0.940 -0.1506  0.1331 -0.0846
11104W        W14324   3.810   1.303  14.200 -0.0356 -0.1466 -0.2497
11105W        W14325   8.760   4.019  12.571 -0.1310 -0.0308 -0.2213
11106W        W14326   1.178  15.765   4.085  0.4750  0.1796  0.0559
11107W        W14327  13.935   4.662  13.534 -0.0510  0.0096  0.4735
11108W        W14328   4.758   7.565  11.340  0.0992 -0.0332  0.0548
11109W        W14329   7.093   4.570  12.863  0.0318  0.0164  0.3865
11110W        W14330  17.754   8.486  10.401 -0.0004 -0.2766 -0.1676
11111W        W14331  13.402  17.258  17.422 -0.0081  0.0465 -0.3880
11112W        W14332   7.143  17.721  13.988  0.0360 -0.2744 -0.3796
11113W        W14333   9.298   4.623  17.912  0.1258  0.1352  0.2944
11114W        W14334   0.211   2.010   9.599 -0.0482  0.1802  0.1686
11115W        W14335   5.344   0.327  13.808  0.1179  0.0741  0.1214
11116W        W14336   4.474   2.951  13.544 -0.0136 -0.1692  0.3343
11117W        W14337  18.005   7.457  11.529  0.0475 -0.0973  0.3790
11118W        W14338   4.067   0.951   0.238  0.1285 -0.3943  0.2463
11119W        W14339   6.877  15.432   3.884  0.0753 -0.2019 -0.0144
11120W        W14340   3.464   6.429  17.249  0.1141 -0.2725  0.3357
11121W        W14341   9.975  15.857   6.818 -0.3074 -0.1545  0.0226
11122W        W14342   9.605   0.330  10.147 -0.0345 -0.2570  0.0329
11123W        W14343   3.304   2.637  10.351  0.0718  0.1357  0.0069
11124W        W14344  16.074   1.920   7.396  0.0698 -0.1065  0.0956
11125W        W14345   5.742   1.979  14.447  0.1215  0.0116 -0.0367
11126W        W14346   3.538   4.868   0.905 -0.0802 -0.0467  0.0009
11127W        W14347   0.709   3.597  15.090  0.2478 -0.1319  0.3505
11128W        W14348  12.167   5.463  15.181 -0.2519  0.0953 -0.0075
11129W        W14349   6.333   5.762  17.663 -0.3008  0.0009  0.0344
11130W        W14350  16.264   2.390   0.787  0.2731  0.3256  0.0398
11131W        W14351  11.375   9.436  15.800 -0.0576  0.0161  0.2819
11132W        W14352  11.709  16.210   6.407 -0.1629 -0.1522 -0.0369
11133W        W14353   2.300   4.450  16.222 -0.0271 -0.0545 -0.3080
11134W        W14354   0.238   5.162   1.269  0.2590  0.0047 -0.0369
11135W        W14355   3.733   2.810  16.549 -0.0557  0.2552  0.0959
11136W        W14356   8.973   1.405  17.128 -0.1101 -0.0101  0.1746
11137W        W14357   5.181   0.622  11.712 -0.2357  0.0188  0.0084
11138W        W14358   8.210  16.818  10.085 -0.3676 -0.0289 -0.0537
11139W        W14359  17.663   4.582   8.860 -0.0291  0.0857  0.0238
11140W        W14360  12.859  15.512  14.757 -0.1438 -0.3833  0.0088
11141W        W14361   4.770   4.013  11.442  0.0719 -0.1911  0.1579
11142W        W14362  15.491   3.125  16.080  0.1244  0.0247 -0.1101
11143W        W14363   9.978  17.570  11.597 -0.4330 -0.0602  0.1411
11144W        W14364   5.032   8.153  12.871 -0.0296  0.0515  0.2728
11145W        W14365   0.619   2.706  16.697 -0.0775 -0.3713 -0.3316
11146W        W14366   4.278   1.344   9.709 -0.0444  0.1401 -0.2357
11147W        W14367  17.745   1.696   0.393 -0.1352  0.0423 -0.0745
11148W        W14368   4.107   0.362  14.697  0.1488 -0.0378  0.1601
11149W        W14369   8.744   2.496  13.902  0.1118 -0.0523  0.0377
11150W        W14370   7.237   0.999  17.435 -0.0767  0.2139 -0.1889
11151W        W14371   7.704   4.792   7.741 -0.0812 -0.2753 -0.0558
11152W        W14372   2.898   2.280  15.655  0.0123 -0.0927 -0.0045
11153W        W14373   3.519  16.007   9.772  0.1303 -0.0513 -0.1832
11154W        W14374  13.824  16.956  13.739 -0.3466  0.3939 -0.0336
11155W        W14375  10.195   3.187  12.655 -0.0171 -0.0609  0.0247
11156W        W14376   7.886  17.002  12.633 -0.0341  0.2018  0.2731
11157W        W14377   6.843   1.548   8.944  0.0753  0.0247  0.1872
11158W        W14378  17.535   4.071   0.066 -0.1359  0.1975 -0.1161
11159W        W14379  10.623   2.852  17.011 -0.3483  0.2901  0.0694
11160W        W14380   6.651   2.072  16.975  0.2192 -0.0674  0.1004
11161W        W14381  11.067  11.710  13.385 -0.2839  0.1661  0.0621
11162W        W14382   7.402  13.970  11.596  0.2178 -0.1291 -0.3058
11163W        W14383  13.677   6.786  13.772  0.1622  0.0812  0.0806
11164W        W14384   6.437   4.015  15.325  0.1503 -0.1482  0.1397
11165W        W14385   4.625   7.842  16.523  0.1538 -0.1119  0.0078
11166W        W14386   2.456   2.060   6.685 -0.0148 -0.0640 -0.0042
11167W        W14387   8.227   3.109   9.285 -0.3046 -0.2417  0.1474
11168W        W14388   5.603   6.713  14.202  0.2171 -0.0276 -0.1189
11169W        W14389   6.484  16.795  12.696 -0.0578  0.1514 -0.0452
11170W        W14390   3.947  10.511  16.480  0.0436  0.1310  0.0248
11171W        W14391   6.804   2.406  10.004 -0.0609 -0.0273  0.2509
11172W        W14392   2.552  15.471   6.041  0.2158 -0.0741 -0.2126
11173W        W14393   0.831   3.354  14.609 -0.3162 -0.1232 -0.0489
11174W        W14394   0.146   0.392   8.600 -0.1148 -0.0102 -0.0883
11175W        W14395  13.339   2.647  10.975 -0.2255  0.0010  0.2723
11176W        W14396   8.726   3.471  14.193  0.1047  0.0484 -0.1328
11177W        W14397   3.648   1.222  15.062  0.0634  0.0633  0.0569
11178W        W14398   4.014   2.686   6.972 -0.2685  0.0692  0.1076
11179W        W14399   0.257   1.852  16.189 -0.1374 -0.2135 -0.1573
11180W        W14400   4.943   6.089  18.258 -0.0943 -0.3545  0.1828
11181W        W14401   7.218   6.903   2.822  0.2632 -0.0198  0.1613
11182W        W14402   1.081   2.922   5.430 -0.1756 -0.1013 -0.0549
11183W        W14403   0.427   8.329   8.692  0.0350  0.2228  0.0448
11184W        W14404  13.771   1.159  14.896 -0.1782  0.0965  0.3248
11185W        W14405   0.805   8.286  13.140 -0.3230 -0.2518 -0.0628
11186W        W14406   3.579  16.354   8.298  0.0551  0.0600 -0.1711
11187W        W14407   7.981   7.068  14.059 -0.0256 -0.0445  0.2189
11188W        W14408   4.147  12.798   6.286 -0.1776 -0.0849  0.2891
11189W        W14409  15.703   1.660  13.599 -0.0949  0.3179 -0.0139
11190W        W14410   4.179   8.785  12.954 -0.1003 -0.0792  0.1036
11191W        W14411  16.142  17.464  10.969  0.2082  0.0777 -0.1403
11192W        W14412   1.096   3.259  13.008  0.0243  0.0605  0.0353
11193W        W14413  13.246   2.677  16.684  0.2123 -0.0240  0.2553
11194W        W14414   6.998   6.394   9.886  0.3758 -0.0023  0.1796
11195W        W14415  12.008  14.933  13.403  0.1979 -0.1442  0.1674
11196W        W14416   2.856   1.962  10.457 -0.2259 -0.0488  0.1918
11197W        W14417   7.731   2.439  14.215 -0.1924 -0.1114  0.2154
11198W        W14418   8.461   3.339  13.672  0.1975 -0.1408 -0.2737
11199W        W14419  12.133   4.370  13.498  0.1739  0.0376 -0.0554
11200W        W14420   7.068   1.851  10.118 -0.0933  0.0227  0.1592
11201W        W14421   5.010   2.141  14.890  0.0989  0.2511  0.1223
11202W        W14422   5.843   6.627  18.038 -0.0679  0.3008  0.0568
11203W        W14423   4.925  14.741  14.160 -0.1136  0.0454 -0.2275
11204W        W14424   3.643  10.101  12.429 -0.0248 -0.3233 -0.2823
11205W        W14425  14.208  16.606  11.927 -0.2758 -0.1822 -0.3350
11206W        W14426   5.769   3.385  11.935  0.0891 -0.3059 -0.1282
11207W        W14427   2.006   4.632  17.025 -0.0518 -0.4473 -0.0598
11208W        W14428   6.284  16.971  15.758  0.0872 -0.2715 -0.0726
11209W        W14429   0.333   8.077   1.708  0.0818 -0.0499 -0.1277
11210W        W14430  10.713  14.920  12.405  0.1647  0.0627 -0.0872
11211W        W14431   1.119  17.682   4.362 -0.0002 -0.0830 -0.3229
11212W        W14432   6.219   3.428  17.939  0.0432  0.2557 -0.0223
11213W        W14433   7.487   1.467  17.383  0.0258  0.0229 -0.3293
11214W        W14434   3.186   7.844  11.165 -0.1141  0.0821  0.1175
11215W        W14435  11.076   3.332  15.978 -0.3731  0.3493 -0.0839
11216W        W14436   2.038   1.856  16.970 -0.0835  0.0981  0.3184
11217W        W14437  18.162  16.960  17.267  0.2577 -0.0060 -0.0699
11218W        W14438  16.912  14.851   4.189  0.1051 -0.1439  0.1987
11219W        W14439   9.043   9.907  17.270 -0.4388  0.1729 -0.0826
11220W        W14440   5.146   7.083  12.874 -0.2092  0.0913 -0.1498
11221W        W14441   2.202  11.964   4.059  0.1652 -0.0616 -0.1535
11222W        W14442  13.842   4.072   0.489  0.3241 -0.2095  0.2890
11223W        W14443   4.732   3.248  14.591 -0.2604  0.0176 -0.0361
11224W        W14444   3.352   5.562  10.308 -0.1380 -0.3527 -0.3083
11225W        W14445   6.226  16.911   8.312  0.0720 -0.1108 -0.0301
11226W        W14446  17.230   2.731  14.518 -0.3077 -0.1317  0.0440
11227W        W14447  17.323   1.685  10.122 -0.1081  0.0674 -0.0988
11228W        W14448   5.250   8.516  15.346  0.1248 -0.3158 -0.1736
11229W        W14449   7.061   1.291   9.690  0.3320  0.0353 -0.1805
11230W        W14450   0.704  17.572   7.789 -0.0240  0.1157 -0.0558
11231W        W14451   2.775   3.339   7.609 -0.0724 -0.0136 -0.1537
11232W        W14452   7.401   4.978  17.565  0.1464 -0.0798  0.0287
11233W        W14453   7.850   0.828   5.591 -0.0435  0.0319  0.0206
11234W        W14454   2.764   9.278  15.519 -0.0640  0.1241 -0.0498
11235W        W14455   1.455  17.563   1.885 -0.0205  0.0090 -0.2713
11236W        W14456  10.620   6.113  16.774  0.2364  0.0165 -0.0933
11237W        W14457  17.617   3.467   7.191  0.1609  0.3031 -0.4137
11238W        W14458  17.339   4.860   9.088 -0.1089 -0.1112 -0.3572
11239W        W14459   4.098   9.026   8.247 -0.2405  0.1399  0.1388
11240W        W14460   2.666   8.388  13.275  0.2808 -0.0103  0.0348
11241W        W14461   0.700  17.424   6.536 -0.2232 -0.1849 -0.1685
11242W        W14462   0.315   1.092  13.174 -0.1468 -0.5248  0.0493
11243W        W14463   8.101   7.327  10.269 -0.1243  0.2584 -0.0028
11244W        W14464   4.433  17.132   9.858  0.1022  0.2119  0.0563
11245W        W14465   5.445   4.699  14.130 -0.1554 -0.1149  0.0224
11246W        W14466   5.782   2.148  16.410  0.4034  0.0147  0.1842
11247W        W14467   0.123   4.330  15.272 -0.0207 -0.2888  0.1390
11248W        W14468  17.835   2.414  13.288  0.0449 -0.2585  0.2960
11249W        W14469  16.344   7.649   2.211  0.0753 -0.1190 -0.0358
11250W        W14470   6.450   4.617   8.349  0.0479  0.0223 -0.2653
11251W        W14471   8.724  18.039  14.364 -0.0750  0.0536 -0.1395
11252W        W14472   2.574  16.986   6.234  0.0987 -0.0586  0.0568
11253W        W14473   6.898  17.900   2.653 -0.0008 -0.0642 -0.1274
11254W        W14474   4.013   1.719   9.219 -0.1731 -0.1165 -0.0749
11255W        W14475   4.569   3.855  13.410  0.0228 -0.1366 -0.0233
11256W        W14476  17.659   1.523   9.102 -0.3197  0.0571 -0.0218
11257W        W14477   5.100   0.096  12.593  0.0012 -0.1438  0.0553
11258W        W14478   3.273   2.895  11.643  0.2686  0.1128  0.1536
11259W        W14479  17.494   2.113   7.873 -0.0441 -0.1784  0.0194
11260W        W14480   3.615   0.503  12.170  0.4404  0.2081  0.0009
11261W        W14481   8.717   2.153  12.039 -0.1079 -0.0657  0.0417
11262W        W14482   6.992  10.910   6.884 -0.1274  0.3568 -0.0460
11263W        W14483  17.098   2.191  14.899 -0.1870 -0.0132 -0.3175
11264W        W14484   7.647   2.952  14.139  0.0509 -0.2995 -0.0078
11265W        W14485   5.412   5.792  17.733  0.2339  0.0683 -0.2572
11266W        W14486   5.940   3.763  15.288 -0.0173 -0.6271 -0.4691
11267W        W14487   8.429   4.267   0.707  0.5233  0.0496 -0.1782
11268W        W14488   6.710  16.425  10.766  0.3036  0.1958 -0.1153
11269W        W14489  17.282   4.997   2.512  0.1415 -0.0508 -0.3027
11270W        W14490  18.157  13.298   9.030  0.0125  0.2036 -0.0272
11271W        W14491  10.366  17.322  15.473  0.3106 -0.1368  0.0649
11272W        W14492   5.420   1.352  11.607 -0.3004 -0.1678 -0.0215
11273W        W14493  12.509   4.572  14.297  0.0516 -0.0540  0.2170
11274W        W14494   6.971   4.266   7.156 -0.0668  0.1321 -0.0078
11275W        W14495   2.143  16.617   9.159  0.1973  0.1138  0.1473
11276W        W14496   6.800   3.666  11.967 -0.0681  0.0771 -0.3931
11277W        W14497  10.992   1.482  17.542  0.0971 -0.0230 -0.4369
11278W        W14498  10.886   5.214   0.493  0.0059 -0.1794  0.0530
11279W        W14499   2.081  14.696   9.074 -0.2186  0.2158 -0.2513
11280W        W14500   2.876   8.532  15.975 -0.0592  0.0008  0.0252
11281W        W14501  13.522  14.079  10.763 -0.1096  0.1033  0.0496
11282W        W14502   2.820   8.512  13.884  0.1733 -0.0068  0.1259
11283W        W14503   9.656  17.325  14.769  0.0353  0.0149  0.1453
11284W        W14504   9.420   1.945  16.434  0.2120  0.1080 -0.0999
11285W        W14505  12.071  18.070   0.699 -0.0991 -0.1459 -0.0655
11286W        W14506   6.558   2.194  12.702  0.1175 -0.0941  0.1276
11287W        W14507   7.421  11.144  12.391  0.0106  0.2307 -0.1048
11288W        W14508   4.388  14.421   4.121  0.0081  0.1472  0.1491
11289W        W14509   6.849   4.651  10.541  0.6767 -0.0883 -0.2556
11290W        W14510  10.230   1.706  15.644 -0.1317  0.1264  0.1638
11291W        W14511   1.203   3.795  12.719  0.0713  0.0946  0.2636
11292W        W14512   4.067   5.754  15.514  0.0167 -0.0645  0.1956
11293W        W14513  16.137   1.340  17.004 -0.0796 -0.0731  0.0545
11294W        W14514   1.312   4.148  14.325  0.0070 -0.1321 -0.3831
11295W        W14515   3.170  18.200   4.476  0.1011 -0.0449  0.2893
11296W        W14516  16.454  12.609  10.572  0.3057  0.1372 -0.0799
11297W        W14517   1.086   3.869   1.029 -0.1032 -0.2240 -0.2791
11298W        W14518   1.951  15.575   9.926  0.1596  0.0754 -0.0072
11299W        W14519  12.429   2.393   7.624  0.0563  0.0779 -0.2750
11300W        W14520   6.216   4.653  11.564  0.3088  0.1247  0.0042
11301W        W14521   6.301   1.799  12.821  0.0242 -0.3840  0.0308
11302W        W14522   6.261  16.405  12.419  0.0017  0.0223  0.0853
11303W        W14523   7.671   1.838  11.993 -0.0280  0.0424  0.0437
11304W        W14524  15.226   5.198  15.248 -0.0183 -0.0204  0.1293
11305W        W14525   8.054   6.117   7.773  0.0430  0.1768 -0.0441
11306W        W14526   3.529   0.890  16.523 -0.2067  0.2320  0.1065
11307W        W14527   6.615   3.378   8.798 -0.0584 -0.0398  0.1004
11308W        W14528   6.339  16.730  16.599  0.1106 -0.0795 -0.2195
11309W        W14529  12.989  16.542  17.159 -0.1415  0.2571  0.0553
11310W        W14530  11.247   2.263  10.459  0.1537  0.0599 -0.0841
11311W        W14531   2.012   6.121  15.144  0.0288  0.1177 -0.1191
11312W        W14532  17.767   1.526   3.660 -0.3338 -0.0523  0.1204
11313W        W14533   6.536   2.109   8.743 -0.1426 -0.1828 -0.2038
11314W        W14534   7.252   7.971  16.483 -0.1120 -0.0369  0.0247
11315W        W14535   9.830   9.662  14.070  0.2835 -0.0966 -0.0290
11316W        W14536   2.687   5.748  15.228 -0.1000  0.0556 -0.1733
11317W        W14537   1.631   0.080   6.620 -0.0760 -0.1060 -0.0291
11318W        W14538   7.351   4.966  16.612 -0.1831  0.1562  0.5153
11319W        W14539   1.073   4.129  10.169  0.2771  0.3320 -0.2475
11320W        W14540   7.061   8.141  15.377  0.0678 -0.1706  0.1118
11321W        W14541   3.766   5.613  16.490  0.1162 -0.1248  0.2181
11322W        W14542  17.637   4.540  10.399  0.2163  0.1299 -0.3045
11323W        W14543   5.426  16.253  11.760 -0.0762  0.0825  0.0677
11324W        W14544   7.001   7.856  17.653 -0.3543 -0.1095 -0.2495
11325W        W14545   8.332   9.656  15.089 -0.0763  0.1154  0.4312
11326W        W14546  17.280   2.849  13.387 -0.2261 -0.1421 -0.2491
11327W        W14547  16.644   0.567  11.301  0.0083 -0.0461  0.2267
11328W        W14548   6.573   6.268   1.179 -0.0531  0.3833 -0.1781
11329W        W14549   8.099   3.757  14.990 -0.1167 -0.1068 -0.0685
11330W        W14550   9.937   4.341   8.171  0.4948 -0.0551 -0.1428
11331W        W14551   6.329  13.932  18.102 -0.0327 -0.0963 -0.0700
11332W        W14552   0.472  17.794   4.663 -0.2470 -0.1195 -0.0993
11333W        W14553  10.117   6.521  14.617 -0.3810  0.2619  0.1956
11334W        W14554   7.874  15.726   8.447 -0.2664  0.4187 -0.1524
11335W        W14555   8.567  15.206  18.110 -0.1621 -0.4039 -0.1033
11336W        W14556  10.525   1.350   0.338  0.4503 -0.1241 -0.0264
11337W        W14557   9.112   4.227  13.250  0.0996  0.1849 -0.2913
11338W        W14558   7.119   0.237  13.768 -0.1620 -0.1266  0.0769
11339W        W14559   5.096  10.360   2.262  0.0620  0.1349 -0.1065
11340W        W14560   7.547   7.110  17.601  0.1740 -0.2444 -0.0445
11341W        W14561   7.839   2.427   7.956 -0.1664 -0.1108  0.1825
11342W        W14562  18.152   6.632  15.614 -0.0409  0.2253  0.3512
11343W        W14563   4.230   3.214   0.437  0.2248 -0.2520 -0.2109
11344W        W14564   4.785  16.796   2.473  0.2219  0.1264  0.1690
11345W        W14565   4.574   6.012  12.247 -0.1580 -0.2192 -0.0464
11346W        W14566   3.857   0.917   5.638  0.2536  0.0120 -0.0493
11347W        W14567  10.623   3.048   9.322 -0.1729  0.1830 -0.0590
11348W        W14568   3.986   5.213  14.611  0.0284  0.1040  0.0602
11349W        W14569   0.801  13.231   3.102  0.0592  0.3103  0.1998
11350W        W14570   4.235  14.373  10.438 -0.0143  0.3413 -0.0397
11351W        W14571   6.168   0.463   8.988  0.1273  0.1059  0.1437
11352W        W14572   4.034   0.481   1.748  0.2562 -0.0793 -0.0670
11353W        W14573   9.184  15.418  16.387  0.0700 -0.1505 -0.0168
11354W        W14574   3.533  16.714   9.554 -0.1391 -0.1226  0.0295
11355W        W14575   0.900   1.655  12.685  0.3355 -0.4291 -0.0076
11356W        W14576   4.576  14.528   9.402 -0.1586  0.0191  0.0056
11357W        W14577   3.180   2.518  14.249  0.1808  0.2741  0.0859
11358W        W14578   4.218   3.255  14.925  0.4367  0.0824 -0.2566
11359W        W14579   1.387   3.612  11.016  0.0626  0.2653 -0.0822
11360W        W14580  10.837  17.577  11.150  0.0682 -0.0868 -0.1219
11361W        W14581   8.198  15.199   9.996  0.3468  0.1606 -0.2848
11362W        W14582  14.422   2.129   8.580  0.1463 -0.1775  0.0287
11363W        W14583   9.560  18.037  10.267  0.0526 -0.0394 -0.0365
11364W        W14584  10.849   1.823   7.529  0.3414  0.0621 -0.1167
11365W        W14585   8.130   1.557  11.533 -0.3045  0.1366  0.2244
11366W        W14586   8.504  16.847  11.301  0.1537  0.1639  0.2042
11367W        W14587   8.576  14.277  12.182 -0.0206 -0.3143  0.0053
11368W        W14588  15.112  14.127  11.532 -0.0165 -0.2504 -0.0045
11369W        W14589   5.425  10.479  17.164 -0.2002  0.1291  0.0216
11370W        W14590   4.951  12.048  10.686  0.3869 -0.1579 -0.1538
11371W        W14591   8.680  15.974  12.966 -0.1000  0.0371  0.1408
11372W        W14592   5.650  15.644  15.303  0.1204 -0.1354  0.1186
11373W        W14593   4.096  14.253   5.832 -0.2940 -0.0968  0.2991
11374W        W14594   6.360   9.297  17.049  0.0941 -0.0180  0.0301
11375W        W14595   1.131   2.755  15.460 -0.2749 -0.0011 -0.0184
11376W        W14596  17.813  17.595   6.361  0.1447  0.0844  0.0221
11377W        W14597   7.690   6.356  17.486  0.1550 -0.0318 -0.0459
11378W        W14598   8.924   3.354  13.691 -0.0668  0.0229 -0.0335
11379W        W14599   4.859   1.242  10.542 -0.0552  0.0162  0.1626
11380W        W14600   2.718   8.040  10.967  0.2842  0.0150  0.1048
11381W        W14601   5.850  18.090  16.098  0.0650  0.0995 -0.3011
11382W        W14602   5.703   2.447  16.013 -0.1278 -0.3019 -0.1477
11383W        W14603  10.315  11.832  10.828  0.1164 -0.1112  0.2303
11384W        W14604   8.637  11.589   2.967  0.0584  0.2430  0.0010
11385W        W14605   5.275  14.129  15.317  0.0048 -0.0145 -0.2046
11386W        W14606   6.484   8.753  12.146 -0.0017  0.1499  0.1397
11387W        W14607  14.624   2.334  14.225 -0.2382 -0.3301 -0.2847
11388W        W14608   8.243   3.795   1.629 -0.0124  0.0254 -0.0119
11389W        W14609   6.259   1.359  13.209  0.1988  0.1878 -0.1008
11390W        W14610   0.223   8.028  10.806 -0.0207 -0.0149  0.1104
11391W        W14611   7.502  10.949  14.789  0.2072  0.2917 -0.0820
11392W        W14612   2.602   6.455   0.814 -0.0587  0.0502  0.0348
11393W        W14613   3.518   2.249  11.673 -0.1070  0.1213 -0.0292
11394W        W14614   0.436  15.003  10.363 -0.0611  0.0059 -0.0596
11395W        W14615   7.641  12.790  12.865 -0.1353 -0.2725 -0.0984
11396W        W14616  10.281   2.057  10.491  0.1498  0.0281 -0.0603
11397W        W14617   9.633   3.923   2.702 -0.0213 -0.2736  0.0003
11398W        W14618   4.373   0.042  10.017 -0.0568  0.0181 -0.0384
11399W        W14619   4.863   1.433  14.285 -0.1557 -0.0020  0.0259
11400W        W14620   5.278   2.733  13.445  0.0487 -0.2541  0.1509
11401W        W14621   7.030   4.853  16.207 -0.0032 -0.1727  0.1175
11402W        W14622   5.407  16.170   2.802 -0.4471 -0.1916 -0.0048
11403W        W14623   7.292   4.098  17.133  0.1933  0.1296  0.0162
11404W        W14624   9.901   0.812  11.174  0.2195  0.2535 -0.0860
11405W        W14625   4.145   3.475  18.221  0.2001  0.4331 -0.1395
11406W        W14626  11.167   0.819  14.888  0.2123 -0.0502  0.0393
11407W        W14627   9.144   1.045  13.341 -0.5808  0.1889  0.1875
11408W        W14628   5.232   5.276   9.806 -0.0205  0.4484 -0.1704
11409W        W14629   1.476   6.942   5.132 -0.1135 -0.0245 -0.0629
11410W        W14630   1.323   2.829  10.504  0.1786  0.1332 -0.1580
11411W        W14631   7.552   0.235  15.754  0.0029  0.3689 -0.0095
11412W        W14632   4.576   0.692  14.002 -0.0251 -0.2089  0.3221
11413W        W14633   6.241   4.162  11.302  0.0503 -0.1285  0.1212
11414W        W14634  10.248  11.942  11.733  0.4438 -0.2404  0.0885
11415W        W14635   0.038   3.378   7.890 -0.0476  0.1763 -0.0754
11416W        W14636   5.023   5.848  12.029 -0.0024 -0.1691  0.0558
11417W        W14637   6.700   4.526   6.190  0.1211  0.2184 -0.0494
11418W        W14638   2.670   5.062  10.821  0.1116  0.0073  0.1007
11419W        W14639   1.842   0.811   9.484  0.1617 -0.0685  0.3060
11420W        W14640   4.831   0.113  11.730 -0.0564 -0.2148 -0.1059
11421W        W14641   2.400   3.561   6.115 -0.4140  0.2239 -0.0006
11422W        W14642  17.404   5.918  13.289  0.0062  0.2744  0.2059
11423W        W14643  14.923   0.793  10.284 -0.0170 -0.1520  0.1445
11424W        W14644   1.466   6.989  12.800  0.0290  0.0156  0.1549
11425W        W14645   7.243  17.511  10.937 -0.0490 -0.0623 -0.1404
11426W        W14646   9.404  15.202  11.390  0.0017  0.0527 -0.3946
11427W        W14647   8.514  10.395   4.292  0.1230 -0.2867  0.1977
11428W        W14648   1.193   2.004  12.586  0.0614  0.0693 -0.0765
11429W        W14649   6.080   2.721  14.999 -0.0744  0.0100 -0.1282
11430W        W14650   0.813   6.895  18.088  0.1003 -0.2558  0.5337
11431W        W14651   2.029   1.835   6.605  0.2591 -0.0562 -0.1134
11432W        W14652   4.034  11.740   2.284 -0.0571  0.2614 -0.0067
11433W        W14653  15.104  16.888   1.652 -0.0613  0.0163  0.2574
11434W        W14654   2.192   1.098  12.208 -0.1163 -0.2471 -0.2481
11435W        W14655   7.379  17.315  10.424  0.1062  0.0328  0.0334
11436W        W14656   1.377  18.125   4.611  0.1200  0.3200 -0.1264
11437W        W14657   6.616  16.743  12.196 -0.0547  0.0668 -0.0273
11438W        W14658   6.409  16.150  14.020 -0.1593 -0.1842 -0.1835
11439W        W14659   0.680   3.913   2.926  0.0142  0.0034 -0.1615
11440W        W14660   2.423   1.985   1.601  0.0150 -0.1292  0.2241
11441W        W14661   9.853   2.677   1.217  0.2520  0.1282  0.0041
11442W        W14662   7.791   3.160  11.526  0.1243  0.0366  0.4803
11443W        W14663   0.537   3.962  11.475  0.0504 -0.0509  0.1729
11444W        W14664  12.091  17.086   9.279  0.0505 -0.4151 -0.0381
11445W        W14665   8.827   4.284  13.635  0.0483  0.0995  0.3230
11446W        W14666  16.206   9.432  17.331  0.1380 -0.2017 -0.0145
11447W        W14667  16.651   4.555   2.952  0.1602 -0.1395 -0.1112
11448W        W14668   8.108   8.710  12.845 -0.0334 -0.1820  0.0682
11449W        W14669   4.039   8.537  13.455 -0.1422 -0.0443  0.1529
11450W        W14670   8.246  16.498  16.777  0.0026 -0.3464 -0.1167
11451W        W14671   4.991   5.390  14.765  0.2333  0.1009  0.2603
11452W        W14672   9.009   0.669  15.683 -0.0246 -0.0467  0.2521
11453W        W14673   9.016   0.130  14.986 -0.1901 -0.0279  0.3133
11454W        W14674   3.873   1.389   5.703  0.0049 -0.0618 -0.1582
11455W        W14675   7.608  14.274  11.122 -0.1079  0.2033  0.0530
11456W        W14676   5.180   9.188  17.891  0.2515  0.1679  0.0173
11457W        W14677   7.374   5.347  13.749 -0.0380  0.2298 -0.0315
11458W        W14678   1.130   5.117   3.342  0.3270  0.2470  0.0764
11459W        W14679   7.999  14.661  15.164  0.0928  0.2346 -0.0396
11460W        W14680   6.193   2.207   3.299  0.0097  0.1793  0.0780
11461W        W14681   9.239   8.849  16.549 -0.1066 -0.0760  0.0907
11462W        W14682  17.748   4.093  11.492  0.3218  0.3273  0.0780
11463W        W14683   7.982   0.615  14.977 -0.2037  0.0027  0.1421
11464W        W14684   3.209   2.792  16.773  0.0846 -0.3271 -0.1487
11465W        W14685   1.768   6.544  14.217 -0.2765 -0.2658 -0.0797
11466W        W14686   4.117  16.232   7.790  0.1720  0.0144 -0.3386
11467W        W14687  10.075   7.792   0.277  0.3412  0.1178  0.0009
11468W        W14688  17.435   3.331  15.693  0.1202 -0.1566  0.1174
11469W        W14689   7.424  17.022  12.388 -0.0947 -0.2799  0.4990
11470W        W14690   7.058  18.173   5.574 -0.2595  0.1380  0.1068
11471W        W14691   5.423  11.975  11.035  0.1425 -0.0251  0.0359
11472W        W14692  13.409   7.309  12.423 -0.0773  0.0229 -0.0084
11473W        W14693   0.445   2.930  11.886  0.0838  0.1100 -0.2242
11474W        W14694   9.976   1.900  16.628  0.0884 -0.0283  0.0849
11475W        W14695  16.027   8.622   2.494 -0.0585 -0.1719 -0.0600
11476W        W14696  10.400   0.291  13.765 -0.2111  0.5531  0.2789
11477W        W14697   5.697   3.220  14.612 -0.0014 -0.1749 -0.1004
11478W        W14698  15.744  17.763  10.689 -0.0714  0.2059 -0.1253
11479W        W14699   1.671   5.456  15.207 -0.0346  0.0205  0.1369
11480W        W14700   9.329  17.553  15.036  0.2693 -0.0049 -0.0335
11481W        W14701   4.357  12.634  14.683  0.1965  0.3540 -0.1697
11482W        W14702   3.760   0.531  15.672  0.1671  0.6603 -0.0861
11483W        W14703   5.381   4.441   8.140  0.0246 -0.2127 -0.2754
11484W        W14704   7.729  16.968  16.744 -0.1055  0.0308 -0.1373
11485W        W14705   6.287  12.346   5.949 -0.1195 -0.0135  0.1087
11486W        W14706   3.931   2.623  12.262  0.1993 -0.0391  0.1483
11487W        W14707   1.920   1.191  15.455  0.4690 -0.0131  0.0028
11488W        W14708   0.769   0.820  12.954  0.0050 -0.0012 -0.1029
11489W        W14709   5.589   4.804   1.274 -0.1356  0.3455  0.3151
11490W        W14710   3.093   9.006  16.075  0.0547 -0.2333  0.0652
11491W        W14711   4.010  17.569   7.136  0.4252  0.0702 -0.2450
11492W        W14712   7.065   9.272   1.138 -0.1068 -0.0419  0.0996
11493W        W14713   6.118   6.656  12.674  0.2268  0.2795  0.0548
11494W        W14714  10.469   4.862   0.855 -0.0993 -0.0871  0.0339
11495W        W14715   1.105   3.734  13.199  0.2084  0.0984  0.0669
11496W        W14716  14.139   0.615  16.169 -0.1038  0.1531 -0.0173
11497W        W14717   5.819   1.551  16.424  0.1977  0.1989 -0.0730
11498W        W14718   0.533   2.514   7.949 -0.2617 -0.1202 -0.0633
11499W        W14719   4.810   4.034   2.193 -0.1698 -0.2973  0.1391
11500W        W14720  17.169  14.823   8.053  0.0815 -0.1241 -0.1945
11501W        W14721   4.424   2.049  13.476  0.1620 -0.1847 -0.2892
11502W        W14722  14.667   3.904  13.435 -0.3218 -0.2585  0.2555
11503W        W14723   5.973  17.541   2.845 -0.3224 -0.0145  0.0855
11504W        W14724   1.779   3.227   1.063  0.0959 -0.2471 -0.4133
11505W        W14725   9.979   2.612   0.299 -0.5377 -0.1246 -0.1191
11506W        W14726   2.089   1.799  15.102 -0.0306 -0.0994 -0.3361
11507W        W14727   2.214   1.212   7.941 -0.0627  0.0721 -0.0764
11508W        W14728   0.856   5.373   0.451  0.0443 -0.2722 -0.2573
11509W        W14729   6.430   7.228  18.174 -0.1194  0.0050 -0.0659
11510W        W14730   2.255   9.109  17.284 -0.0431 -0.1660  0.0882
11511W        W14731  18.223   2.128   4.124  0.0125 -0.0741 -0.0446
11512W        W14732  10.212   4.285  17.114  0.0873 -0.1656  0.0204
11513W        W14733   7.198   1.611   8.015 -0.2726  0.1240 -0.2411
11514W        W14734   5.968  12.302  17.569  0.1497  0.2116 -0.0053
11515W        W14735   2.492   6.634  10.506  0.0603 -0.2666  0.0206
11516W        W14736   5.221   7.530  14.338  0.2166 -0.1464 -0.3950
11517W        W14737   4.310  10.105  14.259 -0.2580  0.1533 -0.1918
11518W        W14738   6.241   2.096   4.490  0.2370  0.0563 -0.0073
11519W        W14739  17.765   3.056   5.091  0.1560  0.2759 -0.4808
11520W        W14740   6.268   4.334  16.410 -0.2383 -0.0675  0.0795
11521W        W14741   4.284   4.652  16.252 -0.1872 -0.2086 -0.0719
11522W        W14742   7.244  17.432   5.443 -0.1049 -0.0611 -0.3242
11523W        W14743   5.603   1.921   0.038 -0.1133 -0.1568 -0.1570
11524W        W14744   2.624   5.603  11.939  0.0933  0.0775  0.2473
11525W        W14745   0.695   6.873  13.960  0.0021  0.1539  0.0171
11526W        W14746  17.625  11.823   3.889  0.1537  0.0881  0.1536
11527W        W14747  11.363  17.923  14.017  0.0696 -0.3274 -0.0922
11528W        W14748   7.895   2.366  11.626 -0.0168  0.0677  0.0842
11529W        W14749  12.825  16.400   2.397 -0.3546 -0.1147  0.1752
11530W        W14750   4.541   9.315   0.871 -0.1507 -0.2174  0.0910
11531W        W14751   2.938   7.352  13.960  0.0180 -0.0143 -0.0038
11532W        W14752   9.221  13.046  14.260 -0.0570 -0.0774  0.0412
11533W        W14753   2.627  10.041  14.403  0.0873 -0.0222 -0.0085
11534W        W14754   2.961   4.133   1.694 -0.0437  0.1935  0.0866
11535W        W14755   5.440   2.109   4.810 -0.1878 -0.1181 -0.1994
11536W        W14756  11.973   1.156  15.143  0.0728 -0.0952 -0.1227
11537W        W14757   8.944  16.447  17.530  0.0816  0.1926  0.1909
11538W        W14758  14.559   9.344  13.886  0.0807 -0.2571 -0.2024
11539W        W14759   2.650   6.287  10.158  0.0301  0.3269  0.0178
11540W        W14760  16.423   6.585  12.929 -0.0104  0.0776 -0.0059
11541W        W14761  17.800   3.789  16.851 -0.2049 -0.0535 -0.3082
11542W        W14762   9.742   5.655   4.571  0.1094  0.0469  0.2186
11543W        W14763  11.211   1.522  10.940 -0.1802 -0.0048  0.3203
11544W        W14764   9.166   7.691  15.895 -0.0425  0.0526 -0.2602
11545W        W14765   0.066   4.932  15.108  0.2486 -0.4160 -0.3432
11546W        W14766  12.289   2.954  12.195 -0.1157 -0.3529 -0.0965
11547W        W14767   4.728   5.571  15.143 -0.0384 -0.0448  0.1212
11548W        W14768   7.382   2.483   5.368 -0.3964 -0.1293 -0.1101
11549W        W14769  11.184   0.998  10.069  0.0008 -0.0104  0.4724
11550W        W14770   1.786   3.172   9.739 -0.1284  0.0474 -0.1338
11551W        W14771  15.251  17.143   5.771  0.4616  0.1033  0.1158
11552W        W14772   4.639  10.472  14.207 -0.3721  0.0009 -0.0552
11553W        W14773   2.749  14.007   2.094  0.1713  0.2549  0.0045
11554W        W14774   6.645   0.777   0.802 -0.0590  0.0814  0.0767
11555W        W14775   7.904   4.524   2.103 -0.0203 -0.0774 -0.0671
11556W        W14776  10.872   3.727  14.021 -0.2521  0.0776 -0.3574
11557W        W14777   1.915   3.585   5.116 -0.0039 -0.2329 -0.0939
11558W        W14778  12.203  18.048  13.628 -0.0632 -0.1227 -0.1635
11559W        W14779   7.434   4.228   1.960 -0.0257 -0.0750  0.0820
11560W        W14780   8.794  17.681  13.526 -0.0259 -0.1447 -0.1573
11561W        W14781   8.133  15.154  16.351 -0.0963 -0.0994  0.0440
11562W        W14782   7.224   6.307   6.696 -0.1758 -0.0651  0.2299
11563W        W14783   9.605   0.801  10.476  0.1736  0.2279  0.0644
11564W        W14784   9.610   2.760  10.419  0.3659 -0.0771  0.2739
11565W        W14785   3.573  15.384  14.265 -0.0512 -0.1885 -0.0539
11566W        W14786   2.567   9.021  15.967  0.1438  0.0375  0.0246
11567W        W14787   2.647   4.613   1.653 -0.0031 -0.1525 -0.3313
11568W        W14788   4.597  17.571  18.185 -0.0315  0.1119  0.1132
11569W        W14789  17.554  16.538  16.710 -0.1829 -0.1653 -0.0298
11570W        W14790   5.785   2.151  15.601 -0.1002  0.3451 -0.0358
11571W        W14791   8.928   4.292   9.908  0.0008  0.3715 -0.2593
11572W        W14792  18.240   6.232  14.860  0.0280 -0.1193 -0.1089
11573W        W14793   7.258   2.225   1.382 -0.1973 -0.2170  0.0307
11574W        W14794   5.709   1.888  15.995  0.1025 -0.0989  0.1790
11575W        W14795  17.845   7.488   0.100  0.2688  0.0259 -0.3551
11576W        W14796   3.727  16.977   0.922  0.0150 -0.4947  0.2411
11577W        W14797   1.704   2.398  14.269  0.1337  0.2429 -0.2225
11578W        W14798   5.198   4.330  17.793 -0.1925  0.1370  0.1555
11579W        W14799   4.353  15.032  18.091  0.3547 -0.0168 -0.1098
11580W        W14800   5.602   4.169   5.150  0.1435 -0.3451 -0.1173
11581W        W14801   1.363   1.619   3.549  0.1952 -0.0869  0.0010
11582W        W14802  10.811   0.053  12.512 -0.1675 -0.1583  0.0528
11583W        W14803   4.080   3.849  17.141 -0.1636  0.2478 -0.0242
11584W        W14804  16.578  17.270  16.373  0.1700  0.0411  0.4479
11585W        W14805  13.392   4.757  15.403  0.1070  0.1308 -0.0882
11586W        W14806   8.526   6.619   9.598  0.1426  0.1569 -0.1625
11587W        W14807   4.353   1.981   2.831 -0.2095  0.1938  0.0355
11588W        W14808   3.510  13.145   2.960  0.1499 -0.0581  0.3722
11589W        W14809   4.525  18.032  15.465  0.1297 -0.3142 -0.0922
11590W        W14810   4.629   3.367   0.675  0.1240  0.0130 -0.1151
11591W        W14811   0.901   9.223  13.048  0.0580  0.3315  0.1833
11592W        W14812   9.658   0.598  14.970  0.2958 -0.0313  0.0848
11593W        W14813   6.797  17.717   4.785 -0.1997  0.0391  0.0029
11594W        W14814   1.555  16.527   2.169  0.1679  0.1101 -0.0875
11595W        W14815  11.024   4.808   3.334  0.1574 -0.1912 -0.0562
11596W        W14816   9.873   1.376  15.392  0.0758  0.0606  0.0690
11597W        W14817   0.418  11.087  12.112 -0.3401 -0.5087 -0.0578
11598W        W14818   5.110   4.276  13.689 -0.3187  0.0464 -0.0471
11599W        W14819   2.072  12.839   3.568 -0.0468  0.1325  0.1752
11600W        W14820   0.352   6.224   3.960 -0.1877 -0.1107 -0.0391
11601W        W14821  11.922   9.935  14.712 -0.0712 -0.0634  0.2824
11602W        W14822   3.042   1.450   9.140 -0.1992  0.0639 -0.1300
11603W        W14823   3.151  13.238   2.602  0.2072 -0.0544 -0.0281
11604W        W14824  10.842   1.529  18.167  0.1501 -0.2181 -0.2097
11605W        W14825   4.180  14.739  15.963 -0.0126 -0.0703  0.0685
11606W        W14826   2.971   2.095  12.971  0.1615 -0.0973  0.2027
11607W        W14827   4.440  16.096  17.864  0.0386 -0.0750  0.2465
11608W        W14828   1.362   4.975  16.386 -0.2284 -0.2747  0.1248
11609W        W14829   2.532   3.358  15.656 -0.0998  0.2632 -0.1277
11610W        W14830   4.548   1.715  13.965  0.1097  0.2124 -0.0762
11611W        W14831  11.293   4.543  18.225  0.0833 -0.0168  0.1626
11612W        W14832   1.588   5.825  17.473  0.0863 -0.2804  0.2493
11613W        W14833   1.387   7.545  16.773  0.0508 -0.3792  0.1144
11614W        W14834   2.450   0.785  15.335 -0.1254  0.0765 -0.0221
11615W        W14835   1.196   3.763   0.602  0.2179 -0.2594 -0.1611
11616W        W14836   3.154   0.954   9.350  0.0683 -0.0858 -0.3992
11617W        W14837   6.116   1.742  15.592  0.2205 -0.0463  0.0424
11618W        W14838   3.966   3.390  17.140  0.1334  0.1110 -0.2223
11619W        W14839   1.846  15.332  17.304 -0.0068 -0.3557 -0.2502
11620W        W14840   7.169   5.090  11.486  0.0160  0.0343  0.1390
11621W        W14841   7.878   4.093   0.718 -0.1384 -0.0287  0.2674
11622W        W14842   0.207   9.431   7.787  0.2913 -0.1802  0.2488
11623W        W14843   4.297  16.040   0.991  0.0124 -0.0676 -0.0562
11624W        W14844  11.106  16.113  18.134 -0.0875 -0.1230 -0.0348
11625W        W14845  16.595  17.539   7.905 -0.1637 -0.1355  0.1130
11626W        W14846   5.401   8.668   1.093  0.1030  0.1133  0.0759
11627W        W14847   0.840   0.389  16.589 -0.5086  0.2236 -0.0349
11628W        W14848   5.731   1.307  17.841 -0.0709  0.3866  0.4199
11629W        W14849   5.747  16.660  16.734 -0.0680 -0.0164  0.0639
11630W        W14850   4.319   1.091   4.001  0.1474 -0.0098 -0.2307
11631W        W14851   3.819  14.516  11.209 -0.1171  0.1503 -0.1911
11632W        W14852   5.148  12.919   1.702 -0.1977  0.0773 -0.0652
11633W        W14853   7.340   1.191  15.778 -0.1087  0.0363  0.0544
11634W        W14854  10.113   0.526   0.116 -0.2248  0.2205 -0.0505
11635W        W14855   6.944   1.778  14.389  0.1670 -0.0454  0.1249
11636W        W14856  15.266  17.450   0.065 -0.1335 -0.0744 -0.0356
11637W        W14857  16.100  15.276   1.355 -0.1872  0.1172 -0.0513
11638W        W14858   1.702   1.674  15.559  0.3148  0.1373  0.2172
11639W        W14859   4.040   6.643  17.869 -0.0914 -0.1489 -0.2292
11640W        W14860   4.230   2.815   4.271  0.0458 -0.0557 -0.0749
11641W        W14861  12.846  17.994   0.341 -0.1894 -0.2612  0.1651
11642W        W14862   2.308   5.997   8.943  0.2743  0.1521  0.0351
11643W        W14863   4.061   3.589   5.921  0.0385 -0.0462  0.1331
11644W        W14864   9.658   2.898  16.202 -0.4017 -0.1082  0.1126
11645W        W14865   2.380  14.892  13.080 -0.0445  0.3119 -0.2199
11646W        W14866   2.608  18.063  13.222  0.1465  0.0703 -0.0600
11647W        W14867   9.981  18.106  11.027  0.2611 -0.1176 -0.0513
11648W        W14868   1.392   4.662  13.688 -0.0767  0.0823 -0.2099
11649W        W14869   3.623   4.915   0.443  0.0470  0.2576 -0.0956
11650W        W14870   5.888   5.009  11.446 -0.0244 -0.0026  0.1227
11651W        W14871   5.467  14.576  15.441 -0.1632 -0.2729 -0.0253
11652W        W14872   2.191  15.853   2.185  0.1556 -0.0018 -0.0702
11653W        W14873  18.268   2.399  16.382  0.2893 -0.0263 -0.3869
11654W        W14874  16.719   3.365   4.911  0.0193  0.0120 -0.0932
11655W        W14875  17.625  16.249  17.176  0.0454 -0.1062 -0.0420
11656W        W14876   4.236   3.900  17.849 -0.1824  0.1179  0.1766
11657W        W14877   0.243   6.739   3.664 -0.2703 -0.1590 -0.0903
11658W        W14878   0.147   7.089   1.860  0.0596  0.0099 -0.1020
11659W        W14879   6.009   4.441  10.004 -0.0331  0.2905 -0.1176
11660W        W14880   2.922   4.851  10.037 -0.1572 -0.2092  0.1175
11661W        W14881   0.259  17.227  13.387  0.1463  0.0427  0.0376
11662W        W14882   9.507  17.951   3.386 -0.1693 -0.2133 -0.0329
11663W        W14883   4.643   8.641  14.149 -0.1153  0.0839 -0.2009
11664W        W14884   8.260  17.740  13.487 -0.0503  0.1340 -0.0995
11665W        W14885   4.520  15.799  15.093  0.0060 -0.0635 -0.2725
11666W        W14886  17.787   2.375   2.743  0.4914  0.1865  0.0084
11667W        W14887   2.642   1.932  13.453  0.0119 -0.1163  0.2102
11668W        W14888   7.655   2.493  12.948 -0.1508  0.1059 -0.0122
11669W        W14889   4.321   3.893   2.956  0.2372  0.0457  0.0379
11670W        W14890   8.341  14.645  13.603 -0.1335  0.3272  0.0446
11671W        W14891   1.066   9.619  15.413 -0.0630  0.0416  0.0831
11672W        W14892   0.438   1.995   0.294  0.1924 -0.1896  0.2287
11673W        W14893   6.688   7.301  11.909  0.1770 -0.0584 -0.0336
11674W        W14894  10.047  16.324  16.349  0.0117  0.2233  0.2647
11675W        W14895   5.836  14.263  14.118  0.3306  0.3662 -0.1585
11676W        W14896   6.942   2.024   3.881  0.0194 -0.2004 -0.1223
11677W        W14897   4.650  12.428   3.440  0.2121 -0.0036 -0.0753
11678W        W14898   2.686   3.777  12.938 -0.0764  0.1185  0.0006
11679W        W14899   3.330   5.855   8.935 -0.2137  0.2501  0.2029
11680W        W14900  17.782   5.812  15.624  0.1744  0.0097  0.0243
11681W        W14901   1.952   6.967  14.582 -0.0863 -0.2808 -0.1444
11682W        W14902   6.858   3.360  14.989  0.0380  0.0251 -0.1013
11683W        W14903   4.444  15.982   2.349 -0.0895 -0.2646  0.2089
11684W        W14904   7.966   7.059  15.030  0.0503 -0.2506 -0.2260
11685W        W14905   5.363   5.912  15.785 -0.0555 -0.0394 -0.0209
11686W        W14906   8.419   2.504  17.630 -0.1429 -0.2171 -0.1642
11687W        W14907   8.419   8.917   1.366  0.2016 -0.1998  0.1694
11688W        W14908  16.430  10.672  12.961 -0.0221 -0.0251  0.1711
11689W        W14909   1.607   4.206   3.090  0.1005 -0.0687 -0.1266
11690W        W14910   2.707   4.692  18.042  0.0183 -0.0668  0.0221
11691W        W14911   3.488   1.923  14.898 -0.1731  0.2398  0.2364
11692W        W14912   5.213  17.059  12.959 -0.4860 -0.1466 -0.2090
11693W        W14913  13.714  17.996  16.130 -0.0461 -0.0605  0.0772
11694W        W14914   2.698  17.085   3.981 -0.0779  0.3163  0.0905
11695W        W14915   7.208   2.548  17.628 -0.1286 -0.0620 -0.2431
11696W        W14916  16.278   6.769   0.300 -0.0665 -0.0523  0.1527
11697W        W14917   1.991   0.376  14.241 -0.1753  0.1760  0.0333
11698W        W14918   4.872  12.536  15.178  0.1484 -0.1071  0.0751
11699W        W14919  14.556   7.372  15.963 -0.0493 -0.2238  0.1712
11700W        W14920  17.420   2.918  11.532 -0.2559 -0.2630 -0.0299
11701W        W14921  17.809   3.161   0.473 -0.0368  0.0856  0.0989
11702W        W14922   7.019   6.282   1.997  0.0068  0.2922 -0.3325
11703W        W14923   3.813  14.941   3.186 -0.0375 -0.0604 -0.1072
11704W        W14924  10.176   1.617   1.341  0.1205 -0.1251 -0.0928
11705W        W14925   6.035   1.202   1.317  0.0231 -0.1148  0.4234
11706W        W14926   2.827   5.102   1.583  0.3281  0.3479 -0.1817
11707W        W14927   5.710   2.145  11.163 -0.2120  0.1326  0.2847
11708W        W14928  17.633   1.744   6.240  0.0043 -0.2676  0.1415
11709W        W14929   5.075   2.802  15.172  0.0047 -0.0360  0.1580
11710W        W14930   4.997   9.012  15.550  0.1685  0.1242 -0.0657
11711W        W14931   6.050   2.215   0.155  0.1647 -0.2978 -0.2292
11712W        W14932   9.119   1.272  12.758 -0.0096  0.1390 -0.1555
11713W        W14933   8.952   1.845  11.053  0.0454 -0.1053  0.5506
11714W        W14934   6.040   1.528  17.246  0.2764  0.0081 -0.1510
11715W        W14935  14.247   9.771  16.759 -0.3924  0.2213  0.3977
11716W        W14936   3.406  14.257  10.854 -0.1882 -0.0282 -0.1200
11717W        W14937   3.965   8.453  15.225 -0.0537  0.1129 -0.1582
11718W        W14938   3.806  17.701   8.633  0.0593  0.0534 -0.1871
11719W        W14939   7.365   1.377  14.217  0.0331 -0.1325  0.0168
11720W        W14940   0.974   4.887   1.918  0.0235 -0.2270 -0.0379
11721W        W14941   2.944   2.831   8.297 -0.0493  0.4444 -0.0228
11722W        W14942   3.905   4.434  15.471  0.1940  0.1448  0.1572
11723W        W14943   7.898  16.014  17.272  0.3594  0.2232  0.0179
11724W        W14944  16.260  13.376   8.362  0.1141  0.2397  0.0118
11725W        W14945  10.325   3.691   8.415 -0.2365 -0.0888  0.1055
11726W        W14946   5.416   1.218   7.646 -0.1100  0.0761 -0.1082
11727W        W14947   8.448  15.122  14.185  0.1814 -0.2487  0.3405
11728W        W14948   4.835   3.436  12.304 -0.0369 -0.1999  0.1093
11729W        W14949   4.731  14.676  11.315  0.4855 -0.0609  0.0527
11730W        W14950   5.924   3.147   0.636  0.1745  0.1853 -0.1539
11731W        W14951   3.452   4.885   2.187 -0.2883 -0.1218 -0.1847
11732W        W14952   7.232  16.673   0.636  0.0606 -0.0344 -0.0788
11733W        W14953   0.949   6.772  16.048  0.0467  0.0403 -0.1825
11734W        W14954   3.449   4.116   1.558 -0.1865 -0.2532 -0.1423
11735W        W14955   3.382   1.715   1.385 -0.4070  0.2793 -0.2089
11736W        W14956   0.624   3.609  16.549 -0.2690  0.2172 -0.1647
11737W        W14957  14.782  15.423  11.121 -0.0762  0.1272 -0.3465
11738W        W14958   2.347  18.075  14.850 -0.1628  0.1500  0.0439
11739W        W14959  13.310   2.965  15.153  0.0234  0.3985  0.2870
11740W        W14960  17.640  18.223   1.717 -0.0866  0.1355  0.1750
11741W        W14961   6.045  11.231   0.432  0.0312 -0.0013  0.0494
11742W        W14962   9.513   1.320   2.538  0.5228 -0.1089  0.0878
11743W        W14963   4.159  17.184  15.816 -0.0140 -0.0541  0.2477
11744W        W14964   1.726  16.809  10.573 -0.1242  0.1246 -0.2593
11745W        W14965   9.730  17.148  14.135  0.0170  0.0608  0.2042
11746W        W14966   1.171  13.438   2.327  0.1474  0.0670  0.0595
11747W        W14967  11.979   4.038  17.062 -0.1773 -0.1147 -0.0256
11748W        W14968   0.977  14.664  12.671  0.0538  0.1358  0.1479
11749W        W14969   5.172   1.901  16.186 -0.2622 -0.1179  0.0491
11750W        W14970   1.882   4.320   8.037 -0.3046  0.0829 -0.0124
11751W        W14971   2.762   7.435  14.605 -0.0933 -0.3103  0.0845
11752W        W14972   3.367  16.803   6.308 -0.3360  0.3342 -0.0944
11753W        W14973   3.560  18.115  10.486 -0.1031  0.1525 -0.1642
11754W        W14974   1.390   2.820   0.178 -0.1228  0.0900  0.1423
11755W        W14975   7.248  15.102   4.710 -0.5006  0.2271  0.0228
11756W        W14976  12.533   3.556  11.779 -0.1598 -0.2793  0.1960
11757W        W14977   4.935   4.533  14.315 -0.1670 -0.2100 -0.0548
11758W        W14978   5.051   2.165   1.688  0.0652  0.0036  0.1945
11759W        W14979   6.049   4.083  16.827 -0.0962 -0.1086  0.2832
11760W        W14980  17.657   0.101  18.075 -0.1863  0.0852 -0.0678
11761W        W14981   6.228   4.892  14.387  0.0115  0.1888  0.1759
11762W        W14982   2.830  18.227  14.636 -0.5037  0.0468 -0.3684
11763W        W14983  17.580   7.337   1.134 -0.0630 -0.0888  0.2296
11764W        W14984  10.783  12.821   6.797  0.1834  0.3329  0.0707
11765W        W14985   3.154   1.837   3.612  0.3674 -0.0733 -0.1658
11766W        W14986   8.337  13.736  12.037 -0.2215  0.2571  0.0508
11767W        W14987   4.917   2.190  12.706 -0.3195 -0.0322  0.0638
11768W        W14988   9.261   1.938   3.362 -0.0344  0.0031  0.1988
11769W        W14989  11.118   7.458   2.332  0.1851 -0.3001  0.0777
11770W        W14990   1.648   1.833  11.730  0.1124 -0.0009  0.0419
11771W        W14991   2.290   3.472   0.740  0.0664  0.1651 -0.1242
11772W        W14992   7.865  13.340  12.699  0.1125 -0.1369 -0.0298
11773W        W14993  16.564   4.021  16.011 -0.0841 -0.4152  0.0102
11774W        W14994   1.047  15.946  15.263  0.0176 -0.0225  0.0952
11775W        W14995   5.352   6.170  10.618 -0.0897 -0.0395 -0.1203
11776W        W14996   6.623   0.776   3.098  0.0939 -0.0892  0.0112
11777W        W14997  13.400   0.388  17.195  0.4239 -0.1476 -0.2141
11778W        W14998   1.807  16.738  15.877  0.2033 -0.1678 -0.1681
11779W        W14999  16.649   7.544   3.773 -0.1301 -0.1377 -0.0500
11780W        W15000   4.744   8.072   3.721  0.0395 -0.0299 -0.1389
11781W        W15001  14.740   1.213  17.814  0.1029  0.0394 -0.1532
11782W        W15002   3.114   9.990  14.126  0.0558  0.4083  0.2431
11783W        W15003   5.938   3.516   4.555 -0.3408 -0.2421 -0.2281
11784W        W15004   5.355  15.121  16.272  0.0861  0.0303  0.0361
11785W        W15005   1.143   4.790   1.388  0.3731 -0.0354  0.3496
11786W        W15006   7.571   6.255  17.977  0.1504 -0.0013 -0.0903
11787W        W15007   7.778  13.609   2.726  0.0438 -0.0325 -0.1568
11788W        W15008   8.807   6.817   3.562  0.3190  0.0464 -0.0883
11789W        W15009   8.668   5.380  14.477 -0.3275 -0.0812  0.1522
11790W        W15010  16.499  15.549  12.180 -0.1693  0.2424 -0.2707
11791W        W15011  15.560   3.160  15.077 -0.0608  0.0388  0.0764
11792W        W15012  18.203   7.479  16.576 -0.0173  0.1407  0.0403
11793W        W15013   6.124  17.849  15.739  0.1175 -0.1119  0.2388
11794W        W15014   3.055   6.354  13.109  0.2136 -0.1153  0.1204
11795W        W15015   4.134   4.260   3.783  0.0258  0.1607  0.1593
11796W        W15016   4.181   1.823  16.381 -0.0067 -0.1801  0.1851
11797W        W15017   6.289   3.164   7.260  0.1132  0.2457  0.0592
11798W        W15018   6.206   6.087  16.726  0.2661 -0.3705 -0.0233
11799W        W15019   4.881   4.817   1.521 -0.0507  0.0491 -0.2137
11800W        W15020   3.179   2.237   2.308 -0.1289 -0.1165  0.0474
11801W        W15021   0.661   7.440  14.870  0.1118  0.1549 -0.0237
11802W        W15022   9.706   2.198  16.006  0.0718  0.0800  0.0566
11803W        W15023   1.148  12.327  17.786  0.1081  0.2723  0.0399
11804W        W15024   5.968   1.167   2.437  0.1261 -0.1060  0.2876
11805W        W15025   1.059  15.609  17.734 -0.2068  0.0833 -0.0590
11806W        W15026   9.927  16.834  13.682 -0.0801  0.0807  0.0191
11807W        W15027  17.412  14.629  15.217 -0.0247 -0.1042  0.3539
11808W        W15028   3.871   0.938  12.251  0.1560  0.3274  0.1350
11809W        W15029   2.027  16.636  12.499 -0.3263  0.3522  0.1618
11810W        W15030  17.987   5.434   2.041  0.0157  0.1160 -0.1545
11811W        W15031   4.485  14.020  18.164  0.3349 -0.0977 -0.0630
11812W        W15032   3.405   4.288  12.891 -0.0618 -0.2072 -0.0608
11813W        W15033   0.736   2.868  14.591 -0.0562 -0.0470 -0.0473
11814W        W15034   5.167  15.824  13.880 -0.2450 -0.2474  0.0921
11815W        W15035   3.475   1.712  14.443 -0.0957  0.1759  0.1000
11816W        W15036   5.835  17.647  18.020 -0.1673  0.0311  0.1555
11817W        W15037  11.988   9.057   1.248  0.1828  0.0662 -0.0105
11818W        W15038   4.455   1.963   0.168  0.0314  0.0140 -0.0766
11819W        W15039   2.380   7.383   3.693 -0.0705  0.0626  0.0928
11820W        W15040   9.664  16.936   1.724 -0.0473  0.1560  0.0352
11821W        W15041   3.531   0.922   2.287 -0.0758 -0.0877  0.2009
11822W        W15042  10.723   6.452  16.449 -0.1101  0.0260 -0.2267
11823W        W15043   3.650  15.657  16.375  0.1087 -0.0955  0.0730
11824W        W15044   4.024   0.118  11.950  0.0197  0.4531 -0.0183
11825W        W15045   9.274   3.936  12.433  0.3569 -0.1058  0.0840
11826W        W15046   6.022   2.830  16.366 -0.1626 -0.2791 -0.2641
11827W        W15047  18.052   8.196   1.722 -0.0464  0.3036 -0.0879
11828W        W15048  11.352  13.315  15.310  0.2135  0.1410  0.1659
11829W        W15049   4.471  17.474  13.621 -0.2883 -0.0661 -0.1791
11830W        W15050  11.479   8.626  16.359 -0.0807 -0.2400  0.3748
11831W        W15051   6.806  15.036   0.186  0.2129 -0.0280 -0.0574
11832W        W15052   2.495   4.902   0.675  0.0360  0.1256  0.1838
11833W        W15053  18.057   3.499  17.189 -0.0271 -0.0310  0.1891
11834W        W15054   8.858   1.666   1.260  0.0903 -0.2736 -0.0356
11835W        W15055   5.269  17.770  17.916  0.0282  0.2214  0.0229
11836W        W15056   4.569  15.674  11.005 -0.0810 -0.1466  0.1080
11837W        W15057  10.601  15.214  16.747 -0.1134 -0.0052 -0.1569
11838W        W15058   5.626   6.422   5.728 -0.1496 -0.3262  0.1558
11839W        W15059   5.813   7.599  17.646  0.0242 -0.1952 -0.0146
11840W        W15060   4.146   3.968  15.953 -0.0934  0.0702 -0.3521
11841W        W15061  10.554   0.636  16.496 -0.1498 -0.0309  0.2003
11842W        W15062   5.994  10.979   1.700 -0.1460  0.1677  0.4519
11843W        W15063  13.382   5.064   4.974  0.2414 -0.1631 -0.0679
11844W        W15064   5.646  11.912  17.719 -0.0091  0.0924  0.1449
11845W        W15065   7.947  14.713  16.517 -0.0797 -0.0077 -0.2156
11846W        W15066   4.688  15.257  17.396 -0.0476  0.3073 -0.0427
11847W        W15067   3.430  13.830   0.573  0.1090 -0.0693  0.1797
11848W        W15068   0.058   4.739   1.023  0.2296  0.1316  0.3611
11849W        W15069   2.513   2.441   1.892  0.0575 -0.0269 -0.1592
11850W        W15070  17.303   8.847   3.104 -0.1394 -0.1310  0.0111
11851W        W15071   7.097   8.055   0.435  0.1959 -0.2556 -0.0236
11852W        W15072   1.233   1.633  13.209 -0.2054  0.1390  0.1131
11853W        W15073   3.305  11.633  15.458  0.0071 -0.4517  0.1105
11854W        W15074   4.332   3.868  16.482 -0.0896  0.0723  0.1941
11855W        W15075   1.517   4.571  14.605  0.3882  0.4035 -0.0667
11856W        W15076  16.762   7.073  14.066 -0.2694  0.0524 -0.2863
11857W        W15077   5.596   9.790  13.454  0.2006 -0.2540 -0.1146
11858W        W15078   3.282  14.703  13.284 -0.0637 -0.2647  0.2264
11859W        W15079   3.905   2.409   9.820 -0.1327  0.3441  0.4061
11860W        W15080   0.754   2.007  15.512  0.2842  0.0843 -0.0450
11861W        W15081   1.474  16.287   3.417 -0.0139 -0.1008 -0.0697
11862W        W15082   1.899   5.551   3.095 -0.2064  0.0804 -0.2844
11863W        W15083   6.036   2.991   9.412  0.0455 -0.3791 -0.1705
11864W        W15084  12.242   1.075   3.874 -0.0280 -0.0742 -0.0518
11865W        W15085   2.520   5.698   3.269  0.0893 -0.2012 -0.0505
11866W        W15086  18.067   3.168   3.913 -0.1979 -0.1135 -0.3544
11867W        W15087  10.529   0.534   3.921 -0.0691 -0.0250 -0.0412
11868W        W15088   6.104   4.620   6.008 -0.3123 -0.1889 -0.1932
11869W        W15089  11.643   6.686   4.285  0.3027  0.0716  0.4089
11870W        W15090  17.482   5.942   5.631 -0.0365  0.2043  0.3582
11871W        W15091  13.191   2.382   1.919 -0.1298  0.2191 -0.4543
11872W        W15092  11.794  12.125   8.716  0.1323 -0.3748 -0.3138
11873W        W15093   0.905   6.563   1.658 -0.0168 -0.0441  0.0089
11874W        W15094   3.462   7.522   6.683  0.0016  0.0622  0.0534
11875W        W15095   2.119   1.336   6.508 -0.0524 -0.0274 -0.0031
11876W        W15096   7.428   5.965   2.073  0.2074  0.0285  0.1050
11877W        W15097   5.246  13.954   2.775 -0.0375 -0.2054  0.1243
11878W        W15098  11.319   0.493   6.482  0.2732  0.4643  0.3655
11879W        W15099   0.901   7.705  15.746  0.1414  0.1436 -0.3840
11880W        W15100   6.855   6.668   8.927  0.1100  0.0467  0.2194
11881W        W15101  10.932   9.820  17.128 -0.1418  0.0416  0.0400
11882W        W15102  18.231   0.491  10.039  0.2055 -0.3188  0.1343
11883W        W15103  11.584   4.421  17.552  0.2192 -0.1875  0.0063
11884W        W15104  10.197   6.013   1.463 -0.0834  0.2589  0.1885
11885W        W15105   3.955   2.409   8.782 -0.0050 -0.3424  0.1312
11886W        W15106   4.339   1.007  16.800  0.0481  0.2990  0.1134
11887W        W15107   8.773   0.677   3.238  0.0450  0.0573  0.1875
11888W        W15108   3.580   8.414   0.527  0.0649 -0.3673 -0.1788
11889W        W15109   4.284   2.617   8.317 -0.1295 -0.3741  0.3466
11890W        W15110   3.234   7.842   2.052  0.1080  0.3650  0.0337
11891W        W15111   4.332  15.013   9.382 -0.0492  0.1415  0.0198
11892W        W15112   2.017   7.170   1.372 -0.1536 -0.2467 -0.0931
11893W        W15113  17.032   3.331  17.798 -0.0694  0.1257 -0.1401
11894W        W15114   6.605   2.513  17.716 -0.0422  0.1307 -0.2350
11895W        W15115  14.764   5.879   2.347 -0.0811 -0.0156  0.0719
11896W        W15116   5.637   2.664   1.808 -0.1655  0.0712 -0.2674
11897W        W15117   4.336   7.069   1.150 -0.0762 -0.0771  0.1311
11898W        W15118   0.888   1.079  15.985 -0.2292  0.0336 -0.0191
11899W        W15119   3.963   2.795   0.184 -0.0141 -0.1012  0.3242
11900W        W15120  10.187   5.386  18.223 -0.2086  0.0421  0.0805
11901W        W15121   7.356   2.641  14.510 -0.0726  0.1701  0.0154
11902W        W15122   7.062   7.015  16.189 -0.0057  0.0143  0.0773
11903W        W15123   5.877   8.893   0.323 -0.1091  0.2433 -0.1098
11904W        W15124   4.782  17.693   0.444 -0.1180 -0.1053  0.0527
11905W        W15125  18.033   5.193   0.968  0.3102  0.0988 -0.3731
11906W        W15126   7.414  12.066   5.940  0.0823 -0.0082 -0.2283
11907W        W15127  12.458   4.854   1.087  0.1069  0.0582  0.0713
11908W        W15128   5.134   7.615  17.093 -0.1252  0.0592  0.0214
11909W        W15129  10.040   7.320   4.003  0.2031 -0.0749 -0.2607
11910W        W15130   7.132   9.740  16.654 -0.2671 -0.0362 -0.0808
11911W        W15131   2.349   2.836   1.167  0.0439  0.1881 -0.0517
11912W        W15132  10.617   0.879   6.102 -0.1880  0.2103  0.0115
11913W        W15133   4.556   5.858   2.954 -0.2836  0.0918  0.1171
11914W        W15134   1.078   3.605  15.425 -0.0273  0.0225  0.0778
11915W        W15135   9.454   2.118   4.825  0.1814  0.1464 -0.1580
11916W        W15136  10.639   3.536  15.054  0.0345 -0.1328 -0.6222
11917W        W15137   5.669   2.737   0.627 -0.1678  0.3186  0.3960
11918W        W15138  12.017   0.017   9.272  0.0949 -0.0891  0.0037
11919W        W15139   8.086   6.767   2.858 -0.2696  0.0831 -0.1247
11920W        W15140  16.190   2.124   3.152  0.3132 -0.3335 -0.0919
11921W        W15141  16.690   4.184   2.584 -0.1350  0.2139  0.0558
11922W        W15142   3.702  16.865  15.655  0.1427  0.2634  0.0420
11923W        W15143  10.838   5.113   3.928 -0.2592  0.1309 -0.1381
11924W        W15144  16.831   2.177   4.590  0.2133  0.0612  0.1453
11925W        W15145   4.406   4.386   7.696 -0.3048 -0.2879  0.0873
11926W        W15146   9.160  12.759   3.434  0.3160 -0.2081 -0.4168
11927W        W15147   2.031   4.450   6.081 -0.0631 -0.0467 -0.3205
11928W        W15148   6.914   7.890   4.432 -0.0125 -0.1372 -0.2004
11929W        W15149   7.126  18.094   2.266 -0.0719  0.1038 -0.1546
11930W        W15150   6.475   5.243  17.573  0.0567  0.3033  0.2105
11931W        W15151   2.722   4.377   1.185  0.2330 -0.1337  0.2479
11932W        W15152   3.497   3.912   0.147  0.1266  0.0259  0.0326
11933W        W15153   0.660  12.540  16.234  0.2808 -0.0228  0.1055
11934W        W15154   5.314  11.804   3.008 -0.0180 -0.1631 -0.0626
11935W        W15155  10.702   8.100   0.708  0.1844  0.0344 -0.0261
11936W        W15156  16.490   6.150   3.584  0.1032 -0.1126  0.2764
11937W        W15157   7.034   7.978   0.936  0.1930 -0.0523 -0.0127
11938W        W15158   1.707   8.624  13.356 -0.1291  0.0984 -0.1612
11939W        W15159   1.073   5.557  17.608 -0.1927  0.2662  0.0653
11940W        W15160  10.078   0.924   1.960 -0.0057  0.0902 -0.1744
11941W        W15161   6.714   1.859   4.429  0.0441 -0.4723  0.0981
11942W        W15162   2.369   7.463  16.803  0.0966  0.0177  0.1982
11943W        W15163   6.750  12.546  13.056 -0.3021 -0.4277  0.0825
11944W        W15164   9.535   5.543  16.799 -0.0119 -0.0343 -0.4399
11945W        W15165   1.140   5.554   4.876 -0.1176  0.1351  0.1611
11946W        W15166   3.905  17.188   1.982 -0.2008  0.3277 -0.2003
11947W        W15167  11.598   2.359   3.525 -0.3447  0.1421 -0.0616
11948W        W15168  11.839   4.397   9.953  0.0543 -0.0618  0.1024
11949W        W15169   8.510   5.277   3.781 -0.1407  0.3853 -0.1394
11950W        W15170  17.679   6.321   0.068 -0.0250 -0.0091  0.0405
11951W        W15171   8.286  17.979  17.888 -0.1775  0.0439 -0.0496
11952W        W15172   0.151  13.810   7.615  0.1496 -0.2094 -0.1776
11953W        W15173   7.829   6.987   5.606  0.1992 -0.0428  0.3120
11954W        W15174   5.485  16.567   2.177  0.2565  0.1628  0.1844
11955W        W15175   3.650   0.403   1.374 -0.2025 -0.3318 -0.2702
11956W        W15176  16.761  12.079  14.463 -0.0910  0.0782  0.0420
11957W        W15177   4.148   4.645  13.902  0.0525 -0.4337 -0.1588
11958W        W15178  18.110  17.975   6.470  0.1037 -0.0112  0.3544
11959W        W15179   7.139   8.949   0.542 -0.0750  0.1294 -0.0700
11960W        W15180   7.899   4.179   2.840 -0.2469  0.1040 -0.5247
11961W        W15181   6.922   1.141   1.102  0.2578  0.2240  0.2825
11962W        W15182  10.850  16.284   1.276  0.3681  0.1912  0.0021
11963W        W15183   2.042   6.544   5.095 -0.0628 -0.1471 -0.0370
11964W        W15184   3.242   9.603   3.579 -0.0080 -0.0499 -0.2004
11965W        W15185   2.330   4.126  17.601  0.2790 -0.2617 -0.1762
11966W        W15186   5.501   5.819  17.260  0.2087 -0.0731  0.1557
11967W        W15187  14.907   4.053   4.414  0.5098 -0.1384  0.2467
11968W        W15188   3.855   5.992   7.069 -0.0843 -0.0776  0.0654
11969W        W15189   5.566   5.156   1.678 -0.0890  0.0371 -0.3152
11970W        W15190   7.457   5.393   5.825  0.0850  0.1248  0.2894
11971W        W15191  14.862   4.173  14.999  0.0448  0.4840 -0.0260
11972W        W15192   6.012   5.366  10.535  0.1172 -0.1837 -0.1892
11973W        W15193   3.373   0.572  16.876  0.1221 -0.0004  0.2164
11974W        W15194   6.071  14.571   0.549  0.1479 -0.1576  0.0929
11975W        W15195  13.858   8.316   5.810 -0.0578 -0.0198  0.3103
11976W        W15196   6.166  11.853   1.105 -0.4942  0.0397 -0.1111
11977W        W15197   5.095   4.162   4.905 -0.0685 -0.0454 -0.1676
11978W        W15198   4.242   5.695   5.406 -0.0268  0.1306  0.1545
11979W        W15199   7.850  16.032  15.663  0.2423  0.3851 -0.0231
11980W        W15200   7.200   0.015   2.835  0.1409  0.2056  0.2051
11981W        W15201   6.782   2.339   2.354  0.2987 -0.0812 -0.1524
11982W        W15202   0.198   3.891   2.013  0.1146 -0.1944 -0.1318
11983W        W15203  12.176   9.192  11.212 -0.1472 -0.0110  0.0491
11984W        W15204   6.059  14.153  13.192  0.2682 -0.0275  0.1282
11985W        W15205   5.445   5.536   4.865  0.2172 -0.1359 -0.0460
11986W        W15206   9.401   5.441  17.800 -0.0371  0.2353 -0.1819
11987W        W15207   3.487   0.126   5.191  0.1966  0.0682  0.1123
11988W        W15208   7.797   4.306  17.102 -0.4010 -0.1957 -0.0331
11989W        W15209   1.645  13.836   1.704 -0.1201  0.5538 -0.2467
11990W        W15210   4.313   4.128   7.165  0.0589  0.4204  0.3088
11991W        W15211   3.333  11.958   4.053 -0.0733  0.2286  0.0029
11992W        W15212   3.382  14.670   2.882  0.3324 -0.1291  0.3391
11993W        W15213  11.963   5.007   6.923  0.1385 -0.3799 -0.0227
11994W        W15214  13.056   9.059   3.006  0.0053 -0.3413 -0.3005
11995W        W15215   4.537  17.907   7.260  0.0161  0.1923  0.2088
11996W        W15216   1.980   7.734  17.705  0.2648 -0.1169  0.0958
11997W        W15217  10.544   4.723   7.685 -0.1599 -0.5326 -0.0491
11998W        W15218   7.203   1.805   6.338  0.1394  0.0473 -0.3790
11999W        W15219   5.229   1.532  10.711  0.1209  0.2929 -0.2760
12000W        W15220   3.371   3.119   4.896  0.0365 -0.4448 -0.3517
12001W        W15221   6.222  10.161   4.184 -0.1088  0.0488  0.0018
12002W        W15222   1.737   6.300   3.562  0.0038 -0.1614  0.3624
12003W        W15223   0.941   8.471  17.882 -0.0014  0.2219  0.0323
12004W        W15224   5.996   4.891  10.330 -0.4374  0.0785 -0.1290
12005W        W15225   5.334   9.169  16.523  0.0764 -0.3991  0.1778
12006W        W15226   4.840   4.828  15.622 -0.3738 -0.3621  0.1605
12007W        W15227   3.368   9.078   4.100 -0.0394  0.2030  0.1955
12008W        W15228   6.997   5.089  17.943  0.4207  0.1309 -0.0703
12009W        W15229   2.827   1.174  17.811  0.3954  0.2648 -0.0347
12010W        W15230  10.168   1.593   3.597  0.2661  0.2524  0.0210
12011W        W15231  10.059   9.586  15.042 -0.1597 -0.1808 -0.1546
12012W        W15232   2.771   3.694   0.597  0.2516  0.1468  0.0422
12013W        W15233   6.251   0.634   6.554 -0.3740  0.1214  0.0907
12014W        W15234   2.773   7.972   1.797  0.1852 -0.1236 -0.3785
12015W        W15235   7.409   4.053   1.462 -0.0478 -0.2601  0.0573
12016W        W15236   6.178  15.783  13.504 -0.0125  0.0656  0.2093
12017W        W15237   3.094   2.542   3.699 -0.1751  0.1957 -0.1302
12018W        W15238  10.654   2.477   2.317 -0.1180  0.1182  0.3450
12019W        W15239   7.677   0.940  10.939  0.4456  0.2310  0.2285
12020W        W15240   7.229   7.838   4.813 -0.3024 -0.0011 -0.4444
12021W        W15241   3.047  14.612  14.214 -0.2984  0.0280  0.1521
12022W        W15242   7.620   9.514  17.297 -0.4415  0.1762 -0.0345
12023W        W15243   6.096   7.718   3.844 -0.0152  0.3369 -0.0136
12024W        W15244   7.128   7.936   3.020  0.0594 -0.2093 -0.1447
12025W        W15245   7.876   8.170   0.162  0.1492  0.2733  0.0054
12026W        W15246   6.342   2.266   4.908 -0.0911  0.0371 -0.0492
12027W        W15247   8.516  12.895   4.579  0.0199 -0.1503  0.1809
12028W        W15248   7.927   9.256  17.853 -0.0683 -0.3429 -0.3936
12029W        W15249   8.788   6.610   1.606 -0.1699 -0.0667 -0.1691
12030W        W15250   6.558   6.313   3.352  0.1803 -0.2670 -0.0386
12031W        W15251   7.403   6.203   1.621  0.2774  0.0449 -0.0684
12032W        W15252   3.391   3.314  17.682 -0.0504  0.2644 -0.0319
12033W        W15253   5.734   7.156   4.626  0.0914 -0.2966 -0.0935
12034W        W15254  17.806  17.680   3.851 -0.4178  0.2536 -0.0330
12035W        W15255   0.902   3.443   3.866 -0.1172  0.1199  0.1837
12036W        W15256   9.785   4.459   1.222 -0.0228  0.2153 -0.3316
12037W        W15257   2.958   6.800   3.109 -0.0152  0.0262 -0.0980
12038W        W15258   7.170  15.709   6.878 -0.3116 -0.0285  0.1508
12039W        W15259   7.054   8.855   7.350 -0.0035  0.0481 -0.0336
12040W        W15260  14.470  14.489   1.679 -0.0981  0.0929  0.2916
12041W        W15261  16.307  17.800  16.340  0.1829  0.1454  0.0249
12042W        W15262   3.462  16.714   0.565 -0.2620  0.1425  0.1637
12043W        W15263  17.475   7.486   2.823  0.3812  0.3207 -0.2146
12044W        W15264   1.276  11.161   0.330 -0.2985  0.1397  0.1583
12045W        W15265  13.977   2.182   2.663 -0.0980 -0.3584  0.0044
12046W        W15266  16.908   1.013  16.583  0.5158  0.0625 -0.3180
12047W        W15267  16.866   5.153   3.909 -0.1055 -0.0808 -0.2205
12048W        W15268   2.215   4.297  18.105  0.0644 -0.1957  0.0167
12049W        W15269  13.128   8.792   1.901  0.4708 -0.2545  0.0968
12050W        W15270   3.817   0.919   1.400  0.1903  0.0748 -0.1947
12051W        W15271   3.549  13.182   5.706 -0.0293 -0.2251  0.3871
12052W        W15272   5.103  11.324   7.116 -0.2752 -0.0946  0.0251
12053W        W15273   0.951   1.953   1.065 -0.0673  0.2130  0.2110
12054W        W15274   2.776  10.895   2.941  0.0393  0.1289  0.1746
12055W        W15275   8.207   8.768  11.037  0.0821  0.1115 -0.2468
12056W        W15276  15.472   1.094  18.157  0.3826 -0.1510 -0.2951
12057W        W15277   6.821   5.290   6.522 -0.3323  0.2401 -0.0042
12058W        W15278   6.763  10.083   1.966 -0.0795 -0.0406  0.1486
12059W        W15279   3.923   2.980  17.408  0.1722 -0.0067 -0.0738
12060W        W15280   5.034   9.376   5.897  0.3614 -0.1007  0.3226
12061W        W15281  17.814  15.661   3.108  0.1130  0.3622 -0.1555
12062W        W15282  11.206   4.128   4.145  0.0654  0.0930 -0.1492
12063W        W15283   4.679   9.080   6.804  0.3129 -0.0362 -0.0807
12064W        W15284   7.850   2.645   3.894  0.0342 -0.0332 -0.1704
12065W        W15285  15.509   5.545  17.300  0.2090 -0.2308  0.4242
12066W        W15286  10.445   3.985   9.494  0.3088 -0.0718  0.0513
12067W        W15287   5.488   0.042  13.430 -0.1850  0.3230  0.1916
12068W        W15288   0.809  14.658  16.797  0.0013  0.1933 -0.2019
12069W        W15289   2.992   7.216  15.946  0.0321 -0.0780  0.1092
12070W        W15290   6.599   7.237   1.326  0.0311 -0.1048  0.3281
12071W        W15291   0.168   6.018   6.558  0.1937  0.1773  0.3151
12072W        W15292   2.740   4.605  17.091 -0.3584  0.1784  0.3320
12073W        W15293   4.220   1.026   2.229 -0.3590  0.1985  0.0988
12074W        W15294   7.798   8.538   3.668  0.2501  0.1669  0.1476
12075W        W15295   7.974  16.170  16.314 -0.1837  0.3570 -0.2075
12076W        W15296   2.615   5.790   9.905  0.1863 -0.3772 -0.1545
12077W        W15297   4.479   8.579   2.372  0.0073  0.0178 -0.2014
12078W        W15298   9.638  17.363   0.859  0.1606 -0.1421  0.0164
12079W        W15299   3.972   8.877   2.730  0.0507 -0.0423 -0.1220
12080W        W15300   9.911   9.209   8.155 -0.2693  0.1959  0.0899
12081W        W15301  10.477   3.809  17.472 -0.0673  0.0316  0.2235
12082W        W15302   7.570  15.637   2.139 -0.1534 -0.0335 -0.1972
12083W        W15303   5.821   3.934   1.235 -0.0075  0.0637  0.3364
12084W        W15304  11.654   4.358   7.726 -0.3169 -0.2512  0.2825
12085W        W15305   1.279  15.802   3.602  0.2334  0.0337  0.0010
12086W        W15306   3.572   1.516   1.898 -0.0815 -0.0929 -0.3442
12087W        W15307   3.462   5.570   1.158  0.0364  0.1924  0.2440
12088W        W15308   4.667   6.842   3.575  0.0490  0.2921 -0.5040
12089W        W15309   3.036   3.476   8.872 -0.3518  0.0374  0.1205
12090W        W15310   5.219   1.206   3.485 -0.0003 -0.3106 -0.1709
12091W        W15311   7.536   8.982   6.050  0.1453 -0.0519  0.0635
12092W        W15312   1.674   7.408   5.085  0.1198 -0.1869  0.1439
12093W        W15313   3.111   4.265   5.350 -0.0587 -0.1328  0.0139
12094W        W15314   2.008   3.813   1.235 -0.1381 -0.1422  0.0075
12095W        W15315  15.264   5.645   0.323 -0.0140 -0.1430 -0.2898
12096W        W15316   5.974  17.670   7.717  0.0903  0.1687  0.0452
12097W        W15317   6.296  10.656  17.371 -0.1673 -0.0111  0.0780
12098W        W15318   3.219  13.204   2.066  0.1324  0.4844  0.2459
12099W        W15319  10.029   4.568   7.432  0.4477 -0.0596  0.0748
12100W        W15320   6.250   9.513   5.131 -0.1276  0.1302 -0.0850
12101W        W15321   7.146  17.538   0.880 -0.0138 -0.0802 -0.2951
12102W        W15322   0.594  12.138   4.039 -0.1168  0.0398 -0.0520
12103W        W15323   9.971   6.196  17.916 -0.0869 -0.0543  0.2850
12104W        W15324   4.494   4.948   6.536  0.0308 -0.0593 -0.1422
12105W        W15325   9.322   5.930   4.747  0.0564  0.0603  0.2251
12106W        W15326  16.720   9.156   2.693 -0.0106 -0.4380 -0.0451
12107W        W15327   8.238   7.858   5.563 -0.3751  0.2882  0.1212
12108W        W15328   5.035  13.475   1.379 -0.2564  0.1258 -0.2341
12109W        W15329  11.582  10.624   8.240  0.0811  0.1357 -0.2087
12110W        W15330   5.732   6.211   8.117 -0.1234  0.1615  0.0982
12111W        W15331   7.289   1.595   5.687  0.0227  0.2178 -0.1798
12112W        W15332   7.628   6.415   2.230  0.0948  0.3264 -0.0591
12113W        W15333   0.025   6.869   7.594  0.1363 -0.1571  0.0484
12114W        W15334  11.944   2.566   7.482 -0.0056 -0.0268  0.2407
12115W        W15335   2.432   9.626   2.711 -0.3817 -0.1973  0.3797
12116W        W15336   4.405   5.356   3.756 -0.1581  0.2726  0.1776
12117W        W15337   1.188   9.791  14.934 -0.5386  0.0983  0.1153
12118W        W15338   4.905   7.367   4.932 -0.1443 -0.1232  0.0131
12119W        W15339   4.010  10.570   4.869 -0.1740  0.2129 -0.0160
12120W        W15340   3.678   4.703   2.608  0.1108 -0.1933  0.0913
12121W        W15341   0.001   2.562   6.225  0.1082  0.1492  0.1393
12122W        W15342   4.006  12.421   4.070  0.0879 -0.0232  0.1736
12123W        W15343   5.218  10.906   4.948 -0.1786  0.1535 -0.1196
12124W        W15344   8.028  11.783   7.870  0.1766 -0.1382  0.1328
12125W        W15345  10.124   6.046   0.656 -0.2271 -0.1339  0.0060
12126W        W15346   7.928   9.160   1.977  0.0665 -0.0477  0.0911
12127W        W15347   4.943  12.237  16.517  0.0278 -0.0534 -0.1371
12128W        W15348  17.895   8.401   4.180  0.1953  0.0482 -0.0643
12129W        W15349   6.963   5.704   2.195 -0.0635 -0.3390  0.0949
12130W        W15350   5.151   4.412   4.468  0.5529  0.1007 -0.2222
12131W        W15351   3.487   6.623   7.629  0.1524  0.2068 -0.1085
12132W        W15352   5.236  10.561  15.925  0.0040  0.1294 -0.1709
12133W        W15353  10.373   6.363  15.969  0.0063 -0.1047 -0.0454
12134W        W15354   5.464  18.257   7.557  0.2197 -0.1348 -0.1297
12135W        W15355   8.657   2.868   1.877  0.1723 -0.0688  0.1364
12136W        W15356   8.126  14.376  10.008 -0.0443  0.0594  0.2267
12137W        W15357   1.894   5.568  15.726  0.0440 -0.1626  0.1822
12138W        W15358   3.867   4.133  17.604  0.1595  0.0850 -0.4116
12139W        W15359   7.780   1.921   9.379 -0.2294  0.1095 -0.0961
12140W        W15360  15.383   2.620   0.858  0.1532  0.0939  0.1066
12141W        W15361   8.233   2.235   0.328 -0.1922 -0.1052  0.2778
12142W        W15362   4.140   3.400  15.703 -0.4123 -0.0719 -0.0078
12143W        W15363  10.452   6.826   8.515 -0.0819 -0.0009  0.3365
12144W        W15364   5.671   6.065   1.618  0.1083 -0.0119  0.0139
12145W        W15365   2.415   5.965  16.594  0.1176 -0.1523 -0.0445
12146W        W15366  17.373   0.535   8.002 -0.0116  0.1331 -0.0145
12147W        W15367   6.238   9.082  15.895  0.2309  0.0664 -0.0410
12148W        W15368   7.339   4.286  13.929 -0.1302  0.2472  0.2063
12149W        W15369   2.773   0.287   1.872  0.0027  0.0845 -0.2669
12150W        W15370   2.085   8.628  12.581 -0.2136 -0.0089 -0.3105
12151W        W15371   5.523   4.638  12.264 -0.3992 -0.1173 -0.1246
12152W        W15372   7.730   0.801   0.077 -0.1473  0.3053 -0.3292
12153W        W15373  11.304   6.300   3.724 -0.3493  0.0640 -0.2055
12154W        W15374   7.493   5.722   0.241  0.0478  0.0680 -0.1300
12155W        W15375   6.710  10.880   4.786  0.1445 -0.0951  0.0135
12156W        W15376   5.185   3.033   2.841  0.1009  0.3445 -0.0267
12157W        W15377  10.350   9.980   4.197  0.2565  0.0911  0.2531
12158W        W15378   1.535   5.499   2.142  0.0334 -0.0236  0.4143
12159W        W15379   3.538   5.971  12.384 -0.0132 -0.0511 -0.0849
12160W        W15380   1.546  10.411   5.935 -0.0936 -0.0670 -0.1269
12161W        W15381   1.183   3.039   2.475 -0.0409  0.1582 -0.0588
12162W        W15382   4.620   7.041  10.050  0.1661 -0.0284 -0.1702
12163W        W15383   9.998   6.248   5.520  0.1327 -0.2649  0.1745
12164W        W15384   8.688   9.342   4.194 -0.0922 -0.2635  0.1694
12165W        W15385   6.191   8.788   6.699  0.2628 -0.1127 -0.1804
12166W        W15386  11.834   7.096   4.091  0.1279  0.0631 -0.2352
12167W        W15387   5.825   7.802   1.509 -0.0043 -0.0527  0.0531
12168W        W15388   8.518   9.074   5.893  0.0427  0.1428  0.2514
12169W        W15389   4.561   2.678  17.791  0.1390 -0.4702 -0.3045
12170W        W15390   6.592   5.431  14.317 -0.2934  0.2746 -0.0351
12171W        W15391   2.790  17.915   1.183  0.1605  0.1568 -0.2699
12172W        W15392   5.837   3.062  15.991 -0.1577 -0.2685 -0.1986
12173W        W15393  10.460   3.608   2.302  0.1479  0.0742  0.1066
12174W        W15394   6.567   7.214   4.936  0.0963  0.0998 -0.2141
12175W        W15395   8.685   9.785   5.481  0.3890 -0.0413 -0.0351
12176W        W15396   9.219  17.047   4.961 -0.2187 -0.3387  0.0427
12177W        W15397   5.134  15.539   0.457  0.1745  0.0305  0.1759
12178W        W15398   9.709  13.209   1.697 -0.3087  0.0746 -0.1477
12179W        W15399   1.929   1.407   5.404  0.0267 -0.1347 -0.3739
12180W        W15400   7.731   9.213   7.685  0.1922 -0.1619 -0.1995
12181W        W15401   8.523   7.376   0.587  0.3930  0.0298  0.0584
12182W        W15402  16.606   9.949   6.773 -0.2291 -0.2670  0.3081
12183W        W15403   8.694  10.162   1.968 -0.0164  0.1436 -0.0552
12184W        W15404   3.869  12.396   5.407  0.0584 -0.2038  0.1210
12185W        W15405   6.472   4.916  10.673  0.1056 -0.2136  0.2842
12186W        W15406   2.920   5.762  17.812 -0.1458  0.1005  0.0322
12187W        W15407   6.104   7.459   9.213  0.0774  0.0081  0.0188
12188W        W15408   0.751   4.995  14.249 -0.0900  0.3050  0.1261
12189W        W15409   4.519  14.803  15.111  0.0727  0.0471 -0.0808
12190W        W15410   5.395   4.044  17.095  0.1926 -0.0631  0.3709
12191W        W15411  11.013   5.551   8.757  0.4723 -0.0572  0.0276
12192W        W15412   3.991   8.854  18.000  0.3767 -0.0063 -0.1416
12193W        W15413  11.413   1.720   9.436  0.2087  0.1031 -0.0038
12194W        W15414   2.720   5.187   2.894  0.0466 -0.2597  0.0852
12195W        W15415   3.238   3.471   4.585 -0.3823  0.1777  0.1943
12196W        W15416   9.464   9.149   8.460 -0.0275  0.1845 -0.2568
12197W        W15417   4.284  10.247   0.969  0.0559  0.1487 -0.1241
12198W        W15418  10.169  10.724   0.899  0.3381  0.1490  0.2542
12199W        W15419  14.503   5.611   1.462 -0.3011 -0.3049  0.0315
12200W        W15420  10.023   3.711   4.483 -0.2264 -0.1107 -0.0249
12201W        W15421  16.971  11.968  15.711  0.2822  0.0403  0.0338
12202W        W15422   5.371   3.243   4.821 -0.2282 -0.0857  0.0841
12203W        W15423   4.296  11.339  16.399  0.1016  0.1888  0.0785
12204W        W15424  18.021   3.985   0.743  0.0859 -0.1098 -0.2815
12205W        W15425   0.616   3.709  15.600 -0.1003  0.0021 -0.0791
12206W        W15426   8.071   1.369   6.495 -0.2007 -0.1283  0.0033
12207W        W15427   2.434  18.014   1.528 -0.3277  0.0417 -0.0096
12208W        W15428   9.064   4.123   8.700 -0.1734 -0.0514  0.3858
12209W        W15429   1.287   9.309  17.424  0.2144  0.2971 -0.0889
12210W        W15430   5.466   2.173  17.014  0.0231  0.1011  0.1229
12211W        W15431   6.628   4.052   4.328 -0.0363  0.3246  0.0616
12212W        W15432   4.087  11.069   0.465 -0.1716  0.1054 -0.0389
12213W        W15433   1.433   6.030   2.273 -0.0479  0.1518  0.1631
12214W        W15434  16.240   6.061   2.155 -0.0938 -0.0706 -0.3209
12215W        W15435   9.997   6.267   7.738  0.2446 -0.0362  0.1237
12216W        W15436  17.190   3.373   3.793  0.0710 -0.0478  0.3655
12217W        W15437  17.955  10.341   6.592 -0.2216  0.0488  0.2580
12218W        W15438   6.178   2.312   5.476  0.1108 -0.1286 -0.1189
12219W        W15439   5.123  17.246   0.635  0.1166 -0.2363  0.2820
12220W        W15440   0.742   5.944  17.689  0.0607  0.1116  0.0773
12221W        W15441   2.134   5.365   9.066 -0.1431 -0.1295 -0.0502
12222W        W15442   6.019   4.577   2.343  0.0427  0.2097  0.2070
12223W        W15443  10.978   7.357   2.808 -0.1845 -0.2727  0.0929
12224W        W15444   0.133   4.526   2.480  0.0508  0.0559 -0.0676
12225W        W15445  15.467   3.470   5.062  0.1393  0.3748  0.5131
12226W        W15446   5.998   5.245  16.298 -0.0927 -0.0983 -0.1773
12227W        W15447   1.617  10.929  11.388 -0.0303  0.3585  0.1525
12228W        W15448  13.863   3.156   1.279  0.0140 -0.1059 -0.2895
12229W        W15449   9.059   1.831   0.422 -0.2261  0.0319  0.2243
12230W        W15450  15.007   2.600   1.158  0.1585 -0.1137  0.2316
12231W        W15451   7.069   7.123   2.280 -0.0844  0.0737  0.0412
12232W        W15452   4.742   4.268   6.999 -0.0907 -0.0491  0.1031
12233W        W15453   6.129   3.308   0.133 -0.1152  0.1418  0.0152
12234W        W15454   6.337  16.060   1.878 -0.1893 -0.2450 -0.0972
12235W        W15455   4.723   2.430   0.443  0.0226  0.2540  0.0611
12236W        W15456   3.088  12.296  17.297 -0.0607 -0.0842  0.2947
12237W        W15457   9.093   8.119   2.672  0.1615 -0.1369 -0.1044
12238W        W15458   8.580   3.018   4.873 -0.0873  0.0139 -0.1405
12239W        W15459   9.221   2.542   8.123 -0.0519  0.0961  0.0327
12240W        W15460  16.651   5.717   5.755  0.1170  0.0765  0.4012
12241W        W15461  12.152   7.862   3.405  0.0093  0.0796  0.1966
12242W        W15462   5.218  18.194   9.769  0.0466  0.0767  0.4773
12243W        W15463   8.109   7.663   3.512  0.2394 -0.1803 -0.1481
12244W        W15464   7.806  12.291   1.753  0.2434  0.1513 -0.0423
12245W        W15465   2.313   8.281   0.091 -0.2707 -0.2001 -0.0686
12246W        W15466   6.908   0.820   2.552  0.2054 -0.1143 -0.3422
12247W        W15467   8.048   8.136   0.836  0.0422 -0.1383 -0.0565
12248W        W15468   4.390   3.426   1.711 -0.0048 -0.0849  0.1479
12249W        W15469   4.427   5.442  17.135  0.0925 -0.4847 -0.4874
12250W        W15470   5.172   6.320   2.976 -0.0136 -0.0131 -0.1151
12251W        W15471   1.067   4.547  14.180  0.1059  0.1891 -0.0123
12252W        W15472   3.182   0.736   2.648  0.1639  0.0335  0.2470
12253W        W15473   2.850   7.148   4.805 -0.2629 -0.0171 -0.1251
12254W        W15474   7.525  10.214   4.016  0.3323 -0.1171  0.2359
12255W        W15475   2.549  11.013  10.314 -0.3906 -0.1172 -0.2839
12256W        W15476  13.536   3.832   3.293 -0.0146  0.1247  0.4810
12257W        W15477   6.136   4.098   8.276 -0.0498 -0.1062 -0.0868
12258W        W15478   1.396   1.060   4.847  0.0845 -0.1225  0.1192
12259W        W15479   7.769  16.520   0.612  0.1016 -0.1755 -0.0631
12260W        W15480  10.089   6.082   6.328  0.3048  0.1587  0.1399
12261W        W15481   4.654   2.750   4.533  0.2110 -0.2968 -0.0708
12262W        W15482   5.473   0.928   2.383 -0.3499  0.2064 -0.0843
12263W        W15483   6.341   2.152  17.972 -0.0775 -0.2415 -0.2158
12264W        W15484   1.005   5.240   2.862  0.0849 -0.0345  0.2984
12265W        W15485   0.822   6.973  11.855 -0.0856  0.0745  0.3141
12266W        W15486   7.977   2.839   1.704 -0.0509 -0.1055 -0.1124
12267W        W15487  10.911   1.625  17.037 -0.0450 -0.3264 -0.0999
12268W        W15488   6.684   7.667   7.442 -0.0259  0.1745 -0.0796
12269W        W15489  15.742   9.181   9.076  0.0842 -0.1299 -0.2907
12270W        W15490   6.210   5.447   8.631 -0.0139 -0.1408 -0.2185
12271W        W15491   5.828   3.698   8.240 -0.2411  0.0251 -0.0759
12272W        W15492   7.990   0.480  16.013 -0.1635 -0.1699  0.1036
12273W        W15493   0.636   7.356   8.880 -0.1529 -0.0773  0.1508
12274W        W15494   3.935   3.168   5.111  0.2828  0.0300 -0.3675
12275W        W15495  16.853   4.485   9.423  0.0545 -0.1338  0.1246
12276W        W15496  10.309   8.340  11.730 -0.1175  0.4616 -0.4448
12277W        W15497  10.535   6.384   9.940 -0.0591  0.0715 -0.0857
12278W        W15498   4.816   2.081   9.050 -0.0156 -0.0246  0.0650
12279W        W15499   9.296   2.483  13.919 -0.1875 -0.2677  0.0361
12280W        W15500   1.552   0.883   9.876  0.0375 -0.5377  0.0819
12281W        W15501   4.312   1.735  10.616  0.3022 -0.0556  0.0403
12282W        W15502  13.581   3.709   9.846  0.0898  0.0063  0.0445
12283W        W15503   0.765   7.314   6.284  0.3095 -0.1269  0.1904
12284W        W15504  11.494   3.640   3.664  0.0924 -0.1243  0.2121
12285W        W15505   1.284   6.197  11.238 -0.1105  0.0415  0.0575
12286W        W15506  11.198   7.884  11.949 -0.0277  0.2624 -0.0764
12287W        W15507   4.155   5.395   4.504 -0.2941  0.1088 -0.2402
12288W        W15508  13.048   2.539  15.422  0.1171  0.1437  0.0605
12289W        W15509  14.972   2.030   5.614  0.0706 -0.1286  0.0511
12290W        W15510   8.157  10.812   4.179  0.1981  0.1732 -0.1729
12291W        W15511   7.651   2.701   5.021 -0.0302  0.0199  0.0139
12292W        W15512   1.595   7.620  10.400  0.1732  0.0428 -0.0854
12293W        W15513   4.025   3.833   1.708 -0.3564 -0.2640  0.0306
12294W        W15514  17.869   6.397  16.296 -0.1083  0.1850  0.1798
12295W        W15515  10.387   5.063   8.483 -0.1400  0.3136 -0.1262
12296W        W15516   7.123   7.913   8.123 -0.0839 -0.0859 -0.1318
12297W        W15517   8.859   4.642   9.478 -0.0412 -0.0717  0.0334
12298W        W15518   9.178   5.895   5.736 -0.0180  0.3556  0.2989
12299W        W15519   9.575   8.521   8.805 -0.1158  0.1720  0.0846
12300W        W15520   6.918   2.367  12.243 -0.1794  0.0673 -0.0409
12301W        W15521   9.948   8.290   6.319  0.1827 -0.0762  0.2619
12302W        W15522  11.414   1.846   4.229 -0.0543 -0.1119 -0.0231
12303W        W15523   5.217   6.408   6.778  0.2976  0.1114  0.1244
12304W        W15524   9.225   4.958   5.715 -0.2013  0.2475 -0.0445
12305W        W15525   6.478   9.630  12.109  0.1092  0.0461 -0.2879
12306W        W15526   2.129   8.793   9.565 -0.0532 -0.3204  0.0055
12307W        W15527  13.707   7.644   1.864 -0.2490  0.0017  0.0924
12308W        W15528  16.309   7.214   6.895  0.1468  0.1244  0.2293
12309W        W15529   2.878   5.599  13.617 -0.1242 -0.1476  0.2762
12310W        W15530   6.686   7.174   7.628  0.3872 -0.2653  0.1157
12311W        W15531   6.164  16.434   7.977 -0.0119  0.1045 -0.1924
12312W        W15532   1.217   6.730   4.205 -0.1892 -0.0624 -0.0194
12313W        W15533  11.364  17.626   9.257 -0.0560 -0.1824  0.1931
12314W        W15534   7.075   0.292   2.461  0.2286  0.0359 -0.2460
12315W        W15535  14.013   0.645   1.913  0.0148  0.1299 -0.3215
12316W        W15536   4.556   5.781   5.898 -0.1828  0.1539 -0.2379
12317W        W15537   7.046   3.156   4.109  0.3213  0.2104 -0.0694
12318W        W15538   6.551  16.542   1.234  0.0135 -0.1523 -0.1431
12319W        W15539   2.069  13.950   2.725 -0.0259  0.2885  0.0507
12320W        W15540   6.717  10.900  17.628 -0.2752 -0.0968  0.3037
12321W        W15541  17.176   7.598   1.693  0.0282 -0.0131 -0.2002
12322W        W15542   3.237   7.312  14.401 -0.0006 -0.1429  0.1147
12323W        W15543   6.310  10.457  16.899  0.1219  0.4309  0.3275
12324W        W15544  10.647   1.624   5.970  0.0099 -0.2780  0.1441
12325W        W15545   7.078  11.310   4.763  0.3959 -0.3864 -0.0708
12326W        W15546   6.327   2.466   2.173  0.1591  0.3472  0.2637
12327W        W15547   2.159   3.647  17.590  0.2751  0.1493  0.1511
12328W        W15548   1.049   0.376   9.012  0.1126 -0.2785  0.0025
12329W        W15549   1.210   4.819   9.582 -0.1169  0.0985  0.1162
12330W        W15550   4.997  17.273   2.535  0.1973  0.3808  0.2068
12331W        W15551   2.405   5.261   7.750  0.2861  0.1051  0.1421
12332W        W15552   7.902   6.593   6.950  0.2440  0.2772  0.2001
12333W        W15553   2.395  14.183  13.560 -0.2526  0.2282  0.0485
12334W        W15554   6.648   7.949   5.792 -0.0693  0.1685 -0.2595
12335W        W15555   4.017   5.171   7.657 -0.0798 -0.4755 -0.1513
12336W        W15556   6.352   6.246   4.992  0.0348 -0.1385 -0.2576
12337W        W15557   9.663   4.614   6.040 -0.0153  0.0516 -0.3870
12338W        W15558   1.149   1.618   5.734 -0.0434  0.0458  0.1845
12339W        W15559   4.966   1.983   8.189  0.3797  0.0219 -0.0215
12340W        W15560   4.916  11.817   0.592  0.0355 -0.1160  0.0250
12341W        W15561   5.311   8.666   6.952  0.1665  0.1014 -0.1414
12342W        W15562   9.138   4.891  12.541  0.0556 -0.0816  0.0756
12343W        W15563   4.655   1.531   6.910  0.0674 -0.1030 -0.1513
12344W        W15564  12.450   1.820   4.942 -0.0179 -0.0944  0.1786
12345W        W15565   6.406   1.032  12.052 -0.2302  0.0851  0.0344
12346W        W15566   2.666  17.060   7.244 -0.1757  0.1325 -0.0140
12347W        W15567   5.224   0.455  12.260 -0.0911 -0.1917  0.1630
12348W        W15568   1.403   1.589  10.920  0.2255 -0.0187 -0.2340
12349W        W15569   8.488   6.030   0.221  0.2154 -0.0945  0.0087
12350W        W15570   5.738   5.354   3.495 -0.0401 -0.0334 -0.0258
12351W        W15571   9.629   7.467   9.679  0.0939  0.0784  0.0548
12352W        W15572   6.797   6.120  17.202 -0.0659 -0.1219  0.2957
12353W        W15573   7.261   5.825  11.952  0.1306 -0.5148 -0.0513
12354W        W15574   9.044   6.624  13.625  0.2069 -0.1896  0.4495
12355W        W15575   5.530   2.603   5.002  0.2117  0.2823 -0.0395
12356W        W15576   2.010  13.109   4.759 -0.1685 -0.0421  0.1960
12357W        W15577   3.551   7.712   4.127  0.3381 -0.0050  0.1071
12358W        W15578   2.562  14.436   4.807  0.1241 -0.1304 -0.2039
12359W        W15579   7.602   7.450  10.868 -0.1454 -0.0835  0.0708
12360W        W15580  17.982   5.247   3.021 -0.2645  0.1754 -0.0230
12361W        W15581   5.770   6.544   5.270  0.2829 -0.3070 -0.1353
12362W        W15582   1.256  16.925   2.754 -0.0318  0.0590 -0.1067
12363W        W15583   1.670   9.310  15.717  0.2576  0.3501  0.1784
12364W        W15584   2.603   7.485   5.061 -0.3040 -0.2691  0.0020
12365W        W15585   4.123   7.164  17.859 -0.0475 -0.0580 -0.0398
12366W        W15586  10.020   7.525  10.067 -0.0969 -0.3177 -0.1300
12367W        W15587   5.672  13.897   5.179  0.2258 -0.0428 -0.0148
12368W        W15588   3.935  16.505   5.133  0.0956  0.1369  0.0029
12369W        W15589   9.624   4.058   0.866  0.0462  0.0084  0.1477
12370W        W15590  15.400   8.941  15.387  0.2508  0.2250 -0.1168
12371W        W15591   6.604  16.620   6.216 -0.0083  0.0017  0.1000
12372W        W15592   7.050   4.749   7.009  0.1055 -0.1494 -0.0883
12373W        W15593   7.195  17.441  15.567  0.0423 -0.1329  0.0219
12374W        W15594   7.412  16.776  15.402 -0.1102 -0.1175 -0.0213
12375W        W15595   8.754   7.112   5.100  0.1957 -0.1944 -0.0269
12376W        W15596  10.230   6.973   1.116 -0.1013  0.2352 -0.0114
12377W        W15597   9.369   9.304   7.093 -0.0923 -0.0034  0.1544
12378W        W15598   5.615  10.430   8.506 -0.1368 -0.2163 -0.0084
12379W        W15599  12.589  11.671  12.529  0.5682  0.1726 -0.3840
12380W        W15600  12.492  14.837   9.306 -0.2771  0.0242 -0.0095
12381W        W15601  11.708   4.382   0.144 -0.2070  0.1606  0.0332
12382W        W15602   9.685   6.012   6.111 -0.0774  0.0208 -0.4534
12383W        W15603   8.293   8.601   4.307 -0.4047 -0.1793 -0.2763
12384W        W15604   4.116  14.715   8.564 -0.2369 -0.1923  0.0631
12385W        W15605  10.417   1.946  14.839 -0.0403 -0.2287  0.0306
12386W        W15606  18.192   4.604  10.189  0.2161 -0.2343 -0.3057
12387W        W15607   4.502   2.131   8.233 -0.0398 -0.0583 -0.2060
12388W        W15608  16.795  12.695   7.371 -0.0137  0.1108  0.2361
12389W        W15609   2.225   2.560  11.550  0.0393 -0.1817  0.1286
12390W        W15610   0.537   5.968   8.537  0.0314 -0.4978  0.1812
12391W        W15611  18.176   5.344  14.389 -0.0231  0.0776  0.0205
12392W        W15612  10.931   4.457   0.806  0.0081 -0.2132 -0.0996
12393W        W15613   3.566   7.335   8.403  0.2883  0.2222 -0.3276
12394W        W15614   1.648  15.831   1.030  0.0702  0.0965  0.1063
12395W        W15615   8.994   5.703   1.361  0.0593  0.0993  0.2374
12396W        W15616  11.342   6.068   2.221 -0.1749  0.2608 -0.1049
12397W        W15617   5.873   9.670   5.431  0.0724 -0.1127  0.1082
12398W        W15618   1.956   4.670   7.588  0.1103 -0.1926  0.3054
12399W        W15619   7.096   6.437   0.437  0.1979 -0.1208  0.1506
12400W        W15620  15.277   2.485   8.264  0.2234 -0.0140 -0.0534
12401W        W15621   7.342  11.421   2.907  0.0975 -0.0501  0.4143
12402W        W15622   2.891   3.056   3.057 -0.1684 -0.0193  0.1318
12403W        W15623   6.574  15.894   7.502 -0.1086 -0.2203  0.1863
12404W        W15624   2.257  13.261  13.672  0.4983  0.1560 -0.2412
12405W        W15625   5.426  17.000   2.522 -0.1925  0.1235 -0.0156
12406W        W15626   3.058   3.199   2.389  0.0088  0.0896 -0.1367
12407W        W15627  10.305   3.417   6.730 -0.0502  0.4334 -0.0635
12408W        W15628   0.329   4.099   1.502 -0.3623  0.0023  0.2158
12409W        W15629   4.755  15.951   9.002  0.0516 -0.3579  0.3486
12410W        W15630   7.999  14.103   2.989 -0.1065  0.0887  0.1112
12411W        W15631   4.173   0.731   5.258  0.0746  0.2075  0.4191
12412W        W15632   8.123   1.436   4.375  0.0607  0.0555 -0.5010
12413W        W15633   7.355   1.567   1.576 -0.1306 -0.3395  0.1543
12414W        W15634   9.491   2.806   4.146 -0.0110  0.2062 -0.4498
12415W        W15635  10.471   5.796   3.393 -0.0724 -0.1776  0.0754
12416W        W15636   5.538   8.814   7.786 -0.0365 -0.2686 -0.0063
12417W        W15637  11.010   3.713  16.854  0.0874 -0.2774  0.1044
12418W        W15638   0.726  17.902  11.351 -0.2035  0.1902  0.2241
12419W        W15639   2.630   8.945   6.518 -0.0661  0.1537 -0.0326
12420W        W15640   3.480  11.690   4.469 -0.0883 -0.0062 -0.0118
12421W        W15641  13.165   5.688   7.863 -0.2373 -0.1778 -0.0339
12422W        W15642  13.741  12.344  11.733 -0.1018 -0.2641  0.0474
12423W        W15643   1.362  15.164  18.104 -0.0114  0.1802 -0.2020
12424W        W15644   4.783   6.165   1.635 -0.1384  0.0812 -0.1888
12425W        W15645   5.385   6.192  18.117  0.2521 -0.0800 -0.0370
12426W        W15646  11.156  17.067   6.583 -0.0623  0.2759  0.0009
12427W        W15647   8.999   8.318   9.700 -0.1492 -0.0175  0.1694
12428W        W15648  10.184  17.794  12.547 -0.1739 -0.0638 -0.0527
12429W        W15649   2.991   0.704   4.478 -0.0297  0.2742  0.1661
12430W        W15650   9.400   6.516   6.281 -0.0127 -0.4580 -0.3611
12431W        W15651   1.408  11.169  10.027 -0.3055  0.2917  0.2405
12432W        W15652   3.193   9.592   1.675 -0.1520 -0.0452 -0.0272
12433W        W15653  15.374   5.535   6.077 -0.0835  0.1639  0.2237
12434W        W15654   7.802   6.919   2.416 -0.1277 -0.0381  0.0154
12435W        W15655   7.739   3.693   1.773  0.0281  0.1187  0.2251
12436W        W15656  16.637   2.403  12.333 -0.0129  0.0947  0.2752
12437W        W15657  13.769   6.951   8.820  0.1087 -0.0423 -0.1940
12438W        W15658   3.135   6.056   2.508 -0.0869  0.1234 -0.1910
12439W        W15659   5.544   6.838  12.666  0.1660  0.0524 -0.0172
12440W        W15660  11.763  15.900   7.739  0.2842  0.1350 -0.0614
12441W        W15661  18.193  12.070   3.179 -0.1795 -0.0609 -0.1917
12442W        W15662   0.620  17.616   7.324  0.3467  0.2718  0.0777
12443W        W15663  10.016   5.837   9.065  0.0483 -0.0255  0.0308
12444W        W15664  10.490  13.086   7.348  0.1268  0.0515 -0.0362
12445W        W15665  15.761   5.075  12.682 -0.0273  0.3619 -0.3572
12446W        W15666   4.340   7.283  12.010 -0.3531 -0.1854 -0.4759
12447W        W15667   0.061   7.787  12.946 -0.0647 -0.0223  0.0212
12448W        W15668   0.561   2.032   7.675 -0.0304 -0.2788 -0.2084
12449W        W15669  11.358  10.275   7.152  0.1719  0.1137 -0.1541
12450W        W15670  17.811  17.131   3.059  0.1679 -0.1183 -0.3856
12451W        W15671   1.869   6.951   4.794  0.0444  0.1041  0.1369
12452W        W15672   2.234  15.078   6.006 -0.2297  0.1040  0.0176
12453W        W15673   7.559  18.239   0.092  0.0839 -0.1509 -0.2607
12454W        W15674  11.908  17.225  18.228 -0.0163  0.2062 -0.0414
12455W        W15675   2.796  12.819   4.848  0.0680 -0.1078  0.2967
12456W        W15676  16.738  16.599   5.524 -0.1098 -0.3225 -0.0033
12457W        W15677   5.881   6.936  16.589  0.0548 -0.2739  0.0251
12458W        W15678  17.866   7.423   5.908  0.3727 -0.1088 -0.1787
12459W        W15679  17.564   2.322  17.683  0.1229  0.0047  0.1497
12460W        W15680   3.938   0.948   9.589  0.1760 -0.0202 -0.1560
12461W        W15681   1.219   8.712   1.140 -0.2332 -0.0569 -0.0249
12462W        W15682  12.631   1.332   3.635  0.1177 -0.0949 -0.1333
12463W        W15683   1.184   0.412  16.159  0.2221 -0.2298  0.0377
12464W        W15684  16.927   6.567   5.732 -0.2560 -0.0112  0.1081
12465W        W15685   4.188   3.878   4.487  0.1016  0.0710 -0.2064
12466W        W15686  11.629   4.585  12.071 -0.1256 -0.1767 -0.0752
12467W        W15687   2.291   1.177   8.915  0.3186  0.1613 -0.1605
12468W        W15688   6.031   3.725   1.964  0.0507 -0.0317 -0.0189
12469W        W15689   6.421   1.142   1.843  0.1214 -0.1049 -0.1161
12470W        W15690  14.899  10.227  18.187 -0.0799  0.0664 -0.0758
12471W        W15691   8.491  17.531   1.456  0.0612  0.1535 -0.1093
12472W        W15692   5.534  13.935  14.353 -0.1083  0.2572 -0.2071
12473W        W15693   4.353  13.491  13.636  0.0773  0.0891  0.1209
12474W        W15694   9.446   6.961   7.749 -0.0251  0.0172  0.1226
12475W        W15695   7.870   0.272   4.310  0.0569  0.1579 -0.0472
12476W        W15696  13.442  11.068   6.403 -0.1888 -0.2066 -0.1966
12477W        W15697  11.022   5.720   5.196 -0.1937 -0.5142  0.1382
12478W        W15698   9.656   2.351   5.999  0.0759  0.0263 -0.2276
12479W        W15699   0.523   8.874   9.615  0.0552  0.1570  0.1323
12480W        W15700  15.111  11.180  12.363 -0.0473  0.0739 -0.0285
12481W        W15701   4.948  17.437   6.457  0.0353 -0.0246 -0.2761
12482W        W15702   8.678   7.043   3.978  0.1086  0.1896 -0.6250
12483W        W15703  10.337  11.169   9.128 -0.1575 -0.0431 -0.1281
12484W        W15704   1.000  18.178   7.319 -0.1358  0.1257  0.4430
12485W        W15705   5.739   5.959   5.611  0.2998  0.2383 -0.0649
12486W        W15706   2.121   2.048   3.060 -0.1324  0.2404  0.0188
12487W        W15707  11.372   7.770  10.054 -0.1141  0.2775 -0.0422
12488W        W15708   9.506   1.345  12.362 -0.0153 -0.2419  0.0653
12489W        W15709  13.838   8.784   5.919  0.1586 -0.0110  0.0017
12490W        W15710   2.068   2.217   4.972 -0.0347  0.3939  0.0089
12491W        W15711   4.308   9.399   9.034  0.2159  0.0241  0.1180
12492W        W15712  11.241   5.966   8.902 -0.1228  0.0634 -0.0371
12493W        W15713   7.154   1.462   4.649 -0.1393 -0.2313  0.0786
12494W        W15714  10.230   5.931   8.520 -0.2057  0.5050 -0.1438
12495W        W15715   2.322   7.187  10.621  0.1161  0.2774  0.0544
12496W        W15716   6.018   1.384   7.052  0.0646 -0.0273  0.4654
12497W        W15717   9.917   6.284  11.158  0.1218 -0.0542  0.1457
12498W        W15718  14.982  10.052   5.470  0.1997 -0.1626 -0.2764
12499W        W15719   5.064   5.224   6.995 -0.0148  0.1799  0.1069
12500W        W15720   7.459   8.794   5.556 -0.2470 -0.1018 -0.2600
12501W        W15721   7.510   5.747   6.681 -0.0868  0.3379 -0.0489
12502W        W15722   4.201   7.741   8.933 -0.0416  0.0492 -0.0663
12503W        W15723   1.456   7.035   6.868  0.0674 -0.1217 -0.0398
12504W        W15724   3.636   9.939   4.318 -0.2936  0.0612 -0.1903
12505W        W15725   5.326   6.523  13.062  0.2452  0.1601 -0.0877
12506W        W15726   6.378   0.885  11.123  0.0907 -0.0896  0.0363
12507W        W15727  11.246   3.746   6.498  0.2932  0.0424 -0.2080
12508W        W15728  11.208   4.221   8.153 -0.0260 -0.1798  0.0066
12509W        W15729   0.105  17.807  16.446  0.2430 -0.1127 -0.3566
12510W        W15730   6.141  15.454   4.644  0.1996  0.1526 -0.2224
12511W        W15731   8.915   2.031   8.126 -0.2060 -0.2403  0.1511
12512W        W15732   0.363   8.069   3.794 -0.1813  0.1642  0.1767
12513W        W15733   4.655   0.937   1.064  0.3954 -0.0822 -0.0387
12514W        W15734   7.341   9.744  18.261  0.1703 -0.3516  0.2969
12515W        W15735   5.298   6.755   5.425  0.0839 -0.0839 -0.3203
12516W        W15736   6.063   3.055   4.344 -0.2838  0.2150 -0.1077
12517W        W15737   0.668   4.644   5.027 -0.0852 -0.2727 -0.3272
12518W        W15738   7.624   8.928   0.403  0.0320 -0.3075  0.3167
12519W        W15739   8.762   4.471  18.080 -0.0950  0.0570  0.0949
12520W        W15740   8.856   6.962  11.025  0.0279 -0.0114 -0.2296
12521W        W15741  12.293   2.999   3.279  0.0271 -0.0792  0.0275
12522W        W15742   3.531   9.554  12.328  0.0002 -0.1844  0.0154
12523W        W15743  11.881   2.290   3.157 -0.4162  0.3822  0.1845
12524W        W15744   6.192   1.521   2.725  0.0069  0.0823 -0.2008
12525W        W15745   4.836   8.116   8.784 -0.2481  0.1285 -0.3862
12526W        W15746   1.613   3.657   0.855 -0.0946  0.0681 -0.0975
12527W        W15747   5.353   6.544   8.013  0.0536  0.1897  0.3166
12528W        W15748   9.455   5.431  10.939 -0.1870 -0.0759  0.1537
12529W        W15749   6.723   8.043   3.337  0.3274 -0.1420 -0.0522
12530W        W15750   5.645   0.808   7.874  0.0062 -0.2474 -0.0420
12531W        W15751   6.815  16.105   7.061 -0.0692 -0.1662  0.1807
12532W        W15752   6.611   6.919   0.551 -0.0717 -0.1223 -0.2792
12533W        W15753   4.799   1.898  12.298  0.3899  0.2801 -0.0161
12534W        W15754   3.621  11.439  17.377 -0.2120 -0.0421 -0.0455
12535W        W15755   3.614   0.183   1.857 -0.1315  0.2237  0.0169
12536W        W15756   6.995  13.196  17.565  0.2787  0.0127  0.0189
12537W        W15757  11.162   4.922   1.499  0.1668  0.1704  0.0520
12538W        W15758   7.626   4.337  11.462 -0.2544  0.0227 -0.1591
12539W        W15759   1.762   6.572   5.973 -0.1535  0.0072 -0.3139
12540W        W15760   2.827   5.880  10.373  0.0156 -0.4174 -0.2360
12541W        W15761   8.484   1.027  10.703 -0.2133 -0.2165 -0.0659
12542W        W15762   9.394   4.710   4.952  0.1142  0.1934  0.1010
12543W        W15763   8.258   0.695   5.268 -0.1355  0.0726 -0.1000
12544W        W15764   7.715  18.148   7.012  0.2201 -0.1284 -0.1454
12545W        W15765  11.967   3.188   0.913 -0.0867  0.2196  0.2437
12546W        W15766  18.019   3.277  16.738 -0.0704  0.4673 -0.0062
12547W        W15767   0.920   6.548   3.214 -0.1507 -0.3022  0.1815
12548W        W15768  15.596   4.366   5.623 -0.2199  0.3514 -0.2704
12549W        W15769   3.313  10.234  10.961 -0.3924 -0.2709  0.1329
12550W        W15770   6.334   4.377   2.722 -0.1623 -0.1596  0.0748
12551W        W15771  10.538   8.519  12.151 -0.0906  0.6055 -0.1494
12552W        W15772   6.265  13.660   7.587  0.0383  0.1067  0.1411
12553W        W15773   9.746   6.968   0.948  0.0495  0.0778  0.1575
12554W        W15774   4.685   0.564   3.933  0.1988 -0.0718  0.0383
12555W        W15775   2.541   6.557   7.347 -0.3018 -0.1316  0.1571
12556W        W15776   2.758   7.803   1.341 -0.0438 -0.1300 -0.0697
12557W        W15777  12.371   4.931  17.171  0.1054  0.0990 -0.1475
12558W        W15778   6.766   9.194  12.052  0.2274  0.1585 -0.0032
12559W        W15779   8.168   7.145   3.173  0.0088 -0.1556 -0.0791
12560W        W15780   1.156  17.281   4.718  0.3928 -0.1718 -0.1608
12561W        W15781   1.659   1.049   8.530  0.1941  0.1486 -0.1163
12562W        W15782   4.809   6.764   9.543  0.0770 -0.0449 -0.1184
12563W        W15783   0.139   1.968   7.371  0.1889 -0.1544 -0.1858
12564W        W15784   5.765  11.222   8.327  0.1237 -0.0758  0.0966
12565W        W15785   3.081   1.443   3.353 -0.1113  0.0212  0.0326
12566W        W15786   0.276   3.745   7.158  0.0067 -0.1210  0.1580
12567W        W15787  18.224   2.751   2.418  0.1739  0.1486  0.1389
12568W        W15788   3.063   6.855   2.603  0.0817  0.3244 -0.2523
12569W        W15789  15.641   3.936   1.774 -0.1367 -0.1049 -0.1285
12570W        W15790   5.575   8.598   6.180 -0.2993  0.1528  0.1138
12571W        W15791   2.418  17.915   6.445  0.1585  0.1345  0.2581
12572W        W15792   4.326   3.409   9.051  0.2077  0.0318  0.2019
12573W        W15793  10.299   9.063  13.616 -0.1501  0.0637  0.0959
12574W        W15794  11.299   7.103   4.216 -0.1422  0.1001  0.0655
12575W        W15795   3.814   8.516   0.958  0.1704 -0.0633  0.1344
12576W        W15796   3.902   6.166   3.783 -0.2872  0.0311 -0.1613
12577W        W15797   6.119   2.885   1.951  0.0844  0.0795 -0.3527
12578W        W15798   8.654   5.605   9.130 -0.2569  0.2334 -0.2525
12579W        W15799  17.627   5.617   9.025  0.1744 -0.0135  0.1454
12580W        W15800   2.779   0.328   1.343 -0.2002  0.3251 -0.0117
12581W        W15801   0.368   5.435   4.662 -0.3945  0.1635 -0.0685
12582W        W15802   7.456  16.545   5.102  0.0803 -0.3437  0.2210
12583W        W15803   4.336   8.361   4.047 -0.2080  0.0567  0.1486
12584W        W15804   7.375  15.635   4.729  0.0301  0.0088 -0.0915
12585W        W15805   3.155   1.600   4.682  0.1185  0.1425  0.1519
12586W        W15806   4.872  11.813  15.562 -0.1817  0.2212 -0.1149
12587W        W15807   9.409  10.032  12.444 -0.3006  0.1924  0.2865
12588W        W15808   5.200   8.397   9.109 -0.0065  0.1441 -0.0728
12589W        W15809  10.101   7.522   3.561  0.3066  0.0265  0.0891
12590W        W15810   2.731   1.419   5.983 -0.1126 -0.2429 -0.0826
12591W        W15811   7.434   3.183   8.136  0.2573 -0.0985 -0.1627
12592W        W15812   5.295   5.495  18.151  0.1467 -0.0953 -0.3494
12593W        W15813  17.269   1.082   7.768 -0.0441  0.0601  0.0938
12594W        W15814   3.350   1.022  17.709 -0.0806  0.1153  0.0053
12595W        W15815   0.783   1.015  10.348  0.2889 -0.1092 -0.2189
12596W        W15816   5.898  12.751   5.907 -0.0687 -0.1403 -0.1198
12597W        W15817   7.326  14.990  11.155  0.1070 -0.3193 -0.0980
12598W        W15818   5.473   5.301   8.972 -0.2773  0.2416  0.1139
12599W        W15819   4.445   6.289   4.461  0.1946  0.4763 -0.0820
12600W        W15820  15.825   1.067   9.911  0.1650 -0.1882 -0.2010
12601W        W15821   3.019  10.488   7.797  0.0843  0.1009  0.3316
12602W        W15822   4.733   5.767  14.484  0.0624  0.2633 -0.1299
12603W        W15823  13.367   2.029   3.464  0.0052 -0.0431 -0.0205
12604W        W15824   0.329  17.782   6.452  0.0851 -0.3246 -0.2759
12605W        W15825   9.293  11.789   0.401  0.0238  0.0113 -0.1327
12606W        W15826   7.152   3.622   6.218 -0.2737  0.1741 -0.2005
12607W        W15827   6.148   8.136   6.890  0.0343 -0.2550  0.1787
12608W        W15828   5.996   7.314   8.712 -0.1589 -0.0131  0.0873
12609W        W15829   5.927  16.005   9.493  0.2183  0.0714 -0.0118
12610W        W15830   2.151   1.659   4.926  0.1312 -0.1598  0.0979
12611W        W15831   2.278   0.924   8.323 -0.3145 -0.1113  0.1089
12612W        W15832   1.650   0.949  13.613  0.0244 -0.1916  0.4367
12613W        W15833  10.986   4.870   6.320 -0.1562  0.0713 -0.0925
12614W        W15834   5.000   1.381   6.040 -0.0090  0.0070 -0.2555
12615W        W15835   3.921   5.706   3.576  0.0302 -0.1451  0.2258
12616W        W15836   3.543   2.953   7.423 -0.2247 -0.2179 -0.0383
12617W        W15837   1.514   3.085   5.094 -0.0314  0.0974 -0.0443
12618W        W15838   5.699  13.376   6.155 -0.1511  0.1164 -0.1776
12619W        W15839  14.769  11.325   3.012  0.0920  0.0142  0.0894
12620W        W15840  13.621   2.970   6.641  0.3024  0.0040  0.0004
12621W        W15841   7.108   6.038   1.218  0.2511  0.0709 -0.0302
12622W        W15842  12.927   1.168  18.232  0.1120  0.1157  0.4170
12623W        W15843   3.853   5.739   4.112  0.0168  0.1585 -0.1954
12624W        W15844   2.650   3.296  12.788  0.1527 -0.3199 -0.0002
12625W        W15845   4.535   1.757   9.385  0.0729 -0.1878  0.0656
12626W        W15846   9.083   8.831   2.819 -0.1680  0.2198  0.0149
12627W        W15847   7.296   8.241   8.962  0.1382 -0.3876  0.1053
12628W        W15848   9.229   1.276   0.304 -0.1326 -0.0539 -0.1395
12629W        W15849   3.758   4.370  18.087  0.2690  0.2258  0.2667
12630W        W15850  13.705   4.926   9.671 -0.1841  0.0728  0.3337
12631W        W15851   8.722   3.745   8.603 -0.2184 -0.0772 -0.0261
12632W        W15852   3.284   5.433   5.677  0.3189 -0.0949 -0.1025
12633W        W15853   2.905   7.995  13.095  0.2536  0.0283 -0.0007
12634W        W15854   6.235   5.716   0.004  0.4145 -0.3408 -0.0512
12635W        W15855   3.155  17.139   8.393  0.2242  0.1086  0.3007
12636W        W15856   8.163  18.076   7.860  0.0121 -0.1301  0.2067
12637W        W15857  16.482   5.373   3.778  0.0921  0.1971  0.1237
12638W        W15858  13.582   8.257   3.649  0.0389  0.0305  0.4649
12639W        W15859   7.647   8.654   1.549 -0.0134 -0.4541  0.3739
12640W        W15860   4.147   3.642   6.511  0.1305  0.1969 -0.1275
12641W        W15861   1.334   4.751   5.684 -0.0112  0.0668  0.4736
12642W        W15862  16.964   0.317   5.831 -0.0891 -0.1468  0.0095
12643W        W15863  16.023  12.832  10.437 -0.1448 -0.0246 -0.2455
12644W        W15864  15.907   2.593  17.622 -0.2359 -0.2676 -0.2079
12645W        W15865   6.421  15.557   7.106  0.1492 -0.2788 -0.3977
12646W        W15866   6.639  11.809  16.938  0.0781 -0.0707  0.1260
12647W        W15867   9.606   2.695  11.569 -0.0048  0.1561  0.0779
12648W        W15868   5.097   3.273   4.360  0.1815  0.2433  0.1214
12649W        W15869  12.481  10.408  14.409  0.0454 -0.0761 -0.0228
12650W        W15870   5.137   0.744   0.147 -0.0508  0.0095  0.0116
12651W        W15871   4.122   7.702   8.434 -0.0496  0.1440 -0.0766
12652W        W15872   4.376   7.751   6.440  0.3080 -0.2251 -0.1725
12653W        W15873   9.203   7.566   9.394  0.0868 -0.5241  0.1171
12654W        W15874   8.387  10.911  12.568  0.1225  0.0302 -0.2978
12655W        W15875  10.038   4.709  13.986 -0.0134 -0.1650  0.2146
12656W        W15876   8.698   2.273   7.616 -0.2090  0.1101 -0.1079
12657W        W15877   6.088   5.395  11.164 -0.2830 -0.3774  0.0425
12658W        W15878   1.342   4.771   4.583  0.1133  0.1203 -0.0333
12659W        W15879  11.273   3.165   7.149 -0.2301 -0.2438  0.2929
12660W        W15880   5.858   6.424  12.220  0.3089 -0.1179 -0.0686
12661W        W15881   7.654   1.451   9.340 -0.2705  0.1664 -0.0304
12662W        W15882   0.926  18.210   2.068  0.0160  0.2045  0.0785
12663W        W15883   2.410  17.987   9.142  0.0674  0.0393  0.1240
12664W        W15884   6.070   7.677   5.593  0.0490  0.1793 -0.0853
12665W        W15885   7.409   9.867  11.063 -0.1042 -0.0296  0.0615
12666W        W15886   3.389  16.020  13.323 -0.0962  0.2914 -0.0689
12667W        W15887  14.939   1.015  11.933  0.1328  0.0236  0.0684
12668W        W15888   5.479   0.999   8.662 -0.1308  0.0969  0.0446
12669W        W15889   7.016  10.178   3.832  0.1277  0.1856  0.1331
12670W        W15890   1.694   1.329  13.266 -0.0989  0.2818  0.0910
12671W        W15891   5.334  16.971   9.967  0.0653 -0.3101 -0.1297
12672W        W15892  11.875   4.970  10.918  0.0884  0.1291 -0.2231
12673W        W15893   4.688   5.872  10.650  0.1519 -0.1252  0.2334
12674W        W15894   5.583   5.922  11.589 -0.1057 -0.0318  0.2558
12675W        W15895  13.373   0.676   9.994  0.2986  0.1806 -0.0125
12676W        W15896   6.099   3.946   7.797  0.2060 -0.1487  0.2110
12677W        W15897   2.507   3.830   8.149 -0.2093 -0.1247 -0.1211
12678W        W15898   8.351   0.648  12.523 -0.0944  0.0824 -0.0873
12679W        W15899   5.750   3.535  10.431 -0.0401 -0.1038 -0.3090
12680W        W15900   4.999   8.904   5.695  0.0121  0.1603  0.0976
12681W        W15901   7.965   3.218  14.410 -0.0872  0.0844 -0.2508
12682W        W15902   6.437  18.002   9.471 -0.0671 -0.2398 -0.0814
12683W        W15903   6.050  17.887   5.766  0.0142 -0.1083  0.0288
12684W        W15904   3.884  17.662  14.207  0.3275 -0.0965 -0.0973
12685W        W15905  18.162   5.645   0.459 -0.0212 -0.2879 -0.1319
12686W        W15906   3.297   4.942  14.924 -0.0615  0.2969  0.3762
12687W        W15907  10.289   4.728  10.929 -0.0964 -0.1307 -0.2042
12688W        W15908   5.856   4.109   6.051 -0.2262  0.1236 -0.2422
12689W        W15909   4.310  16.469   5.578  0.1209 -0.1524  0.0945
12690W        W15910   9.883   5.675  11.102  0.3143 -0.0056  0.0353
12691W        W15911   0.876   8.295  17.188 -0.2754 -0.0853 -0.0341
12692W        W15912   2.928   2.714   6.039 -0.2482 -0.0213 -0.1999
12693W        W15913  10.919  11.313  15.018  0.1142  0.0875 -0.1017
12694W        W15914  17.226   8.847  17.451 -0.2315 -0.1148 -0.1199
12695W        W15915   4.508   2.672   2.067 -0.0879  0.2805  0.1434
12696W        W15916   9.868   3.537  12.967 -0.1431 -0.1224 -0.3281
12697W        W15917  15.365   9.384  14.483 -0.2588 -0.1026  0.5385
12698W        W15918   7.088  16.675   6.399 -0.3204 -0.1518 -0.3012
12699W        W15919  12.428   3.863  14.851 -0.0107  0.2371  0.4283
12700W        W15920   5.484   1.217   8.219  0.0663  0.4348 -0.1593
12701W        W15921  13.107   3.495  12.543 -0.0924 -0.0500 -0.0386
12702W        W15922   6.227   7.475  14.137 -0.3729  0.2514  0.1626
12703W        W15923   6.493   2.257   2.872  0.4591  0.1355 -0.3109
12704W        W15924  10.331   6.112  14.401  0.0119 -0.0264  0.1835
12705W        W15925   6.248   2.176  15.795 -0.2034  0.0421  0.0046
12706W        W15926  16.363   1.696   5.175  0.0068  0.2341 -0.0592
12707W        W15927   0.970  12.734   8.166  0.1039  0.2833  0.0990
12708W        W15928   6.031   5.347   1.824  0.1215  0.0118  0.2923
12709W        W15929  17.187   9.140   7.766 -0.0568  0.3698 -0.1790
12710W        W15930   6.887  17.002   7.760 -0.1613 -0.0504 -0.3111
12711W        W15931   8.023   2.156  12.868 -0.2433 -0.0536  0.2220
12712W        W15932  16.075   6.905  11.182  0.0052  0.0511  0.2015
12713W        W15933   7.086   0.908   3.111  0.0349 -0.0378 -0.0801
12714W        W15934   4.968   2.965   7.692  0.2253 -0.0948 -0.2398
12715W        W15935   8.096   6.723   9.316 -0.3570 -0.2615 -0.0878
12716W        W15936   6.504   2.724   5.102  0.0649  0.0668 -0.0584
12717W        W15937   3.130   2.295   6.198  0.0899  0.0418  0.0148
12718W        W15938   2.207   7.554   6.412 -0.1869 -0.2228 -0.0473
12719W        W15939   8.171   1.881   3.912 -0.2969 -0.1437 -0.1625
12720W        W15940   1.106   5.117  10.891  0.0592  0.1092  0.0522
12721W        W15941   6.901   8.438   9.325 -0.0024  0.0329 -0.0328
12722W        W15942   3.723   6.225   3.191 -0.1828 -0.1558 -0.1291
12723W        W15943   8.923   2.229   5.092 -0.0220 -0.3808  0.2079
12724W        W15944   9.245   4.887  16.108 -0.1934 -0.1230  0.0105
12725W        W15945   8.922  13.498   6.207 -0.0369  0.0654  0.0721
12726W        W15946  14.331   2.744  16.860  0.2530 -0.2383 -0.1366
12727W        W15947   4.341   2.769   6.088 -0.1124 -0.0263 -0.2305
12728W        W15948   3.019  16.271   6.048 -0.0833 -0.2500 -0.0060
12729W        W15949   2.108   3.565   2.612 -0.0981 -0.1440  0.1167
12730W        W15950   4.153   3.963   9.107 -0.1552 -0.2001 -0.3630
12731W        W15951   4.389   6.170  11.191 -0.0946 -0.2628 -0.2083
12732W        W15952   3.100   9.705  10.930  0.2017  0.2812  0.2357
12733W        W15953  12.380   5.552   7.672 -0.1523  0.2798 -0.0633
12734W        W15954  11.389   7.657  14.918 -0.3655 -0.2673  0.1079
12735W        W15955   9.756   9.532   9.019  0.2658  0.3456 -0.1277
12736W        W15956  10.098   6.927   6.222 -0.0623  0.2559 -0.3721
12737W        W15957   6.251  17.229  11.102  0.1372 -0.2928 -0.1377
12738W        W15958  17.497  16.781   7.470 -0.0107 -0.2015  0.0718
12739W        W15959  11.990   7.966   5.497 -0.2762  0.0975 -0.2262
12740W        W15960   6.144  11.195  15.562 -0.0603  0.1911  0.2164
12741W        W15961   8.278   3.037  16.303 -0.0722  0.3956 -0.3237
12742W        W15962  11.539   5.421  13.677  0.0855 -0.1726 -0.1025
12743W        W15963  14.993   6.299   8.496 -0.4948 -0.1921 -0.1486
12744W        W15964  10.579   3.375  14.030 -0.1832 -0.1669  0.2398
12745W        W15965   3.781   5.765  16.004  0.0081  0.2896 -0.1718
12746W        W15966  10.645   6.626  10.583  0.1391 -0.0172  0.1063
12747W        W15967  11.434   1.784  12.584 -0.0239 -0.1662  0.4669
12748W        W15968  11.173   9.033   9.773 -0.2036  0.0335 -0.2486
12749W        W15969  17.794   8.896   6.469 -0.0527  0.1055  0.0887
12750W        W15970   9.278   6.616   0.085  0.4127 -0.0899  0.2277
12751W        W15971  12.931   3.529   8.405  0.0534 -0.1178  0.2138
12752W        W15972   0.469  16.413   3.900 -0.1632 -0.1858  0.0220
12753W        W15973   9.752  11.139  11.413 -0.2970 -0.2632  0.1330
12754W        W15974   7.943   4.512   6.850  0.0170 -0.1714  0.0924
12755W        W15975   8.293   5.146  11.682  0.0014 -0.4168  0.1099
12756W        W15976  10.725   3.396   8.465  0.0354 -0.0052  0.2030
12757W        W15977   9.761   4.335   5.115 -0.3549  0.0568  0.0666
12758W        W15978   6.252  11.382   1.670 -0.0251  0.1363  0.0158
12759W        W15979   8.075   1.065   7.498  0.0615 -0.3148 -0.1043
12760W        W15980   5.740  16.512   2.631 -0.1144  0.0659  0.1603
12761W        W15981   1.550   7.850  10.931  0.0976  0.2627  0.0314
12762W        W15982   6.575   7.369   8.981 -0.1715 -0.2294 -0.3570
12763W        W15983  17.539   1.307   6.000  0.2923 -0.1423 -0.1706
12764W        W15984  12.963   9.587  16.703  0.1021 -0.3071  0.0655
12765W        W15985   9.493   6.412   4.889 -0.2393  0.1019  0.1659
12766W        W15986   7.321  16.743   3.232  0.0942 -0.2329 -0.3637
12767W        W15987   9.008   3.786   9.101  0.0669  0.0471  0.2230
12768W        W15988   9.114   7.398   9.935  0.0793 -0.2577 -0.0732
12769W        W15989  13.165   7.619  10.852  0.0555 -0.0495 -0.0524
12770W        W15990   5.073  12.493  12.456 -0.0719 -0.0053  0.4208
12771W        W15991   7.602   1.546   6.883  0.1173 -0.1058 -0.2319
12772W        W15992   7.705   1.927   5.533  0.0619  0.4725 -0.0861
12773W        W15993   1.035  17.702   5.291 -0.0656  0.0537 -0.2418
12774W        W15994  15.700  15.812  10.938  0.4393  0.2396 -0.0202
12775W        W15995   1.832   8.995  12.260  0.1019  0.2600 -0.1383
12776W        W15996  11.363   5.742  15.209 -0.0005 -0.0536 -0.5573
12777W        W15997   0.487   5.679  13.504  0.2115 -0.1545  0.1007
12778W        W15998  14.179   0.085   9.389  0.3536  0.1592 -0.1394
12779W        W15999   4.007  11.702   4.728  0.0388  0.2076  0.2325
12780W        W16000   5.564   4.102  13.377 -0.1760 -0.0239  0.0733
12781W        W16001   4.591   6.273  16.234 -0.1936 -0.0846 -0.0196
12782W        W16002  16.618   5.425  11.065  0.0506  0.1406  0.0744
12783W        W16003   3.011   8.986  10.859  0.2206  0.2869 -0.0286
12784W        W16004  10.091   0.688   6.884 -0.7747 -0.2710  0.1206
12785W        W16005   5.277   2.168  14.445 -0.0234 -0.0292 -0.2781
12786W        W16006   0.169  10.203   8.507  0.0419  0.1220  0.0520
12787W        W16007   5.771  12.829  14.120 -0.0100 -0.0798  0.2967
12788W        W16008   8.305   6.784   8.104  0.0046 -0.1843 -0.0367
12789W        W16009   2.074  17.118  12.325  0.0862 -0.1058 -0.0390
12790W        W16010   8.972   7.124  11.571 -0.4065  0.0482  0.2467
12791W        W16011   6.141  18.155   5.307  0.4012 -0.0686 -0.1458
12792W        W16012  17.879   2.938  10.279 -0.0530  0.2014  0.0988
12793W        W16013  17.096   9.000   8.804 -0.0504  0.1132 -0.0474
12794W        W16014   5.659   6.337   2.084 -0.2368 -0.0608 -0.2150
12795W        W16015   8.946   8.855  11.888  0.2160 -0.1694  0.0063
12796W        W16016   2.917  15.373   8.435  0.0768 -0.0583  0.5044
12797W        W16017  12.052   4.780   5.903  0.2020  0.0431 -0.2584
12798W        W16018  12.389   7.626  14.684 -0.0384 -0.3017 -0.2659
12799W        W16019   4.863   5.641   7.251 -0.1387 -0.2806  0.0014
12800W        W16020   4.361   2.878  12.238  0.1328 -0.0260 -0.4862
12801W        W16021  13.301   3.527  17.730 -0.0432  0.1829 -0.0576
12802W        W16022   7.364   5.651  10.451 -0.2727 -0.2035  0.3697
12803W        W16023   4.284   3.668   9.855  0.0947  0.1381  0.0289
12804W        W16024   2.371   5.712   8.134 -0.3599 -0.1313 -0.0801
12805W        W16025   6.657   6.794  10.555  0.3404 -0.2349 -0.4278
12806W        W16026   9.444   3.696   8.594  0.0261 -0.2527  0.2428
12807W        W16027   1.695   5.834  10.284 -0.1969  0.0904 -0.1551
12808W        W16028   0.073   4.873   1.834 -0.0460 -0.2022  0.2641
12809W        W16029   3.514   9.529  18.188  0.0012  0.2482  0.0566
12810W        W16030   8.226  16.713  14.009 -0.0126 -0.1539  0.0087
12811W        W16031   5.813   4.393   7.858  0.1668 -0.1839  0.0353
12812W        W16032   7.821   2.314   8.937 -0.0962 -0.0080  0.0795
12813W        W16033  10.373   6.999   4.241  0.0828  0.3179  0.0552
12814W        W16034  12.118   5.720   9.900  0.0493 -0.2369 -0.0221
12815W        W16035   0.601   5.787   4.089 -0.3502  0.0653  0.1733
12816W        W16036  12.765   4.638  10.872  0.0955  0.1986  0.0278
12817W        W16037   1.420  10.798  15.005  0.1286 -0.1847  0.0684
12818W        W16038   3.327   5.200  12.887 -0.1070 -0.1708 -0.3176
12819W        W16039  17.986  11.735   7.748 -0.2713  0.2678  0.4494
12820W        W16040  16.508   1.540   7.448  0.0059 -0.0247  0.1759
12821W        W16041  11.161   0.560  11.669  0.1357 -0.2920  0.1020
12822W        W16042   6.930   6.351  18.201  0.1640  0.0973 -0.2680
12823W        W16043  13.215   5.203  11.523  0.0609  0.3791  0.0436
12824W        W16044   5.119   2.463   7.454  0.1591 -0.1568 -0.1106
12825W        W16045   5.213  15.245   7.005 -0.0110 -0.0178 -0.0052
12826W        W16046   3.114   2.188   6.864 -0.0745 -0.1245  0.2000
12827W        W16047   2.298   7.038  11.605 -0.1140 -0.0905 -0.0564
12828W        W16048  15.215   5.765   2.688 -0.1783  0.0927  0.1183
12829W        W16049   7.646   0.708   4.123  0.0763 -0.1431  0.0469
12830W        W16050  17.352   4.905   6.691 -0.0648 -0.2104  0.1336
12831W        W16051   4.548   3.290  11.607 -0.2042 -0.0397 -0.3810
12832W        W16052   7.581   6.557   2.733 -0.0573  0.2456  0.0510
12833W        W16053   2.999   6.168   7.291  0.2512 -0.2148 -0.2111
12834W        W16054   9.519   7.700  10.668 -0.1362 -0.1498 -0.3407
12835W        W16055  12.505  11.408  15.210 -0.2668  0.1593  0.1494
12836W        W16056   4.639   6.431   5.939 -0.2913  0.0496 -0.0841
12837W        W16057  18.009   4.857  10.543 -0.2713 -0.1454 -0.0500
12838W        W16058  10.133   8.515   7.705  0.1069 -0.1150  0.0871
12839W        W16059   9.300   7.601   2.354 -0.0234 -0.3403  0.0895
12840W        W16060  16.106   6.221  18.259 -0.3774 -0.1075 -0.2292
12841W        W16061   2.427   0.271   9.210  0.0318  0.1769  0.2391
12842W        W16062   6.626   2.494   8.424 -0.1351  0.4849  0.0032
12843W        W16063   6.756  17.235   0.511  0.0298 -0.1515 -0.0794
12844W        W16064   6.654   3.760   5.778  0.2472 -0.1968 -0.0292
12845W        W16065   9.224   0.230   4.165 -0.0658 -0.0497  0.1447
12846W        W16066   5.086  13.181  11.913  0.1932 -0.0251  0.0280
12847W        W16067  18.165  16.766  10.268  0.2755 -0.4852 -0.1068
12848W        W16068   5.824   1.436   9.808  0.1142  0.1923  0.0292
12849W        W16069   5.986   5.971  15.546 -0.2467  0.1154 -0.0623
12850W        W16070   8.138   8.193  11.077 -0.3008  0.0152  0.2935
12851W        W16071   4.079   7.311   8.759  0.2643  0.2444  0.1414
12852W        W16072  11.593   3.536   9.807 -0.4030 -0.0972  0.0602
12853W        W16073   2.291  17.768   7.418  0.2129 -0.0025  0.5066
12854W        W16074   8.543   6.104  10.644  0.1614  0.0327  0.2653
12855W        W16075   9.656   8.780  10.802 -0.0400  0.2073 -0.1347
12856W        W16076   5.343   3.630   8.387 -0.2828 -0.0116  0.1840
12857W        W16077   0.992   7.243  13.647  0.1473 -0.5098 -0.2041
12858W        W16078   8.877   4.340   5.759  0.0156 -0.2570 -0.2934
12859W        W16079   2.785   0.843   8.522  0.0515  0.0671  0.1258
12860W        W16080  12.935   0.894  10.071  0.2797 -0.2817 -0.1030
12861W        W16081   8.474   8.641   5.689 -0.0006  0.2067 -0.3524
12862W        W16082   4.684   1.513   2.997 -0.3258  0.3026 -0.0757
12863W        W16083   0.057   1.390  12.743 -0.0813 -0.0929 -0.1215
12864W        W16084   5.964   4.998  10.848  0.0309 -0.0474  0.0308
12865W        W16085  10.459   7.435   8.785 -0.0091 -0.2003  0.0516
12866W        W16086  16.968   9.568  13.562 -0.0791 -0.0556 -0.1434
12867W        W16087   2.373   5.756   6.845 -0.2694 -0.1510  0.0937
12868W        W16088   3.470   4.642   9.141  0.0684 -0.1251 -0.2942
12869W        W16089   2.620   3.844   1.400  0.3450 -0.2696  0.1319
12870W        W16090  13.548   0.766  14.451  0.0501 -0.2495 -0.0610
12871W        W16091  12.205  17.514  14.996 -0.1259 -0.0577  0.0140
12872W        W16092  10.940  12.699   8.489  0.1465 -0.3170 -0.2415
12873W        W16093   5.534  18.176   6.588  0.1305 -0.0138  0.3917
12874W        W16094  16.532   3.684   3.885  0.0919 -0.2358 -0.1799
12875W        W16095   0.468   5.601   3.622  0.1904  0.1346  0.1230
12876W        W16096  11.032   3.476   3.483 -0.0382 -0.3426 -0.1932
12877W        W16097   7.055   3.828  15.313  0.2005  0.0340  0.0171
12878W        W16098   7.703   7.863   9.886 -0.1230 -0.2387 -0.1960
12879W        W16099   9.616   1.004   5.168  0.1002 -0.0209  0.2659
12880W        W16100   7.357   7.382   1.576  0.2984 -0.1077 -0.0590
12881W        W16101   7.531   4.822   6.661 -0.0420 -0.1561 -0.3423
12882W        W16102   7.580   8.813   8.990 -0.0016  0.1382  0.1825
12883W        W16103  12.206   5.471  12.205  0.1843  0.1143  0.2327
12884W        W16104   1.090   3.447  12.340  0.0311 -0.0077 -0.3095
12885W        W16105   7.945  10.122  11.811 -0.2521 -0.2654  0.3593
12886W        W16106   8.020   6.556  14.996 -0.1510  0.0821  0.1930
12887W        W16107  10.033   3.404   8.144 -0.0999 -0.0174 -0.2383
12888W        W16108   5.330   3.523  12.767 -0.3038  0.1174 -0.0816
12889W        W16109   5.641   8.024  13.004 -0.0560 -0.0474  0.0377
12890W        W16110   7.402  12.191  10.660  0.1240 -0.0679 -0.2792
12891W        W16111  13.760   5.747   7.105  0.3194 -0.2705  0.1328
12892W        W16112  16.357   4.424   7.577 -0.0861  0.1506  0.0558
12893W        W16113  16.660   1.067   5.645 -0.0384  0.3286 -0.3033
12894W        W16114   1.049  14.525   9.577 -0.0922  0.2121  0.0198
12895W        W16115   6.109   3.674  10.040  0.1350  0.0647  0.0254
12896W        W16116  11.943   4.398   6.280  0.0901  0.1298 -0.3468
12897W        W16117  18.073   6.774   9.402 -0.0330  0.1919 -0.1280
12898W        W16118   7.087  10.844   4.468  0.4731  0.1122  0.0638
12899W        W16119   3.784   6.616   2.582 -0.2149 -0.0247 -0.1346
12900W        W16120   3.947   4.522   7.323 -0.2387  0.2194  0.0242
12901W        W16121  15.242   6.089   0.980 -0.0311  0.0436 -0.0679
12902W        W16122  11.457  10.298  10.968  0.0683 -0.0057 -0.3214
12903W        W16123   2.595   9.528   7.292 -0.0243  0.0884  0.2555
12904W        W16124   6.139   1.723   4.872  0.1661 -0.0661  0.2574
12905W        W16125   4.193   8.582   5.533 -0.2170 -0.1929 -0.0850
12906W        W16126   8.440  17.911  12.203 -0.0290 -0.1462  0.5112
12907W        W16127   9.764   5.717  10.106  0.0967 -0.1668  0.0296
12908W        W16128   9.326   2.732   6.072  0.3431  0.3021  0.0623
12909W        W16129   0.253  15.363   7.591 -0.2207  0.2277 -0.0930
12910W        W16130   5.200   8.614   8.117 -0.0554  0.0259 -0.0897
12911W        W16131  15.135   8.457   7.128  0.1186  0.0380 -0.4314
12912W        W16132  18.257  12.426   3.563 -0.0964 -0.2969 -0.1007
12913W        W16133   7.458   8.848   7.912  0.0841 -0.1320  0.1023
12914W        W16134   1.358   5.423   4.375 -0.1153 -0.0240  0.2250
12915W        W16135   1.981  11.293   5.460  0.2111 -0.0010  0.3061
12916W        W16136   5.101   1.426  13.304  0.1809 -0.1518  0.0558
12917W        W16137   9.491  16.941   9.479 -0.2206  0.2658 -0.0746
12918W        W16138   4.128  10.790   8.735 -0.0160 -0.4473  0.0750
12919W        W16139   8.649   3.280   8.326  0.0344 -0.0994 -0.0788
12920W        W16140   5.024  17.900   6.786  0.2229 -0.1041  0.1722
12921W        W16141   1.119   3.652   7.107  0.0951 -0.2885 -0.0798
12922W        W16142   8.681  15.481   7.711 -0.1270 -0.2270  0.1270
12923W        W16143   6.006   0.363   5.338 -0.0618 -0.1883 -0.0320
12924W        W16144   4.368  16.405  13.954  0.0187 -0.0154  0.1393
12925W        W16145  10.999   1.195  12.370 -0.0087 -0.0784 -0.2365
12926W        W16146   2.963   6.995  14.669 -0.1533  0.4008 -0.1796
12927W        W16147   7.825   4.456   7.401 -0.2507  0.0108  0.0612
12928W        W16148   2.697   4.271   6.698 -0.0642  0.0417 -0.1632
12929W        W16149   5.848   1.309  14.463 -0.1972  0.1033  0.0273
12930W        W16150  11.510   3.510   9.037 -0.0634 -0.0653 -0.0784
12931W        W16151   6.475  16.853   4.326 -0.1033 -0.0421  0.0863
12932W        W16152   5.301   8.337  13.313 -0.0500  0.1274  0.1163
12933W        W16153   5.070   1.136  11.167  0.0394 -0.0132  0.3154
12934W        W16154  10.753   5.509  12.072 -0.0701  0.2017 -0.0653
12935W        W16155  17.234  11.367  11.535  0.0135  0.0121  0.2024
12936W        W16156  10.008   8.271  17.391  0.1511 -0.3206  0.1466
12937W        W16157  11.962   2.864   8.239 -0.0751  0.2044  0.0579
12938W        W16158   6.399   7.913  11.261  0.1491 -0.1276 -0.0638
12939W        W16159   4.923   5.115   4.065 -0.1599  0.0804 -0.0619
12940W        W16160  11.591   5.102   4.555  0.2152 -0.2644 -0.0434
12941W        W16161   5.433   2.210   5.825  0.0217  0.2602  0.1287
12942W        W16162  11.846   0.626  11.406 -0.2155 -0.0891 -0.3193
12943W        W16163   4.140   6.213   6.700  0.0477 -0.0052 -0.1618
12944W        W16164   7.740   5.095  12.480  0.4365  0.2944  0.0785
12945W        W16165   6.266   6.151  14.474  0.0706 -0.1806 -0.1192
12946W        W16166   5.678   1.105  15.018  0.3454  0.2464  0.0525
12947W        W16167  15.311   1.690  13.975 -0.0290 -0.0545  0.1425
12948W        W16168   5.095  14.011   6.003 -0.1655 -0.1251 -0.0812
12949W        W16169   6.077   7.762   6.531  0.0250  0.1567 -0.2726
12950W        W16170   2.267   4.851   9.491 -0.0369  0.0313  0.0856
12951W        W16171   9.420  16.924   1.139 -0.2362  0.1204  0.1310
12952W        W16172   5.935  11.191   7.798 -0.1271 -0.0710 -0.4403
12953W        W16173   7.265  12.390  12.774 -0.2404 -0.2787 -0.0081
12954W        W16174   5.998   9.652  17.276  0.0046 -0.3776 -0.3148
12955W        W16175   5.805   2.597   9.225  0.0971 -0.1688 -0.0666
12956W        W16176   3.217   7.181  10.282  0.0801  0.2242 -0.2316
12957W        W16177   7.210   1.782   1.113 -0.0563  0.1303 -0.1303
12958W        W16178   2.981  17.676   9.813 -0.0371 -0.1967 -0.0092
12959W        W16179   3.850   9.139  13.341  0.1856  0.1556  0.0212
12960W        W16180   5.894   2.529   1.337  0.1023  0.0360 -0.1632
12961W        W16181   3.884  10.522   9.307  0.1816  0.3409 -0.3189
12962W        W16182  12.378   2.681  14.032  0.1760 -0.0976 -0.0847
12963W        W16183  15.589   3.312   8.047 -0.2817 -0.0624 -0.0802
12964W        W16184   8.656   4.818   6.887 -0.0700 -0.0036 -0.1798
12965W        W16185   4.494   2.237   6.337 -0.2680  0.0507  0.3581
12966W        W16186   6.848   7.797  10.799 -0.0977  0.1364  0.4222
12967W        W16187   5.765   5.126   6.526  0.0709 -0.2040 -0.0453
12968W        W16188   5.142  12.816   9.583 -0.2554  0.2463 -0.3117
12969W        W16189   3.067  10.305  14.517 -0.0030 -0.2539 -0.0733
12970W        W16190   2.488  14.292   6.837  0.0740 -0.1504  0.1111
12971W        W16191   2.344   7.967  12.020 -0.1440 -0.2798 -0.2372
12972W        W16192   1.592  14.702   9.453  0.0352  0.1899  0.1783
12973W        W16193  17.427   8.686  11.320  0.3388 -0.2126 -0.0828
12974W        W16194   7.373   3.085  10.589 -0.4406 -0.1206  0.0943
12975W        W16195  18.253   5.898   3.906  0.1748  0.1425  0.1234
12976W        W16196   3.499   9.934   9.322  0.0159  0.0638  0.0194
12977W        W16197   2.833   7.714   7.054 -0.0592  0.0977  0.2665
12978W        W16198   9.304  15.718   6.067 -0.1169 -0.0185  0.0803
12979W        W16199  15.958   5.551  15.594  0.2950  0.3375 -0.1622
12980W        W16200  13.741   5.165  13.469 -0.2279 -0.1652  0.1827
12981W        W16201   5.122  15.532   5.960 -0.2770  0.1350 -0.2705
12982W        W16202  10.642  10.016  12.326  0.0347 -0.0022 -0.0210
12983W        W16203   2.158   5.561  17.554 -0.1489 -0.3340 -0.2655
12984W        W16204  10.282   6.356  11.757  0.3357 -0.1469 -0.1358
12985W        W16205   5.763  17.573  16.943 -0.0134  0.2912 -0.1458
12986W        W16206   0.031  10.413   8.964  0.0124 -0.1217  0.1184
12987W        W16207  17.737   3.088  14.737  0.2335 -0.2118  0.2558
12988W        W16208   8.170   3.518   5.942 -0.1911 -0.0532 -0.1078
12989W        W16209  15.706   9.984  10.180 -0.0720  0.0794  0.0305
12990W        W16210   2.917   9.156   4.980  0.1454  0.1019  0.0034
12991W        W16211  10.361   7.275   9.759 -0.1991  0.1971  0.0098
12992W        W16212   9.843   7.062   3.608  0.4908 -0.2552 -0.1243
12993W        W16213   3.818   3.321   7.734  0.1285 -0.1582 -0.0171
12994W        W16214   9.135  17.779   9.810  0.2149  0.2750  0.0148
12995W        W16215  17.197   5.389  14.434 -0.0259  0.1360  0.1249
12996W        W16216   5.390   8.852  10.091 -0.0491  0.2151 -0.0414
12997W        W16217   9.640   3.163   6.274  0.3962  0.0932 -0.1574
12998W        W16218   5.984   0.325  14.772  0.0876  0.0189 -0.0364
12999W        W16219   3.217  10.255   9.671 -0.1315 -0.1206  0.0888
13000W        W16220  10.605  13.256   6.915  0.2811  0.0063  0.4107
13001W        W16221  17.754   2.687   6.242  0.1754 -0.1626 -0.0792
13002W        W16222   1.111   9.726   1.931  0.2904 -0.0388 -0.0945
13003W        W16223   1.449   9.859  12.673  0.0707  0.1641 -0.2250
13004W        W16224   1.622   4.435  18.002 -0.0442  0.1182  0.0259
13005W        W16225  14.655   5.811   0.203  0.3699  0.1937  0.0250
13006W        W16226  14.139   4.115   2.122 -0.2596  0.3291 -0.0503
13007W        W16227   2.680  11.703  14.078  0.3932 -0.1556  0.3817
13008W        W16228   4.998   7.133  15.885  0.1159 -0.1147  0.3167
13009W        W16229   8.505   4.260   9.599 -0.0718 -0.1675  0.0415
13010W        W16230  15.916  16.871   8.071 -0.0934 -0.2270 -0.0452
13011W        W16231   6.227   7.760   8.263 -0.0088 -0.2815 -0.1160
13012W        W16232   7.240   5.078  12.752 -0.1061 -0.1810 -0.1347
13013W        W16233   1.090   2.162  16.511 -0.3043 -0.0005 -0.0091
13014W        W16234   3.442   3.541  15.035  0.4376 -0.2779 -0.1214
13015W        W16235  17.036   7.783   8.006 -0.2940  0.0764 -0.3499
13016W        W16236   5.295   1.760   1.294  0.2830  0.1689 -0.0107
13017W        W16237   5.217  16.637   4.398  0.0137 -0.0857 -0.2838
13018W        W16238   5.488   4.656  11.120 -0.1671  0.1295  0.2931
13019W        W16239   6.102   4.233  11.780 -0.0026  0.0920  0.0786
13020W        W16240   3.803  17.792   3.865  0.3040  0.2472 -0.1802
13021W        W16241   0.769  17.707  10.271 -0.2036  0.0214  0.2988
13022W        W16242   7.978   8.798  12.150 -0.2021 -0.2227 -0.1947
13023W        W16243  12.336   7.500  13.260 -0.0202  0.1060  0.2945
13024W        W16244   0.102   0.528  12.242  0.1007 -0.0970  0.2209
13025W        W16245   7.969   2.336  10.716  0.0639  0.1761  0.1015
13026W        W16246   1.542   1.349  10.479  0.2795 -0.1872  0.0678
13027W        W16247   3.567   3.326   6.440 -0.0863 -0.0595  0.0187
13028W        W16248   5.496   4.351  10.046 -0.0634 -0.0095  0.0110
13029W        W16249   6.564   9.014  14.738  0.0111 -0.2002  0.4181
13030W        W16250   8.629   3.751  15.060 -0.0664  0.2622  0.1073
13031W        W16251   4.620   3.320  13.209  0.1998  0.1933 -0.2513
13032W        W16252   6.176  11.408   7.215  0.2471  0.1643  0.0997
13033W        W16253   8.985  14.178   4.110  0.2135  0.0148  0.0840
13034W        W16254   1.645   4.516   4.890 -0.1492  0.0405 -0.1178
13035W        W16255  10.118  15.105   9.354  0.1312  0.1395  0.0430
13036W        W16256   9.929   1.568  12.111  0.0026  0.1102  0.1133
13037W        W16257   5.292  12.135  13.302 -0.1467  0.0152  0.0914
13038W        W16258   3.199   4.455  10.449  0.0104  0.3046 -0.0484
13039W        W16259  11.109  10.160  12.456  0.1506  0.0345 -0.2762
13040W        W16260   7.180   1.079   0.652 -0.0386 -0.0225 -0.0220
13041W        W16261  17.628   1.753  11.238  0.2972  0.0739 -0.1834
13042W        W16262   4.430   8.670   6.877 -0.0037  0.2054 -0.5053
13043W        W16263   0.474   2.245   0.930 -0.2504 -0.0518 -0.0117
13044W        W16264   3.390   7.096  16.221 -0.4346 -0.0120 -0.0886
13045W        W16265   3.376   1.715   6.874  0.0526 -0.0029  0.1285
13046W        W16266   5.019   7.935  11.634 -0.0366  0.1438 -0.2701
13047W        W16267   4.682   4.914  12.025 -0.1119  0.1480 -0.2496
13048W        W16268   6.443   7.249  13.445 -0.0846 -0.1619  0.1590
13049W        W16269   9.156   5.832  15.805 -0.2611 -0.1511  0.0748
13050W        W16270   3.157  12.029  16.571 -0.2087  0.1265 -0.2423
13051W        W16271   7.575   5.886  15.787  0.2312 -0.1180 -0.0942
13052W        W16272   4.701  10.064  13.338 -0.2299 -0.1528 -0.0247
13053W        W16273   1.274   0.924   6.382  0.1129  0.2266  0.0046
13054W        W16274   5.454  12.217   8.068  0.0194  0.0301 -0.1185
13055W        W16275   2.705   8.863  17.461 -0.0039 -0.0641 -0.1723
13056W        W16276   6.212   6.704  11.548  0.1663  0.0448 -0.1033
13057W        W16277   9.123   1.962  17.244  0.3036 -0.1799  0.0597
13058W        W16278  16.922   9.142  10.229  0.1450  0.2104 -0.1049
13059W        W16279   1.430   2.550  16.321  0.0169  0.0261 -0.0824
13060W        W16280   7.386   3.182  14.561 -0.0256  0.3774 -0.0217
13061W        W16281   5.629   5.984  13.670 -0.0943  0.1043  0.1242
13062W        W16282  11.056   6.811  12.841  0.2722 -0.3439 -0.1179
13063W        W16283  16.404   1.540  15.360 -0.1071  0.1113 -0.2531
13064W        W16284  10.733   4.659  12.665  0.1470 -0.1803  0.2052
13065W        W16285   4.286  16.878  14.203  0.1924  0.3579  0.3648
13066W        W16286  11.692  15.379  13.472  0.3631 -0.1127  0.1280
13067W        W16287  12.923   4.949  12.476  0.0189 -0.1162  0.2038
13068W        W16288   6.279   6.842  16.318 -0.0022 -0.1303 -0.5591
13069W        W16289   0.817   8.988  12.572  0.3862 -0.1025 -0.1847
13070W        W16290  11.939   4.828  15.272 -0.0656 -0.0538  0.2300
13071W        W16291   8.296   4.126  14.796  0.2149 -0.2067  0.0185
13072W        W16292   2.744   2.856  14.989  0.0361 -0.3307 -0.3979
13073W        W16293   7.144   9.249   2.631  0.1120 -0.2309  0.1954
13074W        W16294   0.133  17.919   5.051  0.1120 -0.2213 -0.1776
13075W        W16295   3.648  11.942  14.954 -0.0715  0.0973 -0.1592
13076W        W16296   5.446   5.639   1.589 -0.2480 -0.0969  0.0853
13077W        W16297  18.041   9.609  15.713  0.2120  0.0646  0.0824
13078W        W16298   3.099   1.805   6.072  0.1887 -0.0520  0.0882
13079W        W16299   4.413   5.255  12.395 -0.0041  0.0490 -0.1870
13080W        W16300   4.020   6.436  10.405 -0.0686 -0.1317 -0.0746
13081W        W16301   9.929   5.710  15.569  0.2185  0.1305 -0.0240
13082W        W16302   9.806  10.501  13.031 -0.0201  0.0732  0.1392
13083W        W16303   5.900  13.215   0.312  0.0272  0.1471  0.0807
13084W        W16304  15.172   0.284  12.729  0.0117  0.0657 -0.0144
13085W        W16305  17.861   3.525  15.653 -0.3118 -0.0177 -0.3294
13086W        W16306  16.029  17.756  17.777 -0.1742 -0.4102 -0.0505
13087W        W16307   5.145   4.830  16.933  0.2249 -0.0365 -0.2358
13088W        W16308   2.960  11.700  15.036  0.4687 -0.0935  0.0384
13089W        W16309  12.138   5.172  10.531  0.1243 -0.2585 -0.0712
13090W        W16310   7.465   5.941  15.308 -0.0203  0.3342 -0.1187
13091W        W16311   5.230   7.470  11.425  0.1238  0.2047 -0.0009
13092W        W16312   7.474  10.460  11.646  0.1072 -0.1189 -0.0581
13093W        W16313  13.727  15.968  12.291 -0.1269 -0.3327  0.0900
13094W        W16314   7.074  12.853  10.134 -0.0525  0.2481 -0.2874
13095W        W16315  16.740   4.431  16.332  0.0045  0.1866  0.1558
13096W        W16316  11.047   5.911  12.233 -0.0470 -0.0545  0.0280
13097W        W16317   4.444  11.256  17.677 -0.1135  0.2712 -0.0218
13098W        W16318   4.589  16.064  12.713 -0.0189 -0.1466  0.0286
13099W        W16319   7.784  16.132  10.734  0.1291 -0.0270  0.0090
13100W        W16320  17.497   2.301  12.204 -0.0465 -0.0927 -0.0910
13101W        W16321   0.750   5.574  15.196 -0.0009  0.0846  0.0737
13102W        W16322   2.255   7.443  11.075  0.1420 -0.0413  0.0880
13103W        W16323   3.578   8.703  15.496 -0.3989  0.0033  0.0041
13104W        W16324   2.795   9.219   1.432  0.2095  0.1080  0.0811
13105W        W16325   2.800  10.881  15.708 -0.2101  0.4415  0.2974
13106W        W16326   4.271   8.905  10.858  0.0101  0.2230 -0.3280
13107W        W16327  13.826   5.253  15.518  0.0293  0.0111 -0.1036
13108W        W16328   8.936   8.600  13.779 -0.1637  0.2294 -0.0196
13109W        W16329   5.450   5.439  15.951  0.0399 -0.2999  0.2295
13110W        W16330  12.181   2.260  10.730 -0.2038 -0.2321  0.1231
13111W        W16331   9.015   1.732  12.118 -0.0407 -0.0056  0.0320
13112W        W16332   3.245   3.542  15.530  0.2303  0.0459  0.0657
13113W        W16333  10.587  12.206   5.296  0.0024  0.2051  0.1827
13114W        W16334   5.291   6.217   5.444  0.0779 -0.0004 -0.2980
13115W        W16335   3.109  12.701  10.982  0.0336  0.0662  0.4362
13116W        W16336   6.139  10.418  13.711  0.4801 -0.4119 -0.3314
13117W        W16337  10.879   2.109   0.443 -0.1133  0.0387  0.1112
13118W        W16338   7.306  10.642   6.451  0.3585 -0.1849  0.2366
13119W        W16339   6.652   4.045  12.639 -0.1673 -0.0666  0.1419
13120W        W16340   3.204  12.491  14.592  0.0425  0.1802  0.0575
13121W        W16341   2.732   2.321  14.389  0.0619  0.0732  0.2872
13122W        W16342  10.246  14.142  14.398 -0.3323 -0.0100 -0.1952
13123W        W16343   6.932   8.740   8.897 -0.0578  0.2377 -0.1676
13124W        W16344  14.336  15.163  14.694 -0.0948  0.2242 -0.1720
13125W        W16345   5.033   4.462  14.787 -0.1425 -0.1891  0.0219
13126W        W16346   3.950   1.554  15.619 -0.0656 -0.2808 -0.0637
13127W        W16347   6.412   8.956   0.550 -0.1207  0.1891 -0.2518
13128W        W16348  17.382   2.272  10.917  0.2057  0.1805  0.0600
13129W        W16349   9.697   5.334  12.179 -0.2544  0.0099 -0.0074
13130W        W16350   1.789   6.510   2.101  0.1130  0.0800  0.1382
13131W        W16351   4.517   0.918   8.969  0.3819 -0.3517 -0.2669
13132W        W16352  16.261  10.522   9.350  0.0129  0.3342  0.0408
13133W        W16353   0.291   5.267  15.761 -0.1159 -0.5828 -0.2713
13134W        W16354  18.219   1.555   5.561 -0.0012 -0.1413 -0.1465
13135W        W16355   6.464   3.935  13.134  0.0154 -0.3453 -0.1172
13136W        W16356   8.502   8.957   8.908 -0.1369  0.1685  0.0336
13137W        W16357   8.312   1.303  14.952  0.1035  0.2629  0.1232
13138W        W16358   0.367   3.169  14.825 -0.1080  0.1089  0.3713
13139W        W16359  13.969   5.439   8.910  0.0099  0.1468 -0.1476
13140W        W16360   8.504   5.317   8.033 -0.3009  0.1336 -0.3688
13141W        W16361   1.740   4.548  12.200 -0.0521  0.0725 -0.0388
13142W        W16362   0.239  17.652   8.941 -0.0536 -0.1807 -0.0291
13143W        W16363   3.207   5.870  10.741 -0.0454 -0.2478 -0.0857
13144W        W16364   5.989   4.528  11.120  0.0215  0.1718  0.0109
13145W        W16365   0.165   4.411   5.959 -0.0872  0.0804  0.0492
13146W        W16366   5.509   4.963  13.102 -0.0295 -0.1475  0.0820
13147W        W16367   4.239  12.715  12.082 -0.2348 -0.2558  0.1831
13148W        W16368  11.064  12.239  14.718 -0.0679 -0.5079  0.0594
13149W        W16369   0.872   6.175  14.451 -0.0530 -0.3828  0.2140
13150W        W16370   6.004  18.061  12.543 -0.0730 -0.1420 -0.1313
13151W        W16371   5.285   3.994  12.964  0.5518 -0.1044 -0.2220
13152W        W16372   6.618   5.399   3.259 -0.1277  0.0586  0.1796
13153W        W16373   6.213   0.196  16.045 -0.1255 -0.0501 -0.2853
13154W        W16374  13.827   6.743  12.932  0.1257  0.0357 -0.0749
13155W        W16375   5.955   6.104  14.090  0.4481 -0.2021  0.1237
13156W        W16376  15.781   6.486  11.384  0.1812  0.0369 -0.0539
13157W        W16377   4.517  11.762  16.974 -0.2933  0.0101  0.0985
13158W        W16378  13.151   6.737  15.195  0.0944  0.0286  0.0338
13159W        W16379  16.242   2.753  12.224  0.2171 -0.0001  0.1559
13160W        W16380   9.999   0.021  10.150  0.1771  0.0989  0.0155
13161W        W16381  12.493  18.022   8.745  0.0358  0.2182 -0.2546
13162W        W16382   9.268   1.748   2.199  0.1946  0.0476 -0.1681
13163W        W16383   8.454   3.430  17.455  0.0109  0.2043  0.1432
13164W        W16384   6.779   5.617   8.350  0.1823 -0.2283 -0.2232
13165W        W16385   7.389   4.580  17.094 -0.1384 -0.0630 -0.1866
13166W        W16386   5.542   1.320   1.170  0.1252  0.0239  0.1082
13167W        W16387   5.837   8.810   9.856  0.1250 -0.2346  0.2597
13168W        W16388   8.184  17.969   6.876 -0.2486  0.3461 -0.0073
13169W        W16389  11.193   5.820  12.820  0.1330  0.0333 -0.0445
13170W        W16390   1.266   3.621   3.547 -0.0251 -0.0727  0.0067
13171W        W16391   6.843   3.348  16.685 -0.1182  0.0176  0.1146
13172W        W16392   4.080   7.909  17.119  0.0236  0.1238  0.0994
13173W        W16393  18.076   7.910  15.751  0.5301  0.4623 -0.1234
13174W        W16394   2.061   5.625  12.657 -0.2826 -0.1380 -0.1285
13175W        W16395   3.243   4.040  16.038 -0.2050 -0.1541 -0.0704
13176W        W16396   8.184  10.074  12.984  0.2806  0.0149 -0.0406
13177W        W16397   8.685   5.660   7.739 -0.0303 -0.0494  0.1937
13178W        W16398   3.846   6.709  12.275  0.1348  0.2914 -0.0127
13179W        W16399   1.214   2.945  13.757 -0.1115  0.0809 -0.0433
13180W        W16400   8.378   6.056  15.526  0.0674  0.2912  0.2568
13181W        W16401   3.933   5.735   1.119 -0.0812 -0.1472  0.1840
13182W        W16402   7.958   4.216  15.271 -0.3212 -0.0613  0.2996
13183W        W16403   4.777   2.291  17.632  0.0288  0.0632  0.1990
13184W        W16404  15.417   6.900  11.346  0.1491  0.0330 -0.1994
13185W        W16405   3.066   7.465  11.959  0.2562  0.0755  0.1582
13186W        W16406   3.802   2.423  10.335 -0.1767  0.2906 -0.1649
13187W        W16407  10.127  16.454   5.027  0.1649  0.1502 -0.2791
13188W        W16408   3.928   6.689  15.570 -0.0824 -0.1260  0.2552
13189W        W16409   5.179   9.193  11.208  0.1651 -0.2401  0.1559
13190W        W16410  13.977   2.046  13.849 -0.2849  0.0899 -0.0623
13191W        W16411  11.463   5.071   1.135  0.0730 -0.0179  0.1188
13192W        W16412   5.680   1.731  10.761  0.1062 -0.0905 -0.1248
13193W        W16413  16.722   3.216   0.333  0.3810 -0.2122 -0.1322
13194W        W16414   2.887  10.902  12.887 -0.1532  0.2266  0.1626
13195W        W16415   8.318   6.850  10.896 -0.0728  0.2041  0.1500
13196W        W16416  11.219   5.868  11.278 -0.1749 -0.0129  0.0602
13197W        W16417   4.553   5.057   8.453  0.2159  0.3401 -0.0560
13198W        W16418   5.914   2.945  11.690  0.4386 -0.0370 -0.1061
13199W        W16419   4.918   4.550  12.242 -0.1078  0.1265 -0.0598
13200W        W16420   6.869   8.889  15.083  0.3946 -0.1920  0.1871
13201W        W16421   3.838   8.012  16.098 -0.1274 -0.1272 -0.0517
13202W        W16422   7.480  15.851  10.483  0.1999 -0.2256  0.0148
13203W        W16423   4.947  16.233  17.593  0.1144  0.0042 -0.1639
13204W        W16424  14.886   1.540   1.324 -0.0733 -0.1818 -0.0629
13205W        W16425   7.898   5.679  10.507  0.1529  0.2288  0.0526
13206W        W16426   3.062  16.173  11.657 -0.2644  0.0773 -0.1429
13207W        W16427   8.247   4.685   7.648  0.2446 -0.1641  0.2597
13208W        W16428   5.459   7.286   8.508  0.0466 -0.2330 -0.1568
13209W        W16429  15.446   4.350  16.821 -0.0147  0.3199 -0.1357
13210W        W16430   3.056  10.157   6.849 -0.0999 -0.1881 -0.1592
13211W        W16431   7.472   4.403  15.704  0.1498 -0.3742  0.0941
13212W        W16432   4.482   4.931  13.706  0.1342  0.0664  0.0895
13213W        W16433   0.327   7.443  15.695  0.4526 -0.1730 -0.3550
13214W        W16434   8.126   2.108   2.447  0.1178  0.4130  0.0491
13215W        W16435   6.946   7.270  15.113 -0.0561  0.2909  0.5009
13216W        W16436  11.794  16.977  14.146 -0.0158  0.2975 -0.0562
13217W        W16437   3.080   3.733   7.929  0.1031  0.1946  0.2512
13218W        W16438   9.732  18.064  13.460  0.0221 -0.2689  0.3948
13219W        W16439   4.053   4.561  14.372  0.0684 -0.0830 -0.0859
13220W        W16440   2.395  10.971  11.742  0.3556  0.0070 -0.2039
13221W        W16441   6.207   3.691   7.400  0.1257  0.4539 -0.0378
13222W        W16442   7.345   8.321  10.564 -0.1268  0.0154  0.0487
13223W        W16443   1.023  10.703   7.884  0.2848 -0.1227 -0.4064
13224W        W16444   7.298   1.875  11.601 -0.0033  0.1515  0.0923
13225W        W16445   4.182   7.997   9.673 -0.0924 -0.1108 -0.1880
13226W        W16446   4.566   9.271  13.991  0.1605  0.1479 -0.1873
13227W        W16447   6.414   0.193  13.965 -0.0882 -0.1383  0.5217
13228W        W16448   8.174   4.163  12.117 -0.4798 -0.2447  0.0557
13229W        W16449  15.382   6.305   6.704 -0.0105 -0.0382  0.2164
13230W        W16450  11.779   5.242  16.472  0.1458  0.0090  0.1518
13231W        W16451   6.106   5.494  15.542 -0.1170  0.1815  0.0801
13232W        W16452   7.472   5.517   9.303  0.2043  0.0358  0.2454
13233W        W16453   1.000  12.938  15.945 -0.2755 -0.1723 -0.1631
13234W        W16454   5.709   7.594  11.360  0.3257 -0.0364 -0.0555
13235W        W16455   3.656   7.860  18.008 -0.1944 -0.2234 -0.0446
13236W        W16456   8.223  17.236  11.097 -0.2632 -0.2906 -0.1296
13237W        W16457   7.936   6.932  14.566 -0.3588 -0.0098 -0.0155
13238W        W16458   4.280  12.179   1.791 -0.1088  0.2894 -0.1217
13239W        W16459  11.888   4.961  10.146 -0.4336 -0.0497 -0.0252
13240W        W16460   4.794   5.628  12.537  0.1967 -0.1775 -0.0561
13241W        W16461   0.005   2.482   8.105  0.2154  0.1411  0.0007
13242W        W16462   4.631   5.238   4.939  0.0925 -0.3285  0.1284
13243W        W16463   2.613   8.508  10.340 -0.0443  0.3310  0.2205
13244W        W16464   5.378   4.050   3.588 -0.0241  0.2655 -0.0883
13245W        W16465   8.834   7.971   9.976  0.0321  0.0047  0.1268
13246W        W16466  12.153  15.584   8.148  0.1370 -0.0630 -0.2490
13247W        W16467   7.186   5.129  15.234  0.4049  0.0845  0.0359
13248W        W16468   3.236   3.794  11.142 -0.1135 -0.2048  0.3456
13249W        W16469   9.794   4.642   9.063  0.5617 -0.1480  0.1396
13250W        W16470   7.879   2.187   6.050 -0.0691  0.2980  0.0004
13251W        W16471   4.005   1.555   4.193  0.1750 -0.1100  0.0771
13252W        W16472   2.968   1.143   6.349  0.0417 -0.4229  0.1780
13253W        W16473   2.780  11.950   2.895 -0.1975  0.2607  0.1225
13254W        W16474  16.917   0.573  10.496 -0.1875 -0.0531 -0.0809
13255W        W16475  17.131  13.487   8.698 -0.0026 -0.1388 -0.0411
13256W        W16476   9.716  13.610  11.856 -0.0859  0.0048  0.0221
13257W        W16477   4.166  10.257  10.167 -0.2133 -0.1351 -0.1105
13258W        W16478   8.706   2.708  11.925 -0.0313 -0.2085 -0.1511
13259W        W16479  11.184   9.727   9.757 -0.0819 -0.1533  0.2037
13260W        W16480   5.406   4.145  16.558  0.2660 -0.1705 -0.1962
13261W        W16481   6.010   3.764  12.142  0.0742 -0.0827  0.0129
13262W        W16482  10.286   4.503  17.973  0.0380  0.0702 -0.0298
13263W        W16483   1.103   4.019   1.877 -0.1025 -0.2999  0.0474
13264W        W16484   7.650   5.497  12.714  0.0008  0.0871 -0.2987
13265W        W16485   5.725   0.077  15.117 -0.1658  0.1388  0.0891
13266W        W16486   7.618   5.138   1.555 -0.2262 -0.1000 -0.0802
13267W        W16487   5.063  15.823   4.973  0.3738  0.0834 -0.1427
13268W        W16488  10.932   5.014  13.653 -0.0649  0.0614  0.0263
13269W        W16489   8.567   3.950  14.045  0.0376  0.0267 -0.1324
13270W        W16490   6.915   7.070   3.688 -0.0514  0.2358 -0.1835
13271W        W16491  17.376   6.698  17.032  0.1655 -0.1795  0.0901
13272W        W16492   2.821  17.410   3.586 -0.2063  0.0602 -0.1081
13273W        W16493   8.116  10.605  16.575 -0.2455 -0.0171  0.0725
13274W        W16494  17.532   2.359  14.686 -0.0775  0.1411 -0.0316
13275W        W16495   3.387   9.123   4.734  0.1855 -0.3115 -0.2638
13276W        W16496  11.492  16.655  13.044 -0.0208  0.0162  0.1785
13277W        W16497  15.855   7.329  13.979 -0.2362 -0.1082  0.1097
13278W        W16498   9.269   9.559  10.873 -0.2502  0.2408 -0.1489
13279W        W16499   6.171   3.784  10.695 -0.3972 -0.2751 -0.0933
13280W        W16500   7.953  18.116  15.650 -0.3095  0.2513 -0.1194
13281W        W16501   3.695   8.858  17.218 -0.1062  0.0639 -0.2260
13282W        W16502   7.468   3.435   3.238 -0.0119 -0.0098  0.0512
13283W        W16503   7.608  16.586  12.555  0.0686  0.2516  0.2423
13284W        W16504   4.820  18.214  17.364 -0.1108  0.1531  0.1885
13285W        W16505  17.945   6.412  11.892 -0.2392  0.0507 -0.0391
13286W        W16506   9.043   0.562  16.229 -0.0970  0.0719 -0.0240
13287W        W16507   2.221   3.350   7.786  0.2956 -0.0295 -0.0518
13288W        W16508   3.770  16.795   1.626  0.0606 -0.0508 -0.2875
13289W        W16509   1.604  10.434  11.432  0.1936 -0.0788 -0.0280
13290W        W16510   5.921  10.783   3.774 -0.0582  0.0100  0.2027
13291W        W16511   3.026   3.109  15.693  0.0330 -0.3553  0.1726
13292W        W16512   3.617   9.725  14.725  0.2125  0.0072 -0.1767
13293W        W16513   7.107  18.059  12.278  0.0590  0.0064 -0.3843
13294W        W16514   7.729   4.867  15.730 -0.0166 -0.1349  0.0948
13295W        W16515   7.507   6.303  11.132 -0.2990 -0.0016  0.0064
13296W        W16516  17.325   7.608   0.815  0.0615  0.3684 -0.4102
13297W        W16517   6.458   8.253   9.525  0.0406  0.3118 -0.0644
13298W        W16518  17.757   8.041  15.217  0.1125  0.1025  0.3012
13299W        W16519   3.276  17.991  14.996  0.1033 -0.1009 -0.1308
13300W        W16520  10.510   0.527  14.845  0.1073 -0.1930  0.1691
13301W        W16521   6.689   5.502   7.744 -0.0172 -0.0380  0.2554
13302W        W16522   5.684   4.990   8.622  0.0687  0.1195  0.0897
13303W        W16523   2.436   4.272  15.170  0.1198 -0.0345 -0.2637
13304W        W16524  12.312   0.234  18.241 -0.1915 -0.0142 -0.1820
13305W        W16525   1.622   3.592  12.973 -0.3468 -0.1922  0.1864
13306W        W16526  11.706  10.217  16.949  0.2551  0.1851 -0.0167
13307W        W16527  16.251   9.353  16.806  0.0857  0.4555 -0.2679
13308W        W16528   3.908  10.109  12.839 -0.1742 -0.0920 -0.2896
13309W        W16529   4.634   4.230   0.401  0.1160  0.1749 -0.1705
13310W        W16530   2.310   1.482  13.411  0.1786 -0.1081  0.0464
13311W        W16531   6.630   6.704  15.139 -0.1575 -0.0091 -0.0306
13312W        W16532   9.295   6.293   8.863 -0.2140 -0.0529 -0.1193
13313W        W16533   7.674   2.404  14.823  0.1010 -0.0472  0.2273
13314W        W16534   9.536  10.460   8.387 -0.0483 -0.1667 -0.0062
13315W        W16535   0.057  17.439  10.755  0.1372  0.0440  0.0865
13316W        W16536   1.966   0.496  13.228  0.1508 -0.0239  0.0142
13317W        W16537   3.717  13.705  14.706 -0.0745 -0.4359 -0.0780
13318W        W16538   7.479   7.959   6.672 -0.1834 -0.0617  0.0373
13319W        W16539   6.257   9.158  12.411  0.0832 -0.4277  0.2320
13320W        W16540   4.174   2.320   7.339 -0.2111  0.1135 -0.0392
13321W        W16541   6.742   5.038  13.962  0.1713  0.1423  0.0068
13322W        W16542   7.767   7.281   3.446 -0.3957 -0.0454  0.4741
13323W        W16543   4.328   3.285   8.572  0.2183  0.0356  0.0009
13324W        W16544  15.559   2.134   8.945 -0.1210 -0.0609  0.1293
13325W        W16545  12.504  17.053  14.780 -0.1183 -0.0470 -0.0427
13326W        W16546   7.223  14.248  16.319 -0.1796 -0.0294  0.1189
13327W        W16547   8.923   7.449   3.951 -0.0664 -0.1464 -0.3743
13328W        W16548   4.197   4.921  11.857 -0.0175  0.0750  0.1001
13329W        W16549  15.905  17.989  14.209  0.1148 -0.0921  0.0188
13330W        W16550   0.619  14.150   1.936 -0.6321 -0.1126 -0.0505
13331W        W16551   1.626  16.237  13.223 -0.0219 -0.2178  0.3094
13332W        W16552  13.352   3.011   1.164  0.0115 -0.0554  0.1331
13333W        W16553   5.252   4.495  17.302  0.2531 -0.0213 -0.3534
13334W        W16554   5.049   5.322  17.755 -0.0895  0.0482  0.1452
13335W        W16555   3.584   8.733  13.247 -0.1519  0.2965  0.0403
13336W        W16556  10.138   1.960  11.922  0.3662  0.3410  0.1901
13337W        W16557   4.084   4.832  16.743  0.0164 -0.0632  0.0382
13338W        W16558   4.491   6.103  12.777  0.0374 -0.1991  0.1611
13339W        W16559   6.887   2.374  14.445  0.0624 -0.0667 -0.1479
13340W        W16560   0.586   2.261   9.358 -0.1431  0.0958  0.2373
13341W        W16561   2.878  12.725   9.148 -0.0202  0.1163 -0.2079
13342W        W16562   8.133   2.692  14.295  0.1035  0.0096 -0.1189
13343W        W16563   1.561  13.411   1.410 -0.0525 -0.1898 -0.4287
13344W        W16564   2.429   5.573   1.536  0.0381 -0.1629  0.0286
13345W        W16565   8.819   3.833  17.022  0.0574 -0.0596 -0.0887
13346W        W16566   6.671   8.530  11.327  0.0771  0.2029 -0.3269
13347W        W16567  14.405  10.087   0.162 -0.0293 -0.2288  0.2990
13348W        W16568  14.353  16.049  10.645  0.0688 -0.2661  0.0600
13349W        W16569  17.539   4.918  10.821  0.1683 -0.2113 -0.2174
13350W        W16570   5.142  17.889  11.131  0.1287  0.2091 -0.2172
13351W        W16571   6.493   6.691   9.307  0.0107 -0.0163 -0.1996
13352W        W16572   4.408   6.942   7.963  0.1138  0.0562  0.1799
13353W        W16573  13.178   7.153  13.889 -0.0078  0.1141  0.1163
13354W        W16574   3.183   3.809  11.933 -0.0442  0.1935  0.0134
13355W        W16575  16.318   2.835   1.024  0.0135  0.3336  0.2141
13356W        W16576   1.786   2.951  12.556  0.2125  0.0659  0.0022
13357W        W16577  15.652  11.339  17.482 -0.1525  0.0471 -0.3523
13358W        W16578   1.582   1.966  13.414  0.0084  0.0817  0.3903
13359W        W16579   8.889   8.671  17.795  0.2682 -0.0786 -0.0191
13360W        W16580  14.536   4.221   7.857 -0.0456 -0.6307  0.0827
13361W        W16581   9.855   5.475  13.594 -0.1768 -0.0870 -0.0124
13362W        W16582   5.044   8.382  10.975  0.4134  0.0724  0.1870
13363W        W16583   7.875   3.931  13.323  0.0717  0.3790 -0.0478
13364W        W16584  11.182   1.956   0.026  0.2169 -0.0640  0.2235
13365W        W16585   5.012  13.668   6.907 -0.1267  0.3634 -0.1184
13366W        W16586  11.223   0.447  17.680  0.0433 -0.0942  0.2500
13367W        W16587   8.969   3.571  16.177 -0.2505 -0.4036 -0.2309
13368W        W16588   5.769   2.129  12.229  0.1686 -0.2651 -0.2221
13369W        W16589   7.422  14.223  15.213  0.0993  0.0044 -0.0406
13370W        W16590  14.152   5.568  17.703 -0.0001  0.0582  0.0909
13371W        W16591   8.603   4.160  13.089 -0.2499  0.0181 -0.0115
13372W        W16592   3.009   0.404  14.466  0.0945 -0.3977 -0.1640
13373W        W16593   8.427   1.431  15.854  0.0232  0.0051 -0.4214
13374W        W16594  17.199   7.762  16.828  0.2457 -0.2963 -0.3329
13375W        W16595   9.893   7.050   9.558 -0.0109  0.0366  0.1703
13376W        W16596  17.105   1.273  11.881 -0.3300  0.0551  0.1284
13377W        W16597   4.439   6.735  12.901  0.1014 -0.0883 -0.0571
13378W        W16598   7.614  13.682   3.612  0.1121  0.0501  0.0818
13379W        W16599   7.674   2.667   0.689  0.1816  0.0604  0.2952
13380W        W16600   8.785  15.143  10.812  0.1310  0.3841 -0.0258
13381W        W16601  17.403  10.792  17.971 -0.3781  0.1995 -0.0081
13382W        W16602  11.747  17.051  11.947 -0.0570 -0.1125 -0.4377
13383W        W16603   7.887  13.836  13.400  0.2979 -0.3331  0.0409
13384W        W16604  17.638  15.514  10.013 -0.3044 -0.1274  0.0039
13385W        W16605   0.908  17.881  10.779 -0.3162  0.1173  0.1592
13386W        W16606   9.356   8.313  13.747  0.1860 -0.4153  0.1962
13387W        W16607   6.041   5.380  14.182 -0.2551  0.0765 -0.0902
13388W        W16608   6.826  12.195  17.370  0.0070 -0.2299  0.3325
13389W        W16609   0.189   2.928   7.988 -0.0502 -0.4231 -0.0477
13390W        W16610   4.943   2.940  12.364  0.0031 -0.3332 -0.2867
13391W        W16611   0.403   4.161  13.361 -0.4789 -0.1879 -0.1931
13392W        W16612   2.800  14.867   1.268 -0.3025 -0.0603  0.0298
13393W        W16613   6.332   5.051  12.528 -0.0467  0.2332 -0.3010
13394W        W16614   3.326   3.339  10.847 -0.1193 -0.2206  0.1631
13395W        W16615   6.172   8.866  15.071  0.0268  0.0967  0.1824
13396W        W16616  12.515   7.010  14.493  0.1768 -0.1833  0.1052
13397W        W16617   2.193   9.333   9.883  0.0141 -0.1314  0.3351
13398W        W16618  17.134  15.996  12.872 -0.2528  0.1204 -0.0767
13399W        W16619   5.271   7.287  15.428 -0.0190 -0.0598 -0.1572
13400W        W16620  18.047   0.089  11.986 -0.0698  0.2184  0.0858
13401W        W16621  11.549   3.919  17.604 -0.1523  0.1248 -0.3207
13402W        W16622  13.810   3.141  12.932  0.0223 -0.1158  0.0750
13403W        W16623   5.374   5.350   1.158  0.1531 -0.0550 -0.3920
13404W        W16624  14.210   5.723  15.581 -0.1108 -0.0050  0.0467
13405W        W16625   4.694  13.531  11.925  0.1721 -0.2961 -0.0197
13406W        W16626  10.235   1.445  10.132  0.0771  0.2756 -0.0218
13407W        W16627   8.203   5.262  10.350 -0.0134  0.1437  0.2663
13408W        W16628   5.231   7.387   9.026 -0.0833 -0.1921 -0.1156
13409W        W16629  10.954  10.773  16.939 -0.1609  0.0064 -0.0745
13410W        W16630   5.558  14.719  11.462  0.0381  0.1393  0.2494
13411W        W16631  11.692  17.757  13.657  0.1189 -0.3635  0.0404
13412W        W16632  17.718   3.398  12.241  0.0519 -0.0936 -0.1227
13413W        W16633   2.940   1.401  11.974  0.1614  0.2241  0.2817
13414W        W16634   1.642   5.643   1.369  0.2471 -0.1072  0.2718
13415W        W16635   4.646  11.010  10.581  0.2214 -0.0349 -0.0109
13416W        W16636   7.511  17.277  16.437  0.0516 -0.0356 -0.3316
13417W        W16637   6.318   2.674   3.088 -0.1638  0.0646 -0.1611
13418W        W16638   4.806   5.336  13.728 -0.1647  0.1358 -0.0026
13419W        W16639  10.358   5.605  14.539  0.1384  0.0535  0.3033
13420W        W16640   7.312   0.192   0.524  0.0080  0.1096  0.0410
13421W        W16641   6.647   0.149  13.358  0.0175  0.4355  0.0409
13422W        W16642   7.553   3.207  12.040  0.0674  0.1442  0.0272
13423W        W16643  13.663   4.332  17.771 -0.0866  0.0278  0.0356
13424W        W16644   6.330   1.389  12.485 -0.0020  0.0026 -0.0392
13425W        W16645  11.708  12.504   7.702 -0.0150 -0.0104 -0.1058
13426W        W16646   0.046  16.666  14.859 -0.3164  0.0710  0.0400
13427W        W16647  13.947  10.184  14.860 -0.0786  0.3717 -0.2505
13428W        W16648   7.027  14.158  14.400  0.0013  0.1964 -0.0400
13429W        W16649   1.919  11.983  13.088 -0.0133 -0.0214 -0.0599
13430W        W16650   4.738   8.569  16.971 -0.1662  0.1334 -0.0576
13431W        W16651  13.567   1.198   2.692  0.2558  0.0282 -0.1552
13432W        W16652   3.615   4.129  11.960  0.0051 -0.1619 -0.0969
13433W        W16653   4.341   8.276  16.824  0.1346  0.0913  0.0332
13434W        W16654   5.727   0.659  12.261 -0.0759 -0.0770 -0.2589
13435W        W16655   4.939   0.410  14.125 -0.1246 -0.0267  0.1646
13436W        W16656   2.566   8.994  12.380  0.2337  0.1422  0.3541
13437W        W16657   0.070  12.519  14.118 -0.1186 -0.1834  0.0194
13438W        W16658   5.492  12.408  15.812 -0.0436 -0.0321 -0.0979
13439W        W16659   2.458   2.093  17.497 -0.2071  0.2577  0.0410
13440W        W16660  14.591  17.318  13.963  0.0705  0.2679 -0.1355
13441W        W16661   7.336  14.544   0.774  0.0813 -0.2008 -0.4514
13442W        W16662   6.655   4.291  11.535  0.1818  0.4176 -0.3233
13443W        W16663   8.699   8.936  17.224 -0.2570  0.0110 -0.1631
13444W        W16664   7.302  10.703   2.270 -0.1019  0.1706  0.0701
13445W        W16665   0.332   1.773  15.704  0.0306  0.0149 -0.1158
13446W        W16666   4.359   6.434  18.190 -0.0329 -0.2077 -0.3107
13447W        W16667   4.988   7.572   3.626 -0.0487 -0.1678  0.1835
13448W        W16668   4.426   0.591   0.728 -0.2041 -0.2406 -0.1028
13449W        W16669   3.703  10.492  18.095  0.0957 -0.1524 -0.2100
13450W        W16670  11.634   3.711   0.865 -0.0429 -0.0322  0.4825
13451W        W16671   6.734   0.315   1.166 -0.0814 -0.2109  0.1107
13452W        W16672   2.050   3.039   1.903 -0.0175  0.3999 -0.2342
13453W        W16673   0.531   6.283   1.441  0.1524 -0.0452 -0.1363
13454W        W16674   7.800   1.837   6.511 -0.0814 -0.1469  0.0663
13455W        W16675   3.565   9.800   6.048 -0.2054  0.1842  0.0625
13456W        W16676   7.957   6.535   6.409  0.0522  0.0221  0.0250
13457W        W16677  15.894   0.784   2.955 -0.0675  0.0179 -0.3053
13458W        W16678   3.010   5.741  12.256 -0.0405  0.2476  0.1200
13459W        W16679   4.994  11.131  10.940  0.1206  0.0586  0.0460
13460W        W16680   4.018   1.936   1.817  0.1035 -0.2304  0.2278
13461W        W16681   5.508   4.504  18.187  0.1310 -0.0586 -0.5566
13462W        W16682   6.400   5.412   0.861  0.1609  0.2493 -0.3627
13463W        W16683   7.625   2.548   4.338 -0.0708  0.2355 -0.0122
13464W        W16684   9.264   1.988   1.395 -0.3989  0.0005 -0.0147
13465W        W16685   1.318  16.754  18.116 -0.1412  0.5467 -0.3176
13466W        W16686   9.480   9.544   2.441 -0.1152 -0.1942  0.0304
13467W        W16687   7.297   1.385   0.253 -0.2584 -0.0824  0.2281
13468W        W16688  10.847  17.557  16.670  0.3024  0.2761 -0.0039
13469W        W16689   1.826   6.065   0.508  0.0803 -0.1069  0.1490
13470W        W16690   9.305  14.864  12.631 -0.0217 -0.2036 -0.2084
13471W        W16691   5.475   7.347  13.959  0.0404  0.1338  0.3757
13472W        W16692   8.577   2.516   2.528 -0.2712  0.1140 -0.2239
13473W        W16693   3.718   2.533   0.571  0.3310 -0.2394  0.1921
13474W        W16694   9.445   0.076  12.265 -0.2058  0.1164  0.2332
13475W        W16695  11.000   8.049   4.957 -0.2095 -0.2317  0.3486
13476W        W16696  18.141   4.141   2.248  0.0308  0.0036 -0.0491
13477W        W16697   7.691   2.395   1.546 -0.1509 -0.1318 -0.1022
13478W        W16698  13.187   0.115  10.045 -0.1250 -0.2518  0.0066
13479W        W16699   7.600   7.929  10.656  0.0750  0.0041 -0.2348
13480W        W16700   5.398   3.570   1.994  0.1745 -0.2697 -0.0792
13481W        W16701   2.111   8.170  17.920 -0.0460 -0.2102 -0.1408
13482W        W16702   3.409   2.997   4.408  0.2217  0.4120 -0.1112
13483W        W16703   6.211   2.879  17.912 -0.0710 -0.2218 -0.1756
13484W        W16704  11.799   6.671   7.107  0.0898 -0.0914  0.1671
13485W        W16705   6.412   8.584   3.899 -0.1236  0.0003 -0.1928
13486W        W16706  11.202   1.966  13.593  0.0185 -0.0630  0.4464
13487W        W16707   5.140   2.676  17.703 -0.2941 -0.0784 -0.0811
13488W        W16708   6.418   4.085  13.949  0.2228  0.1015 -0.1257
13489W        W16709   0.802   6.214  18.097 -0.1615 -0.2195 -0.1388
13490W        W16710  17.289  17.591   0.164  0.0116 -0.0204  0.1194
13491W        W16711   4.267   8.205  15.836 -0.1935 -0.2105 -0.2181
13492W        W16712  14.573   4.341  12.107 -0.2850 -0.3681  0.1516
13493W        W16713   3.155  13.149  11.909 -0.0627 -0.2049  0.2060
13494W        W16714  12.118   6.859  10.781  0.0678 -0.4171 -0.0631
13495W        W16715   1.974   6.438   3.157 -0.1159 -0.0803  0.2686
13496W        W16716   3.025   3.494   2.843  0.0300 -0.1173  0.0410
13497W        W16717   0.109   4.956  14.174 -0.2092  0.1063  0.4792
13498W        W16718  14.279   5.458   0.222 -0.3000 -0.0146 -0.1203
13499W        W16719  16.479   3.512   1.951  0.0859  0.0001  0.0246
13500W        W16720   4.715   5.738  11.427 -0.0713  0.3103 -0.0785
13501W        W16721  11.793  15.098  16.996  0.1623  0.0118 -0.1370
13502W        W16722   5.093   5.731   1.023  0.0834  0.2284 -0.1135
13503W        W16723   8.852   6.684  17.518 -0.1190 -0.0444 -0.0528
13504W        W16724  10.269   2.159   3.404  0.4101 -0.1671 -0.0377
13505W        W16725   6.867   1.302  17.145 -0.0962 -0.1147 -0.3916
13506W        W16726   3.070   8.603   1.639  0.1165  0.0672  0.0422
13507W        W16727   5.121   3.289   1.210 -0.1250 -0.2847 -0.0316
13508W        W16728  17.021   9.335  14.707 -0.0234 -0.0616 -0.0294
13509W        W16729   9.122  17.371  11.201 -0.1299 -0.2912  0.0248
13510W        W16730   2.446   1.880  15.383  0.1706  0.0878 -0.3011
13511W        W16731   6.911   0.170  11.611  0.2026 -0.0002 -0.0680
13512W        W16732   1.792   8.991   1.820 -0.3057 -0.0945 -0.0036
13513W        W16733   8.529  12.859  10.720 -0.1710  0.0309 -0.3147
13514W        W16734   0.574  14.173   9.599  0.0913 -0.2509 -0.1117
13515W        W16735  11.275   5.336  16.771 -0.1669 -0.0204  0.0286
13516W        W16736   5.287   9.850   6.609  0.0809 -0.1779  0.0992
13517W        W16737   6.548   1.509  17.526 -0.0735  0.0865 -0.0412
13518W        W16738   7.248  11.109   8.307 -0.0389 -0.1326  0.0557
13519W        W16739   1.349   0.140   7.021 -0.1768  0.3745 -0.1168
13520W        W16740  14.049   7.775  14.714  0.0762  0.1948  0.1025
13521W        W16741   8.843   0.803   0.014 -0.1312 -0.3240 -0.2388
13522W        W16742   4.665   9.086  17.959 -0.1860 -0.2246 -0.0681
13523W        W16743   8.870  13.536  18.185 -0.1083 -0.0955 -0.1811
13524W        W16744   8.662   8.833  15.781  0.1273 -0.2299 -0.1319
13525W        W16745   6.075   8.184  15.945 -0.1290 -0.0653 -0.2422
13526W        W16746   9.067   0.204   1.639  0.0385  0.1226  0.1169
13527W        W16747  10.913   0.377   9.189  0.2565  0.0439 -0.0667
13528W        W16748   7.060   8.678   2.278 -0.0381 -0.0082 -0.0440
13529W        W16749   1.043  10.739  15.529 -0.2166  0.1649  0.1884
13530W        W16750   7.181   0.524  15.870 -0.3217 -0.4307 -0.1376
13531W        W16751   6.932   1.990   8.386 -0.0370 -0.0423 -0.2701
13532W        W16752   3.195   0.800  15.719  0.2828  0.0761 -0.1740
13533W        W16753   3.464   2.988   0.459  0.0546 -0.0363 -0.1421
13534W        W16754  13.290   4.301   3.144 -0.2659  0.3382  0.3248
13535W        W16755   8.046   2.367   2.001  0.1167  0.1226 -0.0861
13536W        W16756   4.936   1.174  11.739 -0.1630 -0.0448 -0.3914
13537W        W16757   4.976   5.686   4.785 -0.0479 -0.3986 -0.2024
13538W        W16758   3.382   7.574   2.787  0.1765 -0.3006 -0.1836
13539W        W16759   1.343  16.506  15.865 -0.1553  0.1344  0.1218
13540W        W16760   2.952   2.463   0.997 -0.0393  0.2039  0.2526
13541W        W16761   3.490   3.626   7.165 -0.0687  0.3026  0.2849
13542W        W16762   7.078   7.940   9.346 -0.2140  0.0086 -0.1693
13543W        W16763   5.500  12.916   0.605 -0.0744  0.1057 -0.0317
13544W        W16764   6.069   7.652  15.994 -0.1016  0.1669 -0.1646
13545W        W16765   8.781  15.061  16.573 -0.0858  0.0335  0.1922
13546W        W16766   4.705  18.017  18.036 -0.0435 -0.0057  0.0750
13547W        W16767   8.172   6.334   7.341 -0.1127  0.1759  0.0787
13548W        W16768   1.002   2.546   9.205 -0.0214  0.1069 -0.3516
13549W        W16769  13.194   0.979   9.068 -0.1597 -0.1074 -0.1349
13550W        W16770  12.425   3.367  17.409  0.2974 -0.2470 -0.2348
13551W        W16771   4.323   4.207  17.470  0.0567  0.0803 -0.2674
13552W        W16772  11.243  11.025   0.960 -0.1970 -0.3104  0.1530
13553W        W16773  10.306   4.188   2.064  0.2297  0.2351  0.0697
13554W        W16774   5.090   7.374   1.275 -0.1018 -0.2029 -0.0291
13555W        W16775  17.666  11.365  13.439  0.3794  0.3382 -0.0644
13556W        W16776   9.258   5.934   8.288 -0.1606  0.1195  0.1065
13557W        W16777   2.149  11.013   0.795  0.0740  0.4193 -0.0943
13558W        W16778  10.963   9.420   1.597  0.0135  0.2861  0.0032
13559W        W16779   4.683   8.335   1.688 -0.1493 -0.1934 -0.2772
13560W        W16780   4.145   3.071  11.276 -0.0021 -0.1516  0.0675
13561W        W16781  17.575   9.057  15.727  0.1366  0.0024  0.0599
13562W        W16782   3.085   8.503  10.501  0.2031  0.3313 -0.0615
13563W        W16783   6.267   6.502   0.656 -0.1989 -0.5816 -0.0511
13564W        W16784   6.802   0.341  18.014  0.0137  0.0266  0.0990
13565W        W16785   0.424  11.537   5.712  0.0282  0.1822 -0.2040
13566W        W16786  11.244   6.224  15.004  0.0431  0.2041  0.3445
13567W        W16787   3.809   4.862   3.634  0.1735  0.2169 -0.1014
13568W        W16788  16.333   9.460  14.203 -0.1036  0.4477 -0.0623
13569W        W16789  11.471   3.115  10.245  0.1760 -0.1008  0.0827
13570W        W16790   9.399  10.879  12.918 -0.0935  0.0691 -0.1639
13571W        W16791   7.153   8.641  17.205  0.0367 -0.1985 -0.0199
13572W        W16792   5.471   1.796  13.496 -0.2453  0.1236 -0.2569
13573W        W16793   4.089   7.498  15.752 -0.4305 -0.1731  0.1710
13574W        W16794   6.357   6.712   0.209 -0.1106  0.0707  0.2727
13575W        W16795   5.344   4.472   3.275  0.1028 -0.2619  0.0379
13576W        W16796   8.847   2.863   2.362  0.1534  0.0435  0.0503
13577W        W16797  18.037   7.578   5.048  0.1417  0.2438 -0.0385
13578W        W16798   4.828  14.063  13.052  0.2125  0.0741  0.2261
13579W        W16799   4.970  13.920   4.187 -0.0416  0.2475  0.1230
13580W        W16800   7.914   7.416  13.052  0.4072 -0.1731  0.1207
13581W        W16801  18.215   1.032  10.025  0.2045  0.1414  0.1078
13582W        W16802  17.657   1.853  17.483 -0.1031 -0.6077 -0.0764
13583W        W16803   2.411   2.781  15.980  0.2354  0.1192  0.1448
13584W        W16804   5.789   1.746   6.354 -0.2020  0.1200 -0.1780
13585W        W16805   9.170   0.102  17.709  0.1126  0.1199 -0.1343
13586W        W16806   2.080   7.096  16.043 -0.1124  0.0953 -0.3402
13587W        W16807   6.976   4.638  12.394 -0.0790  0.1241 -0.1424
13588W        W16808   7.249   3.299  13.166 -0.2836  0.0034  0.4288
13589W        W16809   4.528  13.461   7.528 -0.1066 -0.1021 -0.2480
13590W        W16810   2.611   3.370   2.433 -0.1609 -0.3270 -0.1199
13591W        W16811  17.285   8.520  17.844  0.5085 -0.1312 -0.1535
13592W        W16812   1.255   6.755   0.174 -0.1969 -0.0198 -0.0619
13593W        W16813   6.050  14.156   4.728 -0.2094  0.2107  0.1920
13594W        W16814   4.314   9.868  13.020  0.0947  0.3381  0.1080
13595W        W16815   5.353  11.155   9.239  0.0873  0.1308 -0.1510
13596W        W16816  10.110   0.134   8.792  0.2806  0.0750  0.3542
13597W        W16817   3.286   0.464  15.310 -0.0118 -0.3379 -0.0557
13598W        W16818   6.510   5.685  11.804  0.1869  0.0702 -0.2106
13599W        W16819   8.185   3.923  15.982 -0.0811  0.1188  0.1520
13600W        W16820   7.535   8.674  14.001 -0.0765 -0.0938  0.0908
13601W        W16821   7.720   4.969  10.215  0.0478  0.1027 -0.2828
13602W        W16822   6.094   2.070  11.776 -0.0094 -0.1043  0.4012
13603W        W16823   6.103  16.959   3.962 -0.2745  0.0169 -0.0139
13604W        W16824   4.294   0.045  18.051 -0.0152  0.0012 -0.0819
13605W        W16825   4.586  10.457   0.638 -0.2038  0.3357 -0.2917
13606W        W16826   4.892  11.105  13.493  0.5366  0.0099  0.1111
13607W        W16827   0.975   8.703   9.519 -0.0110  0.1462 -0.3190
13608W        W16828   5.199   2.634  16.813  0.0815  0.0357 -0.1317
13609W        W16829  10.035   3.758  12.143  0.1979  0.0290  0.3049
13610W        W16830   7.076   4.379   5.153  0.1244  0.0475  0.1160
13611W        W16831   3.439  16.801   8.576  0.0178  0.2455 -0.1485
13612W        W16832  15.506   1.741  15.718  0.1201  0.0918  0.2793
13613W        W16833   8.141  17.136   5.671  0.2252 -0.0008 -0.0187
13614W        W16834   1.958   7.696   4.833  0.0121  0.0863 -0.1815
13615W        W16835  11.198  17.030  12.825  0.0576 -0.1511 -0.2379
13616W        W16836   1.351   3.381  10.547 -0.2785  0.0379  0.0691
13617W        W16837  15.900   8.741   3.599  0.0907 -0.0560 -0.1799
13618W        W16838   4.955   8.895   3.378 -0.1814  0.1101  0.1172
13619W        W16839   3.363   5.529   9.721  0.1544  0.4903  0.3529
13620W        W16840   2.343   9.547  15.193  0.0218  0.0726 -0.2534
13621W        W16841  10.144   5.054  17.081 -0.2959 -0.0433 -0.1991
13622W        W16842   5.121  17.468   1.960 -0.1897 -0.0438 -0.0254
13623W        W16843   4.173   9.168   3.128 -0.0235 -0.0361 -0.0067
13624W        W16844   2.657  16.479   0.423  0.0125 -0.4298 -0.1168
13625W        W16845   5.069   0.488  15.973  0.1037  0.1027  0.1169
13626W        W16846   2.179  12.195  13.639  0.0351 -0.0353  0.0098
13627W        W16847   2.773   6.162  10.780  0.0118  0.1631 -0.1197
13628W        W16848  12.682   7.535   0.880 -0.0925  0.2870 -0.0237
13629W        W16849   2.146   5.275  18.091 -0.1091 -0.3559 -0.0481
13630W        W16850   6.858   0.890   7.019  0.3803  0.2790  0.4961
13631W        W16851  10.670   2.400  12.642  0.1080 -0.0240 -0.1439
13632W        W16852  17.454   3.164  14.307 -0.2981 -0.2168 -0.1235
13633W        W16853   2.419   6.506  11.828  0.0546  0.0292  0.0477
13634W        W16854   6.420   9.546  13.845  0.1502 -0.1359 -0.0903
13635W        W16855  12.539   5.840  16.525 -0.1530  0.2245 -0.0312
13636W        W16856  16.923   4.662  17.180 -0.1245  0.2132 -0.1704
13637W        W16857  15.794  13.881   2.475  0.0143 -0.1685  0.2851
13638W        W16858   0.760   5.745   2.156  0.0033 -0.0715  0.2348
13639W        W16859   6.416  17.578   0.374 -0.0984  0.2995 -0.1614
13640W        W16860   4.414   2.224  16.577 -0.4683 -0.0799 -0.1100
13641W        W16861   6.590  10.338  17.602  0.0685  0.0245 -0.0677
13642W        W16862   4.772   5.620   5.225 -0.1928  0.0863 -0.0569
13643W        W16863   2.022   9.860  13.864 -0.0207 -0.1917 -0.4123
13644W        W16864   6.309   5.278  11.618 -0.1468  0.1696  0.2465
13645W        W16865   0.017   5.599   4.330  0.0009  0.1064  0.0768
13646W        W16866   2.741   3.922  17.907  0.0251  0.2141  0.0053
13647W        W16867   3.401   2.396   9.717 -0.0354 -0.0756 -0.2316
13648W        W16868   7.178   2.783  12.282  0.0873  0.1395 -0.1414
13649W        W16869   4.864  10.491  18.039 -0.1243  0.3889 -0.3020
13650W        W16870   5.453   3.591  16.709  0.1490  0.0456  0.1161
13651W        W16871   6.623   2.020   2.062  0.1809 -0.0477 -0.2248
13652W        W16872   3.725   5.642   1.544  0.1296  0.1911  0.0972
13653W        W16873   6.634   4.897   3.075  0.0365  0.0605  0.0822
13654W        W16874  14.384   5.269   8.814 -0.0831  0.1175  0.0452
13655W        W16875   6.096  12.922   9.705 -0.1458 -0.0023 -0.3360
13656W        W16876   4.359   6.118  16.791 -0.1014 -0.4315 -0.1546
13657W        W16877   2.315   4.244   1.460 -0.1263  0.0920 -0.0250
13658W        W16878   9.316   2.929  15.337  0.0026 -0.1448 -0.2020
13659W        W16879   6.054  17.535   3.858 -0.0617 -0.2148  0.1524
13660W        W16880   4.892   6.244  15.037 -0.2169 -0.0164  0.1783
13661W        W16881   5.632   7.668  12.538 -0.0757  0.3472  0.2662
13662W        W16882   6.647  10.975   2.873 -0.1868  0.2671  0.0433
13663W        W16883  16.275   5.915  14.728  0.1790  0.0535  0.1196
13664W        W16884   7.517  15.935   7.261 -0.0984 -0.0281 -0.1645
13665W        W16885   8.054  14.850   4.225 -0.1203 -0.0151 -0.1059
13666W        W16886   8.965   5.808  13.085  0.1530  0.0701 -0.1079
13667W        W16887   4.971   2.089  16.787  0.2922 -0.0436 -0.1019
13668W        W16888   0.486  10.142  18.127 -0.0578  0.0129 -0.1647
13669W        W16889   0.944   5.262   1.442  0.1269  0.2198 -0.2027
13670W        W16890  17.250   7.099  16.391 -0.2255 -0.1484  0.0578
13671W        W16891   6.941   8.528  15.684  0.0989 -0.2152  0.4450
13672W        W16892  16.883   7.297  16.011  0.0801  0.2078  0.0219
13673W        W16893  17.959   7.986  16.721  0.4077  0.1336  0.3177
13674W        W16894   4.068  14.687   2.358 -0.0819 -0.2313  0.0770
13675W        W16895  10.931   9.518  14.365 -0.1727 -0.2804 -0.0072
13676W        W16896   3.252   3.755  16.566  0.4538  0.0390  0.1338
13677W        W16897   2.803  12.521  15.447 -0.0945  0.0042  0.1616
13678W        W16898   7.975  14.793   2.393  0.0854  0.0834 -0.1631
13679W        W16899  12.172   0.560   1.380  0.2438  0.0675  0.0222
13680W        W16900   8.258   7.246   9.421 -0.2763 -0.3123  0.1017
13681W        W16901  10.516   9.687  16.416  0.0572  0.1028 -0.3286
13682W        W16902   6.011  16.117  16.499 -0.0291  0.0781 -0.1254
13683W        W16903  16.263   3.059   3.211 -0.4046 -0.3491 -0.0733
13684W        W16904   5.037   6.202  16.023 -0.0518  0.1411 -0.1097
13685W        W16905   0.553  16.689  15.054 -0.0966 -0.4068  0.0383
13686W        W16906   3.041   3.921  13.277  0.2216  0.2070 -0.0930
13687W        W16907   7.759   9.202   4.673 -0.2220 -0.1629  0.2999
13688W        W16908  10.634   8.777  10.451  0.3752 -0.1457 -0.1884
13689W        W16909  12.573   4.950   7.021 -0.0345  0.1902  0.2960
13690W        W16910   8.942   8.645   4.109 -0.5970 -0.1105 -0.1150
13691W        W16911  18.212   2.579  15.930  0.1864  0.0957  0.1085
13692W        W16912   3.230   3.626  18.000 -0.0303 -0.0684  0.1283
13693W        W16913   4.558   5.913  17.338  0.1390 -0.0729  0.1894
13694W        W16914  16.505   4.113   8.812 -0.0348  0.1209  0.0070
13695W        W16915   3.262  14.285  16.810  0.1705 -0.0860 -0.0476
13696W        W16916   5.552   9.109   7.283 -0.1005 -0.2620 -0.2137
13697W        W16917   0.639   7.257  14.332 -0.0909 -0.1327  0.0872
13698W        W16918   4.300   5.379  18.077  0.0925  0.0276  0.1209
13699W        W16919  15.612   4.188  15.948 -0.4290  0.0705 -0.0977
13700W        W16920   8.983  11.353   3.966  0.0646 -0.1472 -0.1686
13701W        W16921   1.316   5.754   1.758 -0.1861 -0.1146  0.1491
13702W        W16922  10.562   6.961   2.300  0.2371  0.1704  0.3471
13703W        W16923  14.525   2.115  13.785 -0.0348  0.1040  0.0777
13704W        W16924   4.256   4.498   4.228 -0.0005 -0.0755  0.1762
13705W        W16925   1.193  11.675   8.270 -0.0473 -0.0566  0.3642
13706W        W16926   6.021   3.025   2.557  0.2903  0.0766 -0.1648
13707W        W16927   3.175   2.586   0.485  0.1357 -0.0182 -0.0083
13708W        W16928   1.306   5.126  13.050  0.3301  0.2604 -0.0042
13709W        W16929   9.559   1.918  13.760  0.1090  0.2153  0.0030
13710W        W16930   6.266   5.732   7.610  0.0365  0.2386 -0.2003
13711W        W16931   0.212  11.139   2.391 -0.0093  0.0708  0.2035
13712W        W16932   2.895   9.734  12.964 -0.1130 -0.0330  0.0875
13713W        W16933   1.869   7.452  16.898 -0.0420  0.1940  0.2784
13714W        W16934   9.460   9.394  15.272  0.2667  0.1687  0.0588
13715W        W16935   3.119   1.260  15.834 -0.3948  0.1855  0.0669
13716W        W16936   5.385   1.014  12.117  0.0828 -0.0739  0.0856
13717W        W16937   5.719   9.306   3.082 -0.4312  0.1075 -0.0402
13718W        W16938   7.867   6.041   0.048  0.0040  0.1509 -0.0320
13719W        W16939   3.873  11.372  14.879 -0.2310  0.2004  0.1174
13720W        W16940  11.195   6.276   3.253 -0.1228 -0.1132  0.0975
13721W        W16941   4.223  17.322  10.913  0.0573  0.1509  0.1478
13722W        W16942   7.099   7.417   2.821 -0.0488 -0.1712  0.2536
13723W        W16943   9.497  15.593   0.068 -0.1154 -0.0754  0.1189
13724W        W16944  16.580   2.779   0.555 -0.3038  0.0613  0.1205
13725W        W16945  11.976   6.445   1.849  0.0049 -0.1060 -0.0359
13726W        W16946  18.111   3.253   0.046  0.1366 -0.0124 -0.0527
13727W        W16947  10.167   2.997  17.019  0.0857  0.3978  0.0519
13728W        W16948   8.646   1.370  16.391 -0.0777 -0.0056 -0.3431
13729W        W16949   1.335   6.339  11.709  0.2311 -0.2219 -0.2213
13730W        W16950   1.609   8.967  17.793 -0.2546  0.2201 -0.0137
13731W        W16951   8.029  12.002  13.874 -0.0723 -0.1913  0.1009
13732W        W16952   8.851  16.866  14.715  0.2312  0.2133 -0.0485
13733W        W16953   1.819   7.330  18.010  0.0079 -0.2410  0.0842
13734W        W16954   5.451   2.697   1.098 -0.1987  0.2092 -0.3608
13735W        W16955  12.211   6.509   2.265 -0.3478 -0.1528 -0.0281
13736W        W16956   4.638   9.415  13.117 -0.2154 -0.3214  0.0990
13737W        W16957  17.727  11.721   1.672 -0.1184  0.2965 -0.0649
13738W        W16958  15.029   9.163  16.890  0.0574 -0.1636  0.1982
13739W        W16959   6.722  16.728   6.938 -0.1491  0.0782  0.2225
13740W        W16960   4.996   7.697   0.453 -0.1267 -0.0848 -0.0986
13741W        W16961   6.789   5.769  15.787  0.0467 -0.0460  0.3055
13742W        W16962  11.012   9.842   0.336  0.2936 -0.1344 -0.1296
13743W        W16963   5.632   0.255   5.027 -0.1096 -0.1526  0.2256
13744W        W16964   3.403   7.169  15.226 -0.2975 -0.1632 -0.2417
13745W        W16965   4.231   3.129   3.890  0.0420 -0.2344  0.1051
13746W        W16966  12.723   2.502   5.893  0.2012  0.3195 -0.1905
13747W        W16967   6.007   0.064  15.516  0.0671  0.0904 -0.1941
13748W        W16968   8.956   2.043  17.701  0.1597 -0.1572  0.2155
13749W        W16969  10.344  12.734  18.026  0.2404  0.0591  0.1760
13750W        W16970   0.845   2.564   2.239  0.5751  0.2175 -0.1317
13751W        W16971   6.279   6.476   4.355  0.2982  0.1002  0.0599
13752W        W16972   6.753   6.105  10.287 -0.0270  0.0755  0.1176
13753W        W16973   1.072   1.148  14.365  0.1227  0.0907  0.1564
13754W        W16974   3.679   6.708  16.379  0.2191  0.1581  0.1617
13755W        W16975   6.133   6.030  13.442 -0.3336  0.1114 -0.0933
13756W        W16976   4.579   7.566   0.754 -0.2850  0.2830  0.1691
13757W        W16977   0.777  16.818  18.157 -0.2504 -0.1845  0.3269
13758W        W16978   8.858   5.741   4.662  0.2985  0.0178 -0.3628
13759W        W16979   9.658  11.947  14.081 -0.4432 -0.1545  0.3634
13760W        W16980   7.083  13.952   2.282 -0.1334  0.2759  0.0111
13761W        W16981   4.116   6.173  17.529 -0.0385 -0.0819 -0.2621
13762W        W16982  17.546   1.857  14.844 -0.1740 -0.0951 -0.0667
13763W        W16983   9.040   3.743  13.328  0.1075  0.0195  0.0989
13764W        W16984   5.221   0.556  17.785 -0.0383  0.2715 -0.1361
13765W        W16985   6.979   8.160  17.233  0.0689 -0.3052 -0.2049
13766W        W16986  16.944   7.429  16.633 -0.0746 -0.3813 -0.3547
13767W        W16987  17.294   7.294  14.094  0.3600 -0.0968 -0.0031
13768W        W16988  12.933   8.103   1.051  0.0223 -0.3716  0.1736
13769W        W16989  15.637   3.582   7.629  0.2792  0.1461 -0.0610
13770W        W16990  17.990   1.889   2.939  0.2307 -0.1662  0.1087
13771W        W16991   2.331   3.815  18.199  0.0499 -0.0873  0.0844
13772W        W16992   4.692   9.937  17.547  0.0291 -0.1267  0.0650
13773W        W16993   3.772   4.655  16.359  0.1368 -0.0791 -0.1925
13774W        W16994   7.683   1.963   2.240  0.1140  0.0576 -0.2069
13775W        W16995   4.282   7.739  16.168  0.2143 -0.0090  0.1317
13776W        W16996   3.069  11.795   9.716 -0.2369 -0.0804 -0.0822
13777W        W16997  15.418   2.327  14.859  0.1391  0.1514 -0.1757
13778W        W16998   5.734   1.818  12.844 -0.1909 -0.1665 -0.0716
13779W        W16999   2.551   1.168  17.401 -0.0010  0.0257  0.2731
13780W        W17000   0.936   3.185   1.497 -0.0154  0.3121  0.2317
13781W        W17001   4.717   1.004  14.474  0.0961 -0.0408 -0.0063
13782W        W17002  10.891   7.703   4.505 -0.1091  0.2618 -0.0128
13783W        W17003  17.937  14.832   2.394 -0.1185  0.1804 -0.0196
13784W        W17004   8.235   1.642  18.148  0.0947  0.0201  0.0976
13785W        W17005   7.722   1.319  16.663 -0.0639  0.0891 -0.1540
13786W        W17006   2.908  14.485  17.763  0.4849  0.1351 -0.0010
13787W        W17007   6.078   7.852  15.514 -0.0985  0.2005  0.2307
13788W        W17008   3.829   3.000  15.002  0.0937  0.0690  0.0523
13789W        W17009   5.471   4.562   8.621  0.2675 -0.0871  0.1250
13790W        W17010   9.839   5.444   0.305  0.3020  0.0429  0.3523
13791W        W17011   3.451   5.283  14.299 -0.0598 -0.2569  0.2823
13792W        W17012   7.082  17.637  14.900  0.0862  0.0660  0.0687
13793W        W17013   9.259   7.566  17.032 -0.2060  0.1510 -0.0242
13794W        W17014   2.517   2.431  11.124  0.2979 -0.2803  0.0984
13795W        W17015   2.439   1.949   8.453 -0.0835 -0.1126  0.0541
13796W        W17016   6.833  10.562  15.252 -0.1383 -0.2379  0.1321
13797W        W17017   3.457   7.886  15.690  0.0326  0.2044  0.2159
13798W        W17018   9.601   2.128  16.990 -0.0740 -0.1240  0.2515
13799W        W17019   1.923   6.432  18.131  0.2437  0.0751  0.3019
13800W        W17020   4.362   2.104   4.997 -0.0861 -0.0283 -0.3448
13801W        W17021   2.572  10.880  17.106  0.0252  0.1503  0.4252
13802W        W17022   9.794   2.961  16.681 -0.5819  0.2711  0.2435
13803W        W17023   8.403   5.479  15.291 -0.0984 -0.1294  0.0243
13804W        W17024   9.086   0.022  18.228  0.1681  0.1608  0.1575
13805W        W17025   3.638  11.270  11.958 -0.3483  0.0522  0.0153
13806W        W17026  17.604  14.044  17.419 -0.0055 -0.2053 -0.1885
13807W        W17027   9.917   6.776   1.479  0.0618  0.0617  0.0143
13808W        W17028  17.425   9.811  15.446 -0.1994  0.0707  0.1263
13809W        W17029  12.658  12.164  17.262 -0.0822  0.3959 -0.1400
13810W        W17030   3.657  16.309  12.997  0.0948  0.1956  0.1979
13811W        W17031   6.676   4.424  13.025  0.1325 -0.2300 -0.1774
13812W        W17032   4.928   3.796   0.380  0.0230  0.0460 -0.1753
13813W        W17033  14.658   3.162  16.915 -0.1635  0.1319 -0.1444
13814W        W17034   8.147   2.241   3.504  0.0761 -0.0148  0.2022
13815W        W17035   6.393  13.496  17.779  0.0987  0.0738 -0.0285
13816W        W17036   6.324  11.442   6.133  0.0056  0.3176  0.1978
13817W        W17037   2.037   6.515  12.391 -0.2088 -0.1066  0.0435
13818W        W17038   3.239   6.152  12.057  0.1749 -0.1335  0.0351
13819W        W17039  17.225  11.127   4.727  0.2221  0.1360  0.2034
13820W        W17040  10.024   8.090  16.909  0.0572 -0.0690  0.2770
13821W        W17041  10.461  12.223  13.858  0.0994  0.1115 -0.2131
13822W        W17042   9.100  10.961   1.851  0.3099  0.3131 -0.2349
13823W        W17043  13.074  10.469   3.408  0.2038 -0.0962 -0.0220
13824W        W17044   3.421  10.546   2.013 -0.2174  0.5085  0.0851
13825W        W17045   6.519   4.578   2.167  0.1022  0.0645  0.1605
13826W        W17046   5.266  11.408   4.058 -0.1055 -0.1423  0.3483
13827W        W17047  11.753   3.710   2.224  0.2440  0.3413  0.2929
13828W        W17048   1.443   7.155   4.078 -0.3325  0.0639 -0.0582
13829W        W17049   5.338   6.135   4.696  0.2007 -0.0254  0.3222
13830W        W17050   3.003   7.416   4.336  0.0964 -0.2215 -0.0644
13831W        W17051   9.596  12.795   1.878 -0.0098  0.2209  0.2155
13832W        W17052   0.284   0.154   5.051 -0.2157 -0.1689  0.3279
13833W        W17053  13.845  14.722   5.921 -0.2228  0.1324 -0.0403
13834W        W17054   6.754   6.785   1.094  0.1146 -0.0920 -0.0429
13835W        W17055   2.154   7.546  11.615 -0.1011  0.0380 -0.0920
13836W        W17056   3.326   4.433  14.840  0.2979  0.0450  0.0574
13837W        W17057   4.177  12.079  17.841 -0.0293  0.1878  0.3188
13838W        W17058   6.111  10.285  14.246 -0.1246 -0.1512  0.1362
13839W        W17059   6.167  13.539  17.350  0.0264 -0.2704 -0.2231
13840W        W17060   1.638  11.684  12.618  0.2863  0.0802  0.2821
13841W        W17061   8.452  13.279   1.138  0.3308  0.0701  0.1329
13842W        W17062   5.111   5.692   0.346 -0.3648  0.0232  0.0056
13843W        W17063  15.421   9.938  17.553  0.4852 -0.0101 -0.0196
13844W        W17064   8.176  10.469   8.276 -0.4205 -0.1430  0.1702
13845W        W17065   5.551   6.044   8.559 -0.1939 -0.1944  0.0304
13846W        W17066   9.689   9.311   7.647 -0.1547  0.0065 -0.1893
13847W        W17067  10.428  10.202   0.394  0.1263  0.2871 -0.1058
13848W        W17068  13.879  11.381   5.553  0.3008  0.0928 -0.0540
13849W        W17069   4.304   7.778   2.420 -0.0627 -0.1148  0.2234
13850W        W17070   3.800   5.584   7.462 -0.1441 -0.1104 -0.1177
13851W        W17071   3.145  11.622   2.613  0.0953 -0.1039  0.1500
13852W        W17072  11.798  12.093   0.672 -0.1861  0.2601 -0.2028
13853W        W17073  10.863  16.843  17.622  0.1616  0.3203  0.2148
13854W        W17074   3.879   9.149  16.802 -0.0494  0.2002 -0.3376
13855W        W17075   7.517   9.701   7.630  0.0359  0.3703 -0.0276
13856W        W17076   0.770   9.363  17.529 -0.1135 -0.0603  0.2278
13857W        W17077   9.266   4.014   2.419  0.1436  0.0543 -0.3271
13858W        W17078   5.176  10.112   3.654  0.2327 -0.2071 -0.0670
13859W        W17079   1.955  10.328   4.662 -0.0315 -0.1691 -0.3499
13860W        W17080   1.833  10.537  17.125  0.1184  0.1612 -0.2117
13861W        W17081   4.105  15.739  16.566  0.1565 -0.0575 -0.2372
13862W        W17082   2.590  16.218   2.016  0.1995  0.0233 -0.0246
13863W        W17083   9.911  10.252   4.424  0.1131 -0.2371  0.1359
13864W        W17084  16.613  14.945   3.759 -0.0680  0.0241 -0.0183
13865W        W17085   0.032  14.978   3.070  0.0976  0.1744 -0.3924
13866W        W17086   8.723  17.985   7.631  0.1132 -0.2093 -0.0278
13867W        W17087   0.639  12.658   1.027 -0.0582  0.0158 -0.3115
13868W        W17088   3.318   6.435   2.723  0.1157 -0.3556 -0.2090
13869W        W17089   7.873  11.501  18.136 -0.0904  0.1836 -0.0013
13870W        W17090   8.890  11.141  16.991 -0.1165 -0.2011 -0.1285
13871W        W17091  15.518   4.165   7.353  0.1306 -0.1574  0.2162
13872W        W17092  11.856   7.982  10.215  0.0379  0.0719  0.3026
13873W        W17093  18.190   6.108   0.025 -0.0359  0.2021 -0.0616
13874W        W17094   7.908  16.549  17.358 -0.1862 -0.0136  0.1456
13875W        W17095   1.311   4.032   6.786 -0.1264 -0.0546 -0.2592
13876W        W17096  10.798  10.695  15.155  0.0458 -0.2115  0.1182
13877W        W17097   0.669  11.124  16.333 -0.0791  0.0195  0.0007
13878W        W17098   6.994   0.043  15.687 -0.1284  0.0504  0.0605
13879W        W17099  12.203  14.140  12.308 -0.0589  0.2784 -0.1693
13880W        W17100   0.148  10.032  12.389 -0.4671  0.0950  0.1073
13881W        W17101   4.494  14.769   2.113  0.2489  0.0585  0.2556
13882W        W17102   5.403   3.374  15.945  0.1125 -0.2273 -0.1221
13883W        W17103   3.802   9.523   6.845  0.0221  0.0467 -0.0020
13884W        W17104   8.376   7.376   4.493 -0.2829 -0.0001 -0.0607
13885W        W17105   2.212   5.222   2.688 -0.2470  0.1053  0.0780
13886W        W17106   9.055   8.447  16.758 -0.2162 -0.0200 -0.0520
13887W        W17107   1.990   5.738   2.371 -0.1348 -0.1146  0.0761
13888W        W17108  10.079  11.232   3.238 -0.0782  0.0062  0.3590
13889W        W17109   3.310  13.914   6.610 -0.0384  0.1331 -0.0341
13890W        W17110   6.512  10.997   7.003  0.0104 -0.2398 -0.1612
13891W        W17111   6.742  11.549   3.132  0.2431  0.1227 -0.1041
13892W        W17112   6.950  15.403   8.876 -0.2219  0.0403  0.1322
13893W        W17113  12.978  12.613   0.676  0.1103 -0.2244 -0.0933
13894W        W17114   5.549  15.054   6.644  0.1664  0.2250  0.3096
13895W        W17115  11.988   3.572   5.434 -0.1792 -0.3416  0.2375
13896W        W17116   3.639   8.632   4.147  0.3503 -0.0943 -0.1955
13897W        W17117   3.235   7.874  17.586 -0.1072 -0.0647 -0.1583
13898W        W17118  11.240   8.972  17.447 -0.5247 -0.0144  0.1245
13899W        W17119  11.619  12.397  15.342 -0.0629 -0.2375 -0.0982
13900W        W17120   2.758  13.863   0.886 -0.0081  0.3165  0.0184
13901W        W17121   3.809   9.665  16.761  0.3901 -0.0167  0.0794
13902W        W17122   6.002   8.783   3.663  0.2847 -0.1400  0.0942
13903W        W17123  10.126   5.354   5.689 -0.0471  0.1312 -0.1659
13904W        W17124   7.934  11.373   1.540  0.3010 -0.5325 -0.5032
13905W        W17125   4.356   5.403   9.368  0.0981 -0.2019 -0.0131
13906W        W17126  12.414  11.534   2.106 -0.2193  0.1699  0.2387
13907W        W17127   7.735   9.832   7.173  0.0636  0.2973 -0.1868
13908W        W17128   1.191  14.432  16.530  0.1883 -0.3574  0.1421
13909W        W17129   9.126   2.456   0.492 -0.0662 -0.0999  0.0665
13910W        W17130   8.485   5.379   6.713  0.0212  0.0066  0.0114
13911W        W17131   4.300   8.658   0.109 -0.0771  0.1729 -0.0778
13912W        W17132   0.462  13.283  16.780 -0.3736 -0.3128 -0.2405
13913W        W17133  11.526   8.260  12.450 -0.0072 -0.1015 -0.1893
13914W        W17134   3.034   2.579   2.652 -0.2534  0.0737 -0.2067
13915W        W17135  12.958  12.656  16.076 -0.2426  0.3964 -0.1957
13916W        W17136  14.998  16.103  12.192 -0.0448  0.1013  0.0059
13917W        W17137   7.597   7.357   2.493  0.0309 -0.0090 -0.1295
13918W        W17138   5.501   9.189  15.598  0.2037  0.1677  0.1591
13919W        W17139   6.805  14.489  14.110  0.1048  0.0084 -0.0764
13920W        W17140  16.464  13.390   4.527 -0.0635  0.1649  0.0992
13921W        W17141   5.782  14.565   0.047  0.3986  0.0113  0.1623
13922W        W17142   8.269  10.979  12.093 -0.2356 -0.2008 -0.1648
13923W        W17143   4.471  10.942  16.120 -0.0962 -0.1673  0.2351
13924W        W17144  11.136  12.277  15.241  0.1331  0.0121  0.1401
13925W        W17145   2.771  10.542   2.172 -0.0976  0.0954 -0.2310
13926W        W17146  10.356  17.805  11.269 -0.4034 -0.0295 -0.0859
13927W        W17147   2.166   3.276   3.476 -0.0510 -0.2242  0.2472
13928W        W17148   7.853   6.598   1.685 -0.1010  0.1969  0.0318
13929W        W17149   0.303  15.265   0.100 -0.0098 -0.0598 -0.0581
13930W        W17150   7.992  13.331  12.024 -0.3591 -0.1250 -0.3983
13931W        W17151   5.812   8.246   4.472  0.0570 -0.0746  0.1048
13932W        W17152   3.421  16.316   1.364 -0.0655 -0.1194 -0.0157
13933W        W17153  12.638   7.555  17.437 -0.0752  0.0916 -0.2118
13934W        W17154   5.583   9.027   9.397  0.1088 -0.1500  0.0067
13935W        W17155  12.339   0.444   4.931  0.1761  0.0719 -0.3019
13936W        W17156   4.205  11.029   5.397  0.1009 -0.0220 -0.1123
13937W        W17157   3.652  11.404   3.475  0.0120  0.0721 -0.1392
13938W        W17158   8.151  17.447  17.842 -0.1474  0.2437 -0.1388
13939W        W17159  13.611   7.953   6.576 -0.1578  0.3029 -0.1091
13940W        W17160   7.754  10.863   3.328 -0.1496  0.2086  0.3029
13941W        W17161   5.655   0.322  15.894  0.2002  0.2512  0.0299
13942W        W17162  15.716  12.801   1.938 -0.4302 -0.0144 -0.1670
13943W        W17163   2.680   4.593   7.459 -0.1279  0.0088 -0.0335
13944W        W17164   5.481  10.871   1.553  0.0182 -0.0386  0.0649
13945W        W17165   4.999   8.156   0.102 -0.3926  0.0902 -0.1192
13946W        W17166   8.658   4.892   7.632 -0.1477 -0.0182  0.0133
13947W        W17167   1.629  13.723  17.946 -0.0239 -0.2958 -0.1020
13948W        W17168   1.678  13.254   4.337 -0.0995  0.2342 -0.0429
13949W        W17169  13.983  14.483   1.652  0.2382  0.1700  0.1800
13950W        W17170   7.179   3.342   3.665 -0.0293 -0.1030 -0.0321
13951W        W17171  12.936  15.345   3.551 -0.2060  0.2614  0.2096
13952W        W17172  14.805  12.219   1.211  0.0303 -0.1744 -0.0578
13953W        W17173   8.890  12.210  17.210 -0.2541  0.2182  0.0516
13954W        W17174   2.938  11.438  15.905 -0.4600  0.1079 -0.0417
13955W        W17175   2.230  10.700  10.721 -0.2441  0.1929 -0.2601
13956W        W17176   0.576  10.091   4.498 -0.1565  0.0627 -0.0711
13957W        W17177   1.960  12.348   2.225 -0.1397 -0.0355  0.0701
13958W        W17178  17.520   4.237  16.900 -0.2120 -0.0391 -0.1644
13959W        W17179   1.764   5.972   1.891  0.1184 -0.0577  0.1958
13960W        W17180   5.588  12.814   6.904  0.1389  0.1709 -0.1129
13961W        W17181   3.466   9.241   8.870  0.0488  0.0442 -0.4015
13962W        W17182   7.929  14.176   2.100 -0.0696 -0.2244  0.1292
13963W        W17183   0.078   1.079   5.476 -0.1015 -0.0181  0.0822
13964W        W17184   2.546   3.531   7.193  0.0825  0.0208 -0.2309
13965W        W17185   0.697  16.837  10.642  0.2235  0.1767 -0.0500
13966W        W17186  14.584  11.514   3.515 -0.1513 -0.2680  0.2202
13967W        W17187   8.610   6.129   3.694  0.0325  0.4721  0.1940
13968W        W17188   8.659  11.618   1.091  0.3855  0.0712  0.0534
13969W        W17189   2.337   9.827   7.784 -0.0986 -0.1139 -0.0845
13970W        W17190   0.413  17.517  15.590  0.2037  0.1524 -0.1981
13971W        W17191  13.835  13.479   6.126  0.1922  0.0965  0.1430
13972W        W17192   1.772   4.480   2.147 -0.1557 -0.2422 -0.0246
13973W        W17193   6.612   4.621   4.995 -0.1255  0.1594  0.3039
13974W        W17194   3.642   8.941  16.383 -0.1962 -0.1967 -0.1282
13975W        W17195  18.048   7.780  17.984 -0.3279 -0.1467 -0.3909
13976W        W17196   2.848  12.858   4.322  0.3524  0.0145  0.0128
13977W        W17197   6.691  11.416   5.085  0.1525 -0.1810  0.2177
13978W        W17198   9.815  10.138   2.764  0.1796  0.0736  0.3405
13979W        W17199   8.197  12.129   3.247  0.1815  0.0618 -0.1265
13980W        W17200  10.768   8.484   4.701 -0.0619  0.2481  0.0341
13981W        W17201  16.694   2.015   5.030  0.3849 -0.1891 -0.2359
13982W        W17202   9.363   9.678   3.006  0.2878  0.0259 -0.2349
13983W        W17203   5.231   8.096   3.881  0.1974  0.0344 -0.0383
13984W        W17204   9.021   8.984   3.326 -0.0687 -0.1410  0.1675
13985W        W17205   2.908   9.968  14.834  0.1887 -0.2139  0.1343
13986W        W17206   8.151   7.918   2.134  0.1357  0.3977  0.0259
13987W        W17207   6.357  14.318   2.075 -0.1408  0.2950 -0.2071
13988W        W17208   3.626  10.915   2.629  0.1906 -0.0070  0.0714
13989W        W17209   2.275   2.925   3.093 -0.0341 -0.2786  0.1734
13990W        W17210  11.343  18.099  17.724  0.2708  0.0974  0.1164
13991W        W17211   5.475  15.413   1.506  0.2467 -0.0336 -0.3021
13992W        W17212   4.002   9.124   8.682 -0.1448  0.0420 -0.0546
13993W        W17213   6.298   2.668   4.091 -0.4646  0.1338 -0.0136
13994W        W17214   6.465  15.504   6.241 -0.0316 -0.0023  0.0494
13995W        W17215   8.303  17.818   8.344  0.2436  0.1449  0.1255
13996W        W17216  17.319  12.588  15.884  0.1143  0.0882  0.3460
13997W        W17217   7.420   4.516   3.849 -0.0604  0.2143 -0.1123
13998W        W17218   1.318  13.309  16.264  0.1154  0.1048 -0.3351
13999W        W17219   9.038   9.578  15.870 -0.1500  0.0267 -0.2360
14000W        W17220   6.608   7.993  12.749 -0.2778  0.0874 -0.0287
14001W        W17221   1.266  10.332   0.006  0.0174  0.1985 -0.2013
14002W        W17222   8.304   5.913   2.848 -0.0396  0.0653 -0.1247
14003W        W17223   2.086   9.738   1.437  0.0298  0.2670 -0.0043
14004W        W17224   8.062   6.303  13.410 -0.2007 -0.0340  0.0765
14005W        W17225   4.054   8.527   4.501  0.1027  0.0440 -0.0548
14006W        W17226   4.714   9.466   5.049  0.0343  0.1375  0.1482
14007W        W17227   3.093   6.253   6.722  0.0986  0.1314 -0.1516
14008W        W17228   2.380   2.875  11.874  0.2881 -0.3063  0.2307
14009W        W17229   8.914  11.715  17.002 -0.0786 -0.2528  0.0388
14010W        W17230   0.399   9.288   6.603 -0.1735  0.2427  0.0066
14011W        W17231   3.770   6.111   1.378  0.0170  0.2982  0.0859
14012W        W17232   7.574   5.250   4.011  0.0563  0.1166 -0.0722
14013W        W17233   4.208   4.276   1.932  0.1775  0.0575 -0.1392
14014W        W17234   8.980  14.064  15.861  0.0444  0.1703 -0.1309
14015W        W17235   3.432   4.422   7.365 -0.2228 -0.1758 -0.1579
14016W        W17236  17.242   9.813   5.449 -0.0527 -0.1462  0.1835
14017W        W17237   2.703   3.338  17.458 -0.2154 -0.1478  0.0184
14018W        W17238   2.514  13.712  17.641 -0.0779  0.0427 -0.3657
14019W        W17239  13.681   5.958  10.074  0.0864 -0.0227  0.1052
14020W        W17240  17.898   9.191   1.411 -0.1632  0.0817 -0.3196
14021W        W17241  17.206  11.555   6.018  0.1140 -0.3081  0.0196
14022W        W17242   4.525   4.738   5.185 -0.0843 -0.4173  0.0664
14023W        W17243   2.961   9.986   1.458 -0.1938 -0.2118 -0.3986
14024W        W17244   6.249  14.390   2.984  0.0001  0.1831 -0.0951
14025W        W17245   6.456   8.740   5.671 -0.0551 -0.1038 -0.2628
14026W        W17246   3.498  17.348  13.270 -0.1693  0.2695 -0.0085
14027W        W17247   5.455  13.570   1.917  0.1980 -0.2771  0.3079
14028W        W17248  15.770   5.592   5.269  0.3258  0.1455 -0.1893
14029W        W17249   3.231   3.212   1.502  0.3195 -0.0626 -0.0804
14030W        W17250   9.299  14.732   0.957 -0.1339  0.1768  0.1876
14031W        W17251   6.890   1.954   5.916  0.1076 -0.2203 -0.3632
14032W        W17252   2.113  10.920   0.083  0.4748 -0.0146 -0.0782
14033W        W17253   8.296   8.430   0.168 -0.0205 -0.2328 -0.1654
14034W        W17254   3.521   8.788  14.605  0.0075 -0.0219  0.0621
14035W        W17255   8.645  11.720   3.999 -0.2443 -0.1963 -0.4468
14036W        W17256  11.769   4.247   0.604  0.0322  0.2428  0.1201
14037W        W17257   3.638   7.657  10.355 -0.0547  0.0744 -0.3316
14038W        W17258   2.818  11.528   7.483 -0.1147  0.3310 -0.0220
14039W        W17259   9.965   5.596  17.010  0.0430  0.1617  0.0521
14040W        W17260   8.097  10.548   4.579 -0.1340 -0.0103  0.1057
14041W        W17261   3.846   7.137  16.549  0.2861  0.1006 -0.0874
14042W        W17262  12.147  13.494   8.984 -0.0397  0.0223 -0.1390
14043W        W17263  17.965  11.307  16.379  0.0408 -0.2455  0.3936
14044W        W17264   9.274  15.694   4.172  0.1308  0.3018  0.2482
14045W        W17265  11.837   9.389   7.486 -0.1484  0.3009 -0.0219
14046W        W17266   0.955   6.699   6.448 -0.0874  0.1363  0.0687
14047W        W17267   2.557   9.968   0.839  0.3452  0.3689 -0.0177
14048W        W17268   6.142   5.648   3.271  0.1834 -0.0518  0.1792
14049W        W17269   2.955  13.930  18.046  0.1643 -0.0897 -0.1040
14050W        W17270   9.950   9.326   2.958  0.0465  0.3766  0.1070
14051W        W17271   9.969  15.502  16.694 -0.0018  0.1862  0.0379
14052W        W17272  16.343   7.567   7.679 -0.2513 -0.0901 -0.0531
14053W        W17273   6.310  15.020  17.140 -0.0646  0.4684  0.1804
14054W        W17274   5.668   9.502   0.759  0.1364 -0.1161 -0.0373
14055W        W17275  11.045  13.790  15.931  0.1876 -0.0904 -0.2326
14056W        W17276   8.779  15.417  15.316  0.1838 -0.0548  0.0799
14057W        W17277   3.812  15.426  14.765 -0.2927 -0.2108  0.1781
14058W        W17278   5.922   3.128   7.623  0.0249 -0.3877 -0.1034
14059W        W17279   3.974   3.415   1.246  0.0651 -0.1072  0.3356
14060W        W17280   3.705   6.802  15.122 -0.0844  0.0710 -0.2184
14061W        W17281   5.519   2.763   4.541  0.1300  0.0752 -0.3429
14062W        W17282   0.847   2.333  14.014  0.0423  0.0235  0.2004
14063W        W17283   4.136  12.543  15.926  0.0911 -0.1222  0.2488
14064W        W17284  15.002   8.589   1.873 -0.1375  0.1362  0.2680
14065W        W17285   3.706  10.744   5.270  0.1776  0.0629  0.0345
14066W        W17286   4.010   3.073   2.836  0.1724  0.1141  0.2740
14067W        W17287  10.984   8.419   6.452  0.2115  0.2237 -0.0490
14068W        W17288   1.976   9.988   5.096  0.0738  0.0744  0.0130
14069W        W17289  14.556   7.222   3.945  0.0346  0.2794 -0.2359
14070W        W17290   9.314  14.351   1.326 -0.2225  0.0700 -0.1447
14071W        W17291   3.909  13.943   7.782 -0.1919 -0.0304 -0.0968
14072W        W17292  10.503  17.229   0.970 -0.3367 -0.1063  0.0058
14073W        W17293  11.390   0.481  15.440 -0.2084 -0.0416 -0.2594
14074W        W17294  10.494  11.524  14.182  0.0198 -0.1157 -0.0954
14075W        W17295  10.818  14.813  17.432  0.0803 -0.0395  0.2693
14076W        W17296   9.769  10.062  12.738  0.0272  0.2167  0.0225
14077W        W17297   5.926  13.832   2.087  0.0578 -0.2275  0.1112
14078W        W17298   5.657   6.664   9.245 -0.5444  0.2450  0.1111
14079W        W17299   8.211   7.413   1.653 -0.0198 -0.0501 -0.2107
14080W        W17300   8.201   7.974   3.979  0.1053 -0.0850  0.3046
14081W        W17301   5.463   8.836   3.090 -0.0176 -0.0398  0.0164
14082W        W17302   3.489   4.197   8.977  0.1826  0.2639  0.0455
14083W        W17303   6.433   3.993   3.815  0.0662  0.1346 -0.0274
14084W        W17304   7.936   8.365   1.996 -0.1026 -0.0794  0.0127
14085W        W17305   3.089   4.758   2.866 -0.3259 -0.2723  0.0433
14086W        W17306   4.624   7.220  12.843 -0.2075  0.1802 -0.1869
14087W        W17307   6.561   7.100  11.388 -0.2848 -0.1379 -0.0623
14088W        W17308   2.699  10.977   2.456  0.1268  0.0498  0.1077
14089W        W17309  12.185  10.968   5.410  0.1198  0.2011 -0.0475
14090W        W17310   5.979   2.437   5.894 -0.0724  0.0686 -0.2874
14091W        W17311   7.627   9.287  16.002 -0.1956 -0.1466  0.2895
14092W        W17312   3.256   8.583   5.750  0.0735 -0.2351  0.2418
14093W        W17313  12.033  10.766  17.702  0.4346  0.0616 -0.0044
14094W        W17314   7.309  13.130   4.819 -0.0691  0.0835 -0.0466
14095W        W17315   6.379   7.654   3.385  0.2938 -0.1871  0.2743
14096W        W17316  12.260  11.289  16.293 -0.2701 -0.1354 -0.4478
14097W        W17317   9.622  10.546   2.648 -0.0117 -0.1551 -0.1485
14098W        W17318  17.273   6.133   5.021 -0.0853 -0.0302  0.1495
14099W        W17319   1.593  17.959   0.179 -0.4510  0.1184  0.2677
14100W        W17320   5.622  10.470   1.127 -0.0333  0.1404  0.1637
14101W        W17321   5.487   6.158   0.394 -0.1803  0.1217  0.1784
14102W        W17322   7.728   0.416   1.986 -0.3025  0.0090  0.0778
14103W        W17323   1.875  13.861  11.708 -0.0141 -0.1223  0.0206
14104W        W17324   5.343  11.814   7.196  0.0623  0.2717 -0.1401
14105W        W17325   4.148  16.997   3.106  0.3745  0.0728 -0.1257
14106W        W17326   6.728  10.305  12.799 -0.0370 -0.3017  0.4477
14107W        W17327  10.534   2.959   7.472 -0.1873  0.1986 -0.1068
14108W        W17328   2.127   3.481  15.264  0.2156 -0.1970 -0.0422
14109W        W17329  11.933   7.049  10.336 -0.0270 -0.1216 -0.0910
14110W        W17330   4.593  17.025   1.134 -0.0146  0.0482 -0.2109
14111W        W17331   0.486  11.120   3.287 -0.1720 -0.0372 -0.1865
14112W        W17332   8.313  11.987   4.856 -0.1719 -0.2076  0.0260
14113W        W17333   8.330  10.836  15.783 -0.4147 -0.1194 -0.3298
14114W        W17334  10.410  11.416   7.065 -0.1603  0.1972  0.0386
14115W        W17335   6.166   4.279   6.483 -0.0154 -0.1652 -0.0419
14116W        W17336   4.216  12.481   2.629  0.0648  0.1762 -0.1349
14117W        W17337  18.054  13.157  10.695  0.1963 -0.0575  0.0104
14118W        W17338  15.458   6.644  11.787 -0.1279 -0.5114  0.0121
14119W        W17339   2.981  11.962  16.098 -0.2039 -0.0806 -0.2253
14120W        W17340   6.011   2.414   3.722 -0.3954  0.0205 -0.0138
14121W        W17341   7.998  10.361  10.773 -0.3110 -0.2055 -0.3727
14122W        W17342  15.717  12.287   6.471 -0.1057  0.3775  0.2433
14123W        W17343   4.465   5.018   3.220 -0.2682 -0.0154  0.0424
14124W        W17344   7.959   9.699  16.020 -0.1204  0.1486  0.0407
14125W        W17345  17.319  11.679  18.014 -0.1309  0.1884  0.1782
14126W        W17346   2.777   9.043   4.155 -0.0870  0.3160 -0.6417
14127W        W17347   9.359   4.880  14.863 -0.1654 -0.2076 -0.1697
14128W        W17348   7.303   7.602   0.706  0.2044 -0.0695 -0.0996
14129W        W17349  10.104   9.001   0.447 -0.1128  0.2079  0.2655
14130W        W17350   8.701   5.425   0.751  0.2237 -0.2583  0.0623
14131W        W17351  11.001   8.611   9.583  0.1604  0.1266  0.0013
14132W        W17352   1.951   4.094  17.207 -0.3069 -0.0665 -0.0503
14133W        W17353   1.899   7.638   7.486 -0.0895 -0.0482 -0.0355
14134W        W17354  16.329  12.381   8.103 -0.2402 -0.0760 -0.1152
14135W        W17355  11.310  17.544   0.791 -0.0458  0.0038  0.1054
14136W        W17356   6.522  15.131  16.663 -0.0723  0.0388 -0.1642
14137W        W17357  13.088  14.601  16.976 -0.1949 -0.0013  0.0872
14138W        W17358   8.347  12.517  16.499  0.5518  0.0422  0.1417
14139W        W17359   1.953   4.992  17.625 -0.0434  0.0873  0.0357
14140W        W17360   5.763  11.763  15.729 -0.1892 -0.0546 -0.0244
14141W        W17361   6.650   7.388   2.504 -0.3735  0.1520  0.0983
14142W        W17362   8.765   4.068   8.156 -0.0029  0.0784  0.4420
14143W        W17363   6.538  11.133  15.911 -0.0367 -0.3313  0.1475
14144W        W17364   3.568   3.409  16.375  0.1805 -0.0300 -0.3343
14145W        W17365   0.192  15.304   2.680  0.1763  0.2091  0.0964
14146W        W17366   5.884   6.294   9.759  0.2446  0.0215  0.1248
14147W        W17367   4.420   4.369   6.489  0.1281 -0.0004 -0.1872
14148W        W17368   6.502   2.391   5.980 -0.2449 -0.2408 -0.0948
14149W        W17369   4.937   4.715   6.704 -0.2832  0.1572 -0.1090
14150W        W17370  11.336   4.268   1.424 -0.0208 -0.0308  0.1735
14151W        W17371   6.188   6.961  15.270  0.3143  0.0094  0.1627
14152W        W17372   0.819   5.442   4.486  0.4024  0.2238  0.2705
14153W        W17373   9.462   8.802  16.112 -0.0240  0.1833 -0.1951
14154W        W17374   5.289   4.857   6.369 -0.0094  0.0975 -0.0738
14155W        W17375   2.115   6.387   1.718  0.1485  0.1219 -0.0775
14156W        W17376   6.770  11.178   6.300 -0.2265  0.0765 -0.1013
14157W        W17377  13.835  11.110   3.592  0.4131  0.2756 -0.0268
14158W        W17378   5.624  10.072   5.804 -0.2104  0.0795 -0.1090
14159W        W17379  17.553  10.221   6.239 -0.3534  0.3086 -0.0133
14160W        W17380  11.332   2.408   5.534 -0.0039 -0.2110  0.0521
14161W        W17381   3.037  12.020   5.348  0.1337 -0.1305  0.0487
14162W        W17382   8.307  12.072  16.196 -0.2870 -0.2106  0.0768
14163W        W17383   6.437   8.208   2.231  0.0011  0.0733  0.0991
14164W        W17384   8.683   5.353   4.989 -0.1144 -0.0220  0.2450
14165W        W17385  11.725   3.121   5.179  0.2036 -0.1459 -0.1231
14166W        W17386  15.349   0.351   1.509  0.0112 -0.0605  0.1543
14167W        W17387  10.764   8.622  10.925  0.0271 -0.1122  0.1968
14168W        W17388  11.802   6.902   2.254 -0.0382 -0.0753  0.2519
14169W        W17389  12.296   7.382   6.280  0.0344 -0.1368  0.0336
14170W        W17390   6.287   2.398  16.260  0.0417 -0.1023  0.1273
14171W        W17391   3.448  13.005  16.641 -0.2887 -0.1508 -0.2392
14172W        W17392   2.513  16.617  16.679 -0.2082 -0.1096 -0.2728
14173W        W17393   6.010   9.580   3.896 -0.1527 -0.2323 -0.1142
14174W        W17394   6.394   8.314   6.501 -0.1660  0.1817 -0.1441
14175W        W17395   5.628  11.991   1.304  0.1392 -0.2771 -0.2384
14176W        W17396   7.001  11.506   0.533 -0.0973  0.2099 -0.0508
14177W        W17397  11.705   7.793   3.948  0.0495 -0.0157  0.3422
14178W        W17398   5.512   7.013   4.136 -0.2560 -0.0291 -0.2191
14179W        W17399   3.210  12.484   5.192  0.0885 -0.1123  0.1173
14180W        W17400   3.399   4.697   5.229 -0.1160  0.1005  0.0727
14181W        W17401   6.684  16.421   2.505 -0.0947 -0.0027 -0.1174
14182W        W17402  17.338   7.329   7.789  0.2146 -0.0670 -0.1667
14183W        W17403   3.016   8.252  12.689  0.0456 -0.4429  0.0877
14184W        W17404   8.653   1.412   5.149  0.0849  0.1262  0.0033
14185W        W17405   0.518  12.555   4.789 -0.1846  0.1459 -0.0890
14186W        W17406   9.921   7.235   4.511  0.0984 -0.0872  0.1035
14187W        W17407   6.941   6.406  12.220 -0.1052  0.1909 -0.2320
14188W        W17408  17.440   8.895   0.682  0.2171 -0.1922 -0.2008
14189W        W17409   7.439  11.742   0.728 -0.2690 -0.2783  0.0007
14190W        W17410   8.629   8.957   5.028  0.0288 -0.0624 -0.1953
14191W        W17411   5.594   8.272   6.920 -0.0059 -0.1334  0.0868
14192W        W17412  10.191  13.667   3.219  0.3780  0.2006  0.0557
14193W        W17413   7.309   3.562   1.953 -0.0219  0.0553 -0.0518
14194W        W17414   3.574   7.334   6.200  0.0704  0.0982  0.0126
14195W        W17415   1.533   5.945   0.898  0.1637 -0.1721  0.1272
14196W        W17416   7.276   0.159   1.991  0.0462 -0.3114 -0.0984
14197W        W17417   3.146   8.842   6.772 -0.1515  0.2122  0.0170
14198W        W17418   5.294  11.687   3.525 -0.0807 -0.0071  0.0693
14199W        W17419  17.505  13.805   2.344 -0.1145 -0.1043 -0.3291
14200W        W17420  12.616   8.511  17.383  0.1719 -0.0721  0.0625
14201W        W17421   9.500  11.604  18.225  0.0365 -0.2016 -0.1021
14202W        W17422   4.644   8.063   1.261  0.1864 -0.3085  0.0923
14203W        W17423   6.197  12.667   3.459  0.0115  0.0686  0.0099
14204W        W17424   7.999   9.604   2.271 -0.2994 -0.4190 -0.0998
14205W        W17425   4.539  11.397   4.581 -0.2084 -0.2946 -0.0473
14206W        W17426   8.733   6.752   8.454  0.0483  0.4114 -0.0095
14207W        W17427  11.308   2.935   1.944  0.1476  0.0041 -0.0846
14208W        W17428   8.743  14.098   2.202  0.1244 -0.0514  0.2147
14209W        W17429   1.260  14.710  16.973  0.2478 -0.1373 -0.1279
14210W        W17430   1.996   9.845   8.196  0.2678  0.1627 -0.1763
14211W        W17431   0.469   9.699   7.333 -0.0230 -0.0599  0.0037
14212W        W17432  12.037   7.397   5.203  0.0142 -0.0936 -0.4023
14213W        W17433   4.345  13.058  16.658 -0.0949 -0.1995 -0.0277
14214W        W17434   4.765   7.246  17.022 -0.0306 -0.0272  0.1890
14215W        W17435   4.277  13.107   4.769  0.2927  0.4355 -0.1261
14216W        W17436   4.316  13.065   7.254 -0.2929 -0.2048 -0.0905
14217W        W17437   6.411   5.422   2.818 -0.2323 -0.0132 -0.1265
14218W        W17438   3.689   4.981   6.099  0.1482 -0.1088  0.0427
14219W        W17439  10.203  10.790  14.676  0.1248 -0.1600  0.1780
14220W        W17440   6.444   1.770   3.106  0.1522 -0.0235 -0.1798
14221W        W17441   9.474  11.365   3.982 -0.2540  0.0324  0.0489
14222W        W17442   3.029  15.859   4.796  0.2316 -0.3203 -0.1486
14223W        W17443   4.292  14.375   3.000  0.0052 -0.1552  0.0002
14224W        W17444   8.193  11.510   1.127  0.0986 -0.3708  0.4203
14225W        W17445   6.101   5.155   3.159 -0.1717  0.0854  0.0913
14226W        W17446   7.128   7.140  12.179  0.3193  0.2486  0.2346
14227W        W17447  16.140   0.357   7.107  0.2377 -0.1273 -0.0406
14228W        W17448   0.123  11.776  10.168  0.3152 -0.3229  0.1486
14229W        W17449   9.226   8.664   6.604 -0.1078  0.0065  0.1568
14230W        W17450  17.439   9.490   4.940 -0.2246  0.0108 -0.0249
14231W        W17451   6.511   1.965   3.567  0.0265 -0.0223  0.0640
14232W        W17452   3.860   8.128   8.394 -0.0150 -0.0853 -0.1410
14233W        W17453   2.713   6.988   3.715 -0.1838 -0.0298  0.0220
14234W        W17454   9.501   5.110   0.484 -0.0607 -0.2297 -0.1142
14235W        W17455  10.258  11.486   5.063 -0.2356 -0.0045  0.0271
14236W        W17456  12.900   8.190   3.881  0.0814  0.1589  0.1223
14237W        W17457   1.818   9.372  14.165 -0.1374 -0.0665  0.0158
14238W        W17458   8.504  16.706  10.843 -0.1216 -0.0413 -0.2636
14239W        W17459   7.065  11.583   6.178 -0.3739  0.0250  0.1331
14240W        W17460   9.667   1.567   4.377 -0.1111 -0.2052  0.2037
14241W        W17461  16.405   8.571   8.312  0.0681  0.2413  0.0189
14242W        W17462   6.935   5.248   8.089  0.1637 -0.1859 -0.2158
14243W        W17463   7.720   8.223  10.263  0.0745 -0.2581 -0.2027
14244W        W17464   7.433  12.153   8.631 -0.0980 -0.1143 -0.2007
14245W        W17465   6.791   9.004   7.802 -0.0200  0.0324 -0.3093
14246W        W17466   2.510  13.152   9.240 -0.0708  0.0292 -0.2196
14247W        W17467   4.262  10.757   6.245  0.1918  0.1190  0.0688
14248W        W17468   0.684  15.723   4.169 -0.0195 -0.0276 -0.1776
14249W        W17469   3.294   5.876   5.399 -0.2485  0.0712  0.1578
14250W        W17470   7.853  13.439   7.977  0.0411  0.2065 -0.0356
14251W        W17471   6.981  10.590   2.649 -0.2636  0.0391 -0.0646
14252W        W17472   2.114  13.151   8.849  0.1265  0.1430 -0.0531
14253W        W17473   6.630  11.759   3.613  0.0592 -0.1069 -0.1193
14254W        W17474  11.073  16.320   0.587  0.0788 -0.1558  0.0722
14255W        W17475   5.071   3.882   4.428  0.0470  0.0975  0.1103
14256W        W17476  14.218   3.026   8.375 -0.1506  0.3174  0.3162
14257W        W17477   2.914   1.554  10.148  0.0362 -0.2921 -0.1990
14258W        W17478  13.222   9.675   6.417  0.1105  0.0683  0.1456
14259W        W17479   8.155  10.266   2.716 -0.0093 -0.0204  0.1545
14260W        W17480   6.666  18.102   3.042  0.2541 -0.3407 -0.1490
14261W        W17481   2.847   4.711  11.840 -0.2795  0.1072  0.1390
14262W        W17482   5.335  13.160   2.161  0.0136 -0.3642 -0.0636
14263W        W17483   1.704  10.298   3.273 -0.3188  0.1542  0.1258
14264W        W17484  12.730   5.850   7.976 -0.0919 -0.0798  0.1302
14265W        W17485   6.081  12.059   6.666 -0.0763 -0.0064 -0.0546
14266W        W17486   8.580  11.540   9.230  0.1026 -0.0900  0.0065
14267W        W17487   7.487   8.693  16.000  0.2163 -0.1309 -0.1199
14268W        W17488   8.713   8.583   3.588  0.4121 -0.0226  0.2201
14269W        W17489   1.680   0.162  17.764  0.1625  0.1570  0.0890
14270W        W17490  14.600  12.876   5.438 -0.0905  0.2023 -0.0582
14271W        W17491   9.287   4.027   8.228 -0.3513 -0.2241 -0.0234
14272W        W17492   7.274   1.205   1.951 -0.0912  0.2017  0.5522
14273W        W17493   2.716   9.202   9.172  0.0559  0.0153  0.1322
14274W        W17494   5.593   4.077   8.444  0.1421  0.1299  0.2484
14275W        W17495   8.332  11.269   4.086 -0.0353 -0.0698  0.0734
14276W        W17496   0.846   8.285   7.941 -0.0251  0.1420 -0.4983
14277W        W17497   9.073  13.431  13.087  0.0524  0.2813 -0.0497
14278W        W17498   7.869   7.613   9.408  0.1456  0.0303  0.2691
14279W        W17499   6.400   9.205  12.939 -0.0987 -0.0603  0.2303
14280W        W17500   6.776   2.666  12.755  0.0846  0.0637 -0.0495
14281W        W17501   2.156   8.718   2.857  0.2025  0.0414  0.0336
14282W        W17502   9.348  12.773   0.394  0.0722 -0.3591  0.3721
14283W        W17503  15.027  12.831   4.991  0.0283  0.1054 -0.4436
14284W        W17504  10.687  18.063   0.227  0.1640 -0.0388 -0.0622
14285W        W17505   9.936  13.174   9.049  0.2165 -0.0413 -0.0561
14286W        W17506   0.312  11.255   4.211 -0.1147 -0.0091  0.1229
14287W        W17507  12.427  13.251   8.090 -0.1359  0.1741 -0.0504
14288W        W17508   7.537   3.141   8.647  0.0785  0.1027  0.0033
14289W        W17509   8.435   3.693   0.084  0.2131  0.2907 -0.3660
14290W        W17510   8.765  11.322   4.459 -0.0300 -0.0305 -0.0920
14291W        W17511   8.173   5.493   7.033 -0.1520 -0.1045  0.0074
14292W        W17512   3.630   5.871   0.048  0.0781  0.0568 -0.0627
14293W        W17513   6.322   3.697   5.381 -0.1394  0.0891 -0.2448
14294W        W17514   5.628   4.143   0.249  0.0248 -0.2838  0.0468
14295W        W17515   8.691  11.816  17.935 -0.0725 -0.0710 -0.0030
14296W        W17516   4.553   6.782   4.099  0.0994 -0.1151 -0.1167
14297W        W17517   8.145  11.267   5.247  0.1830  0.1848  0.0382
14298W        W17518   9.055   5.136   9.800  0.0163 -0.1275  0.1418
14299W        W17519   7.317   6.965   0.798 -0.0077 -0.2771  0.0607
14300W        W17520  10.532   2.768  11.331  0.3324  0.3038 -0.0489
14301W        W17521   4.589  10.687   2.661 -0.3116  0.0258 -0.0745
14302W        W17522  10.343   8.097   9.470  0.0088 -0.2892  0.3309
14303W        W17523  14.573   8.558   8.616 -0.0600 -0.0631  0.0540
14304W        W17524   6.760  17.222  11.199 -0.0772  0.2244  0.0511
14305W        W17525   1.581   9.533  10.400 -0.1889 -0.0698 -0.0965
14306W        W17526   9.434  13.169   2.689 -0.2393  0.0452  0.2457
14307W        W17527   4.876   2.980   6.796 -0.1514 -0.2127 -0.0151
14308W        W17528   7.492   5.626   2.570 -0.0548 -0.0477  0.0568
14309W        W17529  10.447   7.416  10.268  0.0868  0.1743 -0.3585
14310W        W17530  11.775   2.088  14.715 -0.0930 -0.0477 -0.0957
14311W        W17531   8.856   4.934  18.115 -0.0222 -0.0836 -0.1116
14312W        W17532   5.402   4.846   2.061 -0.1849  0.1624 -0.0894
14313W        W17533   8.079  13.145   5.319 -0.3018  0.1590  0.2323
14314W        W17534  14.278   9.559  17.234 -0.2527 -0.3202 -0.1533
14315W        W17535   0.183  13.201   5.975 -0.1289 -0.0627 -0.2287
14316W        W17536  11.414   7.353   5.886  0.0522  0.2371  0.2261
14317W        W17537   8.934  15.688  16.915 -0.2103  0.2362  0.2037
14318W        W17538  10.825  10.468   7.285  0.2205  0.1139  0.3385
14319W        W17539  12.675   4.076   9.095  0.1317  0.2886  0.2379
14320W        W17540   1.787  11.049   6.367 -0.0146  0.3887  0.2498
14321W        W17541   7.977   5.046   8.692 -0.0336 -0.0366  0.1416
14322W        W17542  15.339   3.997  14.858 -0.0460  0.0456 -0.0402
14323W        W17543   5.528   1.663   7.465 -0.4169 -0.2212  0.0915
14324W        W17544   8.373   7.880   7.261  0.5327  0.2577  0.1239
14325W        W17545   3.968   8.692   3.296 -0.3436 -0.0623 -0.0693
14326W        W17546   9.342  16.376   7.291  0.1013 -0.0487  0.0916
14327W        W17547   5.465  13.517   0.174  0.2708  0.1853  0.4841
14328W        W17548   9.139  12.579   1.419 -0.1292 -0.2985 -0.0752
14329W        W17549   8.139   3.288   3.029  0.0721 -0.2398  0.4050
14330W        W17550   8.772   8.993  10.438 -0.0902  0.0982 -0.0939
14331W        W17551   3.781   6.878   4.384 -0.3819 -0.1064  0.1946
14332W        W17552   4.370   7.054  15.691  0.0210  0.0401 -0.2651
14333W        W17553   7.729   2.555   3.430  0.2625 -0.2210  0.2549
14334W        W17554   6.341   3.883   6.671 -0.1435  0.0535  0.0053
14335W        W17555  14.301   4.261   4.207 -0.1195 -0.2161 -0.4439
14336W        W17556   4.215   8.771  16.999 -0.4221  0.1459  0.2318
14337W        W17557   6.451   7.247  10.449  0.1224 -0.0163 -0.1880
14338W        W17558  11.866   6.497   7.608 -0.3427  0.1560  0.0020
14339W        W17559   5.268   9.215   7.718 -0.1043 -0.2068 -0.1225
14340W        W17560   8.721   2.545   9.501 -0.2025 -0.0168 -0.2509
14341W        W17561   2.887  11.991   0.799  0.0923 -0.1553  0.4510
14342W        W17562   9.003   0.848   3.697 -0.0018 -0.0595  0.0320
14343W        W17563   2.940   4.479   3.268  0.0793 -0.0170  0.1492
14344W        W17564   9.465  11.965  17.793  0.0605 -0.0179  0.2191
14345W        W17565   4.913  14.246   6.971  0.2186  0.2202 -0.0615
14346W        W17566   9.248  10.928   2.822 -0.1822 -0.1617  0.0269
14347W        W17567   0.777   6.033   0.326  0.1546 -0.1495 -0.0163
14348W        W17568   8.836  14.200   4.942  0.0012 -0.2269  0.0535
14349W        W17569   7.680   7.789   3.929 -0.0278 -0.0916 -0.1389
14350W        W17570   9.924   3.464  10.360 -0.4610  0.2858  0.0067
14351W        W17571   5.246   0.481   7.823 -0.0699 -0.2283  0.1780
14352W        W17572   6.049  15.165   7.325 -0.0062 -0.1403  0.1901
14353W        W17573   6.114  13.240   5.168 -0.1750 -0.2854  0.0222
14354W        W17574   4.483  12.854  14.286 -0.0341  0.1956 -0.2394
14355W        W17575   3.237   5.430   1.565  0.0246 -0.1979 -0.1227
14356W        W17576   7.475   5.020   4.862  0.1916 -0.1711 -0.4224
14357W        W17577   7.119  12.452  16.966  0.0062 -0.0881 -0.0462
14358W        W17578  12.547   7.692   0.310  0.1921  0.0377 -0.2821
14359W        W17579   4.308   6.076  14.635  0.1233 -0.3721 -0.0159
14360W        W17580   7.874   1.153   6.946 -0.1431 -0.1880  0.0194
14361W        W17581   2.650  12.299  10.930 -0.2028 -0.1527 -0.1236
14362W        W17582   3.339  14.283   5.390  0.3738 -0.2750  0.1574
14363W        W17583   2.178   8.524   3.592  0.0769 -0.0057  0.0680
14364W        W17584   4.915  10.939   4.129  0.1324 -0.2859  0.0461
14365W        W17585   5.871  16.673   3.357 -0.0065  0.1547  0.0106
14366W        W17586   7.038  12.473   2.773 -0.1335 -0.1587  0.1188
14367W        W17587  17.441   7.156   1.694  0.0391  0.0934  0.4176
14368W        W17588   6.298   8.197   7.900  0.1014  0.1119 -0.0943
14369W        W17589   7.780   1.534   3.064  0.0726  0.0436 -0.0794
14370W        W17590   4.985   8.523   6.021 -0.3220  0.0669  0.1831
14371W        W17591  14.714   7.347   6.131  0.0716  0.0052 -0.3061
14372W        W17592   6.361   5.296   0.382 -0.0642 -0.1337  0.0245
14373W        W17593   3.935   6.959  14.715  0.3000  0.1150 -0.2399
14374W        W17594   1.745   3.712   3.217  0.1314  0.0069 -0.2874
14375W        W17595   9.786  11.093  10.334  0.0544 -0.2542  0.1091
14376W        W17596   4.366   6.797   2.661 -0.0869 -0.1336 -0.0804
14377W        W17597   4.764   5.897   8.463  0.2768 -0.2194  0.0678
14378W        W17598   2.976   4.803   4.413  0.0115  0.2833  0.1561
14379W        W17599   7.873   5.807   9.565 -0.0835 -0.0246 -0.0983
14380W        W17600   2.876   1.712   5.634  0.1515  0.4176  0.0663
14381W        W17601   8.255   9.163   2.360 -0.1462 -0.0355  0.1361
14382W        W17602   4.341   3.023   4.827  0.1388  0.0945 -0.2328
14383W        W17603   7.546  14.907   0.448 -0.2306 -0.2123 -0.2668
14384W        W17604   5.899   9.058   6.199 -0.1712  0.0814 -0.1420
14385W        W17605   7.194   6.471  16.861  0.1551 -0.1851  0.0425
14386W        W17606   5.371  14.761   8.405  0.2824 -0.0277  0.1519
14387W        W17607   9.320   9.616   6.147  0.1928 -0.3460  0.2834
14388W        W17608   4.336   4.866   6.033  0.0654  0.0943  0.1241
14389W        W17609   6.528  16.304   8.296 -0.1392  0.0686 -0.1377
14390W        W17610   9.130   4.408   1.501  0.0733 -0.2662  0.0159
14391W        W17611  16.678   4.719   8.498 -0.1446  0.0038 -0.0242
14392W        W17612   8.510   4.114   7.305  0.0930 -0.0632  0.3230
14393W        W17613   4.424  10.387   6.558  0.0873 -0.0707 -0.2594
14394W        W17614   7.327   8.957   3.067  0.2802 -0.0982 -0.1284
14395W        W17615  10.662   6.867   5.960  0.1313  0.2391 -0.0691
14396W        W17616   8.364   8.442   6.162 -0.2367  0.1678 -0.1982
14397W        W17617   2.614   0.486   8.172  0.1942  0.0304  0.1516
14398W        W17618   7.192   3.966  10.054 -0.1273  0.1747  0.2945
14399W        W17619   1.657  17.256   2.893 -0.0105  0.4107  0.1026
14400W        W17620  15.447   0.802   7.441  0.0915 -0.1068  0.1503
14401W        W17621   0.678  17.931   4.147 -0.0465 -0.3289  0.2693
14402W        W17622  13.109   3.338   5.475  0.0631 -0.1204  0.1594
14403W        W17623   7.453   8.453   0.422 -0.1467  0.0887  0.0401
14404W        W17624   1.072   4.340   4.907  0.0502 -0.0409 -0.1024
14405W        W17625  15.070  11.836   6.897 -0.1723  0.1214  0.1333
14406W        W17626  17.072   7.359   1.300  0.2496 -0.0631 -0.1810
14407W        W17627   2.936   7.007   9.034  0.0382  0.0439  0.0347
14408W        W17628   6.595   4.941   1.337  0.1520 -0.2042 -0.3072
14409W        W17629   2.187  14.528   0.768  0.1166  0.0623 -0.0826
14410W        W17630  14.530   5.142   2.692 -0.0433 -0.0862 -0.2209
14411W        W17631   9.810  10.966   4.355 -0.4335 -0.1549 -0.1828
14412W        W17632   4.029   8.369   2.517  0.3147  0.2969 -0.0285
14413W        W17633   5.214  10.272   6.064  0.1525 -0.2752 -0.1095
14414W        W17634   8.728   5.771   5.644  0.0108 -0.2537 -0.2381
14415W        W17635   9.026   7.523   1.567  0.2232 -0.3919 -0.1378
14416W        W17636   6.212   4.311   1.843 -0.1844  0.3747  0.0228
14417W        W17637   2.997   8.477   2.398  0.0316  0.3136 -0.0955
14418W        W17638   7.155   4.498   6.598 -0.0241 -0.1855 -0.0586
14419W        W17639  10.288  13.012   3.391 -0.0567  0.0321 -0.0262
14420W        W17640  10.611  11.846   4.972  0.1773 -0.0662  0.1892
14421W        W17641   4.689   5.983   7.544  0.0318 -0.0791 -0.2694
14422W        W17642   5.560  12.245   3.155  0.0141 -0.2832  0.1333
14423W        W17643  16.841  15.478   3.910 -0.1714  0.0559 -0.0917
14424W        W17644   6.973  16.251   6.021 -0.2206 -0.3339  0.4441
14425W        W17645   9.824   7.758   6.002 -0.1737 -0.0487 -0.1754
14426W        W17646   4.321   2.773   5.582  0.0009  0.0442 -0.3099
14427W        W17647   2.976   5.523   3.275 -0.1475 -0.2677  0.0098
14428W        W17648   6.207  10.701   2.042  0.0793  0.2572  0.0953
14429W        W17649   9.643   5.103   4.774 -0.1498 -0.0810  0.0431
14430W        W17650   8.954  15.301   0.393 -0.1044 -0.0533  0.0143
14431W        W17651   2.531  11.667   6.107  0.2007 -0.0289 -0.2081
14432W        W17652   9.787   2.623   7.377 -0.1094  0.2676 -0.3980
14433W        W17653   7.499  10.584   4.436 -0.0059 -0.3136 -0.2164
14434W        W17654   7.824  10.063   8.528  0.3218  0.1133 -0.0589
14435W        W17655   9.103  11.684   3.099  0.0780  0.1490 -0.0033
14436W        W17656   6.466   9.815   3.858  0.3640  0.3711 -0.2217
14437W        W17657   4.712   3.697  14.795 -0.1235 -0.0165  0.1816
14438W        W17658   6.455   8.920   2.933  0.2281 -0.0140  0.1654
14439W        W17659   2.175  17.421   2.849 -0.2819  0.0270 -0.1637
14440W        W17660   3.691   2.996   2.428 -0.2128  0.1106 -0.1272
14441W        W17661  11.669  12.965  17.826  0.0182 -0.2798  0.0120
14442W        W17662   6.260   4.754  14.873 -0.0177  0.0874  0.0522
14443W        W17663   8.449  13.938   6.931  0.1972  0.4269 -0.1223
14444W        W17664   5.807  11.561   3.298 -0.0611 -0.1417  0.1761
14445W        W17665  12.735   8.969   2.612  0.0265  0.1602 -0.0887
14446W        W17666  16.217   0.131   1.133 -0.0603  0.1601 -0.1707
14447W        W17667   2.973   8.958   0.465  0.0194  0.1156 -0.1778
14448W        W17668   7.081  11.266  15.941  0.1232  0.0655 -0.1843
14449W        W17669  13.729   7.510   6.076  0.0552 -0.0404  0.0560
14450W        W17670   8.685   7.248   1.206  0.1180  0.0991 -0.4657
14451W        W17671   1.752  10.505   3.719  0.0631 -0.2443  0.0806
14452W        W17672   2.968   4.837   3.637  0.3162 -0.0042  0.0925
14453W        W17673   9.139   7.492   8.417  0.2618 -0.0880 -0.0606
14454W        W17674  14.479   7.292  16.699  0.0772  0.3991 -0.2485
14455W        W17675   2.051   6.243   6.809  0.0760 -0.3109  0.1146
14456W        W17676  10.202  12.961   6.033  0.2206 -0.3023 -0.0183
14457W        W17677   9.209   4.778   0.241 -0.1876  0.1129 -0.1148
14458W        W17678  11.729  11.238   8.840  0.1656  0.1820  0.3098
14459W        W17679  10.833   6.180   7.051 -0.1332 -0.1405 -0.0437
14460W        W17680   6.913  11.120   7.419 -0.3471  0.0441  0.0887
14461W        W17681   5.874  15.729   3.689 -0.1271  0.1335  0.0584
14462W        W17682   0.800  11.622   0.802  0.0672  0.0589  0.4847
14463W        W17683   3.339  10.668   6.305  0.0784 -0.1281  0.2345
14464W        W17684   3.239   6.849  13.120  0.1971 -0.0205 -0.3990
14465W        W17685  10.840   9.302   3.676  0.2398  0.1458 -0.1084
14466W        W17686  17.778   9.917  11.817  0.1631  0.0592 -0.0007
14467W        W17687   3.881  10.398   4.240  0.1762  0.0962  0.0980
14468W        W17688   7.746  10.470   6.594  0.2390  0.2036  0.1145
14469W        W17689   6.821   7.652   8.398 -0.1256  0.2017  0.1609
14470W        W17690   0.870  16.199   4.062  0.0084  0.4107  0.0416
14471W        W17691  13.054  16.214  15.527  0.0852  0.3424  0.1235
14472W        W17692  11.901   9.738   2.887 -0.2388 -0.1556 -0.0822
14473W        W17693   7.446   8.808   2.546  0.2221  0.0830  0.2727
14474W        W17694   5.328  13.147   9.262 -0.0616  0.0703  0.0706
14475W        W17695   8.576  11.354   4.971  0.2490  0.2829  0.4620
14476W        W17696   9.636   9.162   4.088 -0.1303 -0.2855 -0.0480
14477W        W17697   6.938  10.768   6.110 -0.3114  0.3357 -0.1588
14478W        W17698   6.442   6.607   5.356 -0.1139  0.3375  0.0552
14479W        W17699   8.144  13.172  10.845  0.2360 -0.1127 -0.0429
14480W        W17700   6.499  17.825   8.627 -0.0297  0.0863 -0.0401
14481W        W17701   6.188   8.456   2.748 -0.2582  0.2144 -0.1357
14482W        W17702  14.274   1.292   9.758 -0.0149  0.0506  0.1462
14483W        W17703   4.973   8.089  16.853 -0.2194  0.2005  0.1646
14484W        W17704  10.710   9.287   4.611  0.0317 -0.0938  0.1043
14485W        W17705   6.836  10.082   7.291  0.1293  0.2033 -0.0124
14486W        W17706   4.293   2.172   5.496 -0.0587 -0.2049  0.0699
14487W        W17707  10.640   5.757  13.020  0.0299  0.0095 -0.1382
14488W        W17708  11.042   4.342  10.639  0.0167 -0.2205 -0.2529
14489W        W17709   2.607   4.013   7.233 -0.0606  0.3639 -0.1191
14490W        W17710  12.068   7.468   3.130 -0.1868  0.3550  0.4700
14491W        W17711   2.592   7.263   8.183  0.1184  0.1093 -0.1556
14492W        W17712  10.023   5.304   9.758 -0.0146  0.0620  0.0061
14493W        W17713   5.657   7.109  15.033  0.2336  0.0871 -0.1791
14494W        W17714   9.106   7.436  10.901 -0.0253  0.0850  0.3260
14495W        W17715   8.055   9.274  12.003 -0.1427  0.0131 -0.1058
14496W        W17716  12.168   7.774   2.140 -0.1166  0.1661  0.1852
14497W        W17717  11.773   6.172   7.204 -0.0474 -0.1363 -0.0346
14498W        W17718   2.688   8.822   4.621 -0.3437  0.1146  0.4135
14499W        W17719   7.456  11.029   6.089 -0.0906 -0.1526 -0.1674
14500W        W17720   3.026   5.529   2.685  0.0871 -0.2214 -0.0634
14501W        W17721   0.259   7.733   4.730 -0.2630 -0.1429 -0.0763
14502W        W17722   6.178   3.752   5.888 -0.2576  0.1627 -0.1931
14503W        W17723   6.372   6.048   1.617 -0.2734 -0.2908  0.3252
14504W        W17724  13.472  12.602   6.799  0.0574 -0.0290 -0.0447
14505W        W17725   5.882   9.232   4.274  0.1676 -0.0564 -0.2142
14506W        W17726   4.205  12.848  17.606 -0.0573 -0.3638 -0.1395
14507W        W17727  10.954   4.790   7.961 -0.0221  0.0512 -0.1940
14508W        W17728  11.773  12.768  16.047  0.1547  0.0936 -0.0232
14509W        W17729  15.201   7.363   7.667 -0.1397 -0.2714  0.3057
14510W        W17730   4.768   4.271   5.297 -0.1737 -0.2406  0.1667
14511W        W17731   6.344  14.034   4.094 -0.2101  0.1489 -0.0280
14512W        W17732   7.020  11.883   2.826  0.5119  0.1146  0.0308
14513W        W17733   5.455   1.180   5.308  0.0385  0.0952  0.1557
14514W        W17734   1.370  10.161   8.597  0.1033  0.0022 -0.1396
14515W        W17735   6.707   1.538   4.849 -0.0082 -0.0436 -0.0289
14516W        W17736   9.945   6.004   0.125  0.0238 -0.3130  0.1992
14517W        W17737   4.791  10.737   6.641  0.2031 -0.2996  0.0594
14518W        W17738   2.303   8.472   7.276  0.1469 -0.2345  0.0801
14519W        W17739  17.824   5.132   4.000  0.1564 -0.1226 -0.0994
14520W        W17740   9.403   3.642   5.885  0.0326 -0.0115  0.1570
14521W        W17741   5.520   8.952   4.880 -0.0242  0.2405  0.0600
14522W        W17742   4.658   3.565   4.512  0.0627  0.2896  0.1163
14523W        W17743   4.473  11.073   2.308 -0.0149 -0.3317 -0.3222
14524W        W17744   6.600   0.048   2.548 -0.2315  0.1172  0.1771
14525W        W17745  13.062  12.826   4.635  0.0955  0.1807  0.3937
14526W        W17746   7.036  12.811   6.058  0.0556 -0.1345 -0.1574
14527W        W17747   5.906   3.423   5.119  0.1546 -0.0728  0.1855
14528W        W17748  18.243   8.000   6.419 -0.0810 -0.1200 -0.2236
14529W        W17749  10.876   7.189   7.309  0.0131  0.0035  0.1126
14530W        W17750   5.734  11.772   4.867  0.1321  0.0610 -0.2949
14531W        W17751  10.070   9.895   8.922 -0.1668  0.0841  0.0173
14532W        W17752   4.013   8.254   7.080  0.2965 -0.0399  0.0029
14533W        W17753   7.286   7.811  11.028  0.2249  0.0121  0.0455
14534W        W17754   5.520   7.532   2.194 -0.0696  0.0820 -0.1645
14535W        W17755   6.447   6.192  11.693 -0.0081  0.0509  0.1650
14536W        W17756   3.880   7.302   9.563 -0.1655 -0.0854  0.1448
14537W        W17757  14.997   7.465   4.814  0.1381  0.2130 -0.0482
14538W        W17758   7.232   5.290   2.318 -0.1285 -0.0228 -0.1088
14539W        W17759   6.618  12.400   3.125  0.1374 -0.1382  0.2393
14540W        W17760  13.879  17.978   7.064 -0.0000  0.0829 -0.2188
14541W        W17761   4.070   0.767   8.350  0.0206 -0.1371 -0.3722
14542W        W17762   7.142  11.726   6.686 -0.1056  0.0776  0.0086
14543W        W17763   6.724  13.450   0.543  0.2085  0.4197 -0.0601
14544W        W17764   2.837  12.047   6.020 -0.4192 -0.0299  0.0410
14545W        W17765   9.587   7.119   4.136 -0.2325  0.0040 -0.2756
14546W        W17766   8.545  10.628   0.097 -0.1737  0.1256 -0.3020
14547W        W17767  16.012  11.472  11.781  0.2043  0.0076 -0.2524
14548W        W17768  10.300   8.713   8.103 -0.0901  0.2111 -0.0445
14549W        W17769  12.983  10.308   2.073  0.1592  0.2475 -0.2471
14550W        W17770   6.610  12.241   5.586  0.1192  0.1129 -0.1406
14551W        W17771   6.434  13.788   8.024 -0.1817 -0.2565 -0.1737
14552W        W17772   8.734  12.665   3.633 -0.3757  0.1407 -0.2201
14553W        W17773   6.139   8.748   4.249 -0.0490  0.1892  0.1577
14554W        W17774   9.686   9.144   9.869 -0.2620  0.2452 -0.1060
14555W        W17775   0.732   9.717  16.244 -0.2233  0.0272  0.0927
14556W        W17776   6.317   9.372   8.793 -0.1360  0.0928 -0.1159
14557W        W17777  13.794   3.407   8.233  0.0571  0.0794  0.2683
14558W        W17778   6.005   3.345   6.108 -0.0356 -0.0179 -0.3122
14559W        W17779   5.383   6.202  11.963 -0.1666 -0.0046  0.2279
14560W        W17780   2.200   8.904   6.174 -0.0729 -0.2030  0.3346
14561W        W17781   4.001  18.087   5.282  0.2036  0.0440  0.1111
14562W        W17782  16.081   8.508   7.524  0.3205  0.0791 -0.1054
14563W        W17783   5.655  11.616   1.912  0.0254 -0.1369 -0.0733
14564W        W17784  10.300  11.025   4.114  0.2270  0.0450 -0.0434
14565W        W17785   6.543  10.509   3.077 -0.4411 -0.1297  0.2970
14566W        W17786   8.754  11.236   7.745 -0.3170  0.3196 -0.0418
14567W        W17787  14.858   4.502   1.341  0.2560 -0.0395 -0.0027
14568W        W17788   7.933  11.035   5.749  0.4383 -0.0782 -0.0541
14569W        W17789   5.566  17.689   3.940 -0.4203  0.3465 -0.1286
14570W        W17790   1.020   8.989   2.827 -0.0043 -0.2584  0.0809
14571W        W17791  11.406  10.497  11.499 -0.0055  0.0512 -0.2180
14572W        W17792   5.011   7.885   8.298 -0.0478 -0.0578 -0.2286
14573W        W17793  12.829  10.938  15.896 -0.1061 -0.4829 -0.2626
14574W        W17794   4.703  15.248   0.213  0.1951 -0.0889 -0.1036
14575W        W17795   4.375   7.546   5.121  0.0740 -0.0232 -0.0414
14576W        W17796  10.941   9.098   8.462  0.1116 -0.1099  0.1042
14577W        W17797   7.968   3.562  17.472  0.2878 -0.1081  0.0226
14578W        W17798   4.850   8.409   6.871 -0.0510 -0.0845 -0.2376
14579W        W17799   5.471   4.617   4.866  0.0204 -0.0162  0.1567
14580W        W17800   3.696   9.358   3.417 -0.0024  0.0485 -0.0296
14581W        W17801   8.572  13.646   2.412 -0.2974  0.2294  0.0508
14582W        W17802  10.044   4.004   1.175  0.1107 -0.1553 -0.1973
14583W        W17803  18.011   3.074   9.317  0.3853  0.0700  0.1237
14584W        W17804   6.831  11.466   8.292  0.0734 -0.1159  0.0637
14585W        W17805   9.511   1.701   0.141 -0.2613 -0.0935 -0.0963
14586W        W17806   9.225   0.240   6.444 -0.1288  0.0979 -0.1041
14587W        W17807   4.279   7.122   5.467  0.2057  0.0518 -0.2025
14588W        W17808  17.923   9.501   6.553  0.1393  0.1580 -0.1877
14589W        W17809   5.547  15.219   5.255  0.1799 -0.0613 -0.3085
14590W        W17810   3.236   8.316  17.080 -0.1453 -0.0519 -0.0492
14591W        W17811   4.297   9.999  12.498  0.0678  0.0966 -0.0367
14592W        W17812   9.039   5.913   7.296  0.0247 -0.1281 -0.0163
14593W        W17813  14.544   6.122  18.063  0.0315 -0.0025 -0.1661
14594W        W17814   2.164  13.413   7.062  0.0647  0.1003 -0.0083
14595W        W17815  12.025  10.619  12.535 -0.1832 -0.2028  0.1642
14596W        W17816   5.351   9.144   4.349 -0.0830  0.0447 -0.0172
14597W        W17817  10.568   3.686   7.113  0.0661  0.0556  0.5145
14598W        W17818   0.416  12.039   6.755 -0.0220  0.0389 -0.0721
14599W        W17819  12.697   5.078  10.527 -0.1469 -0.0009  0.2997
14600W        W17820   6.388  10.315   0.549 -0.1426  0.1142  0.2728
14601W        W17821   5.480   7.385   7.100 -0.1898  0.1394 -0.1264
14602W        W17822   3.545   8.414   6.979 -0.1196 -0.2643  0.0087
14603W        W17823  10.059   2.803   4.925 -0.0885  0.2666 -0.2224
14604W        W17824  13.112  12.200   8.313  0.0473  0.0604  0.0333
14605W        W17825   7.510  13.927   1.306  0.2171  0.0447 -0.3581
14606W        W17826   7.215  11.751   8.098  0.2534  0.0283 -0.0977
14607W        W17827   9.289  13.125   6.101  0.3643  0.1368 -0.0258
14608W        W17828   8.949  14.466   6.170  0.0457 -0.1174  0.0125
14609W        W17829   0.440   8.331   7.703 -0.1018  0.0229 -0.2452
14610W        W17830   5.863   6.585  15.200  0.3327  0.2313  0.0315
14611W        W17831   5.617   8.342   5.226  0.0655 -0.3513 -0.1633
14612W        W17832  16.842  10.133   9.409 -0.1860  0.2129 -0.0500
14613W        W17833   2.679   6.378   7.809  0.0735 -0.2294 -0.1432
14614W        W17834   5.427   9.326  17.039  0.4277 -0.0061  0.1036
14615W        W17835  10.204  14.496   4.861  0.1739 -0.1094  0.1631
14616W        W17836   9.626  14.223  18.038 -0.0873  0.2018  0.4874
14617W        W17837   8.350  10.635   6.437 -0.2579  0.2729  0.0674
14618W        W17838  17.789  13.176  13.280  0.0099 -0.1532  0.0785
14619W        W17839   5.828  16.666   6.666 -0.2013  0.1283  0.1290
14620W        W17840   7.048   7.475   8.918  0.5476  0.0184 -0.3689
14621W        W17841  14.973   4.827  13.044 -0.1694  0.0928  0.0855
14622W        W17842   2.991   7.047   9.818  0.2159 -0.1937 -0.1518
14623W        W17843  10.969   4.076   7.325  0.1188 -0.0625 -0.2357
14624W        W17844   9.850   6.693   7.993 -0.0547  0.2916 -0.1911
14625W        W17845   7.857  13.873   9.219 -0.0226  0.3043 -0.2213
14626W        W17846   3.861  12.501   9.180  0.2335 -0.2516  0.1272
14627W        W17847   8.571  15.526  11.172  0.0603  0.0435  0.2691
14628W        W17848   5.901   4.569  13.383 -0.0148 -0.2157  0.1744
14629W        W17849  10.174   3.382   5.486  0.0370 -0.2680  0.0975
14630W        W17850   2.092  10.473   8.693  0.1949  0.3844 -0.0122
14631W        W17851   4.959   5.670   6.360 -0.2697  0.1799  0.1212
14632W        W17852   3.552  14.324  13.945  0.0180  0.1234 -0.1902
14633W        W17853  13.154   4.314  10.252  0.0206  0.1625  0.0472
14634W        W17854   8.976   6.874   7.850  0.0171  0.3511  0.1868
14635W        W17855   9.819   5.058   7.313  0.1115 -0.0280  0.0847
14636W        W17856   7.107   7.808   7.030  0.1666  0.0909  0.1593
14637W        W17857   5.987   4.031  14.305 -0.3325  0.0043 -0.1049
14638W        W17858  15.295   8.854  13.653  0.1872  0.1911 -0.1723
14639W        W17859  12.023   3.497   8.659 -0.1098  0.0634  0.0038
14640W        W17860   2.412   7.793   8.884 -0.3129 -0.1361  0.0819
14641W        W17861   1.723   7.861   9.592 -0.1620 -0.1297  0.3243
14642W        W17862  12.669   7.505   5.965  0.2535  0.1070  0.2261
14643W        W17863   5.414   7.475  13.489  0.1985  0.1126  0.1452
14644W        W17864   0.924   9.919  15.786 -0.0389  0.0720 -0.1449
14645W        W17865   2.350   8.902  10.506  0.1970 -0.0209 -0.1119
14646W        W17866   7.241  11.647  11.487 -0.2807 -0.0326  0.3363
14647W        W17867  11.871   7.774   7.138  0.0610 -0.0264  0.1691
14648W        W17868  16.106   7.108   5.477 -0.0785  0.3877  0.0468
14649W        W17869  17.891   5.688  13.187  0.1804 -0.0807 -0.0094
14650W        W17870   2.386  14.993   7.628 -0.0767  0.2408 -0.0287
14651W        W17871   8.319   2.322   6.894 -0.0865  0.2991  0.0847
14652W        W17872   1.627  13.114   9.809 -0.0006  0.1287 -0.2257
14653W        W17873  14.126  10.080  10.258  0.0835 -0.1008  0.1149
14654W        W17874  12.512  11.693   7.396 -0.1315 -0.0581 -0.3913
14655W        W17875   5.517   7.400   9.902  0.0624  0.3600  0.0575
14656W        W17876   3.965   2.883   0.783 -0.0128  0.0307  0.1289
14657W        W17877   7.370  10.558  10.310  0.2065 -0.2536  0.2885
14658W        W17878   5.135  17.704   9.638 -0.1516 -0.2658  0.3497
14659W        W17879   4.366   5.467  13.560 -0.2506 -0.0660 -0.2903
14660W        W17880   7.542   7.987   7.801  0.0639  0.0765 -0.2573
14661W        W17881   6.761  12.688  14.988 -0.0891  0.0391  0.0455
14662W        W17882   9.136   6.787   8.893  0.2215  0.1143  0.0136
14663W        W17883   8.003   6.331   3.109 -0.2128 -0.0907 -0.3559
14664W        W17884   1.897  14.349   8.264 -0.1141 -0.1297  0.0052
14665W        W17885   5.204   5.179   8.472  0.1765 -0.1604  0.0001
14666W        W17886  12.315   5.620  10.444  0.2466  0.0178 -0.1942
14667W        W17887   8.457   9.864   4.236  0.2398 -0.0185 -0.2072
14668W        W17888  11.642   3.582  15.780  0.1305  0.1850 -0.1431
14669W        W17889  10.873   5.710   2.578 -0.0910  0.1692  0.2001
14670W        W17890   4.352   9.340   6.524  0.0977 -0.2348 -0.1892
14671W        W17891   7.781   8.485  10.795  0.4241  0.1385  0.1695
14672W        W17892   7.770  11.361   0.787 -0.2414 -0.3960  0.2138
14673W        W17893   5.438   6.246   9.003 -0.1573  0.2688 -0.2453
14674W        W17894  10.867   7.423   9.092 -0.1296 -0.0041 -0.0048
14675W        W17895   1.903  11.954   9.605 -0.1215 -0.1154  0.0104
14676W        W17896  10.730   3.870  14.659 -0.0484  0.1632  0.1742
14677W        W17897   8.639   8.003   8.948  0.2233  0.1802  0.0978
14678W        W17898   3.154  10.720   6.745 -0.0602  0.2885 -0.1264
14679W        W17899   0.729   5.359  13.935  0.0809 -0.3528 -0.0498
14680W        W17900   1.937  13.990   8.725 -0.1268  0.1844 -0.3359
14681W        W17901   4.622  12.469   6.093 -0.1093  0.1115 -0.2312
14682W        W17902   2.564  12.659   9.488  0.0336  0.0503 -0.1296
14683W        W17903  10.868  13.138   2.447 -0.3385  0.1273 -0.1650
14684W        W17904  10.368   6.889   8.017 -0.0707 -0.2154  0.1189
14685W        W17905  13.139   3.441   9.015  0.1135  0.1653  0.0483
14686W        W17906  11.659   9.486   5.990  0.0014  0.0264  0.1361
14687W        W17907   9.174   6.997  12.133 -0.0307  0.0497 -0.0806
14688W        W17908  13.633   6.493   6.085  0.0141  0.3042 -0.2353
14689W        W17909   4.573   4.298   8.227  0.0585  0.2198  0.0716
14690W        W17910  16.821   7.828  15.471  0.2132  0.1317  0.1121
14691W        W17911  18.267   5.127   0.529  0.3433 -0.1029 -0.2633
14692W        W17912   6.579  12.992   4.393  0.1034 -0.2068 -0.3764
14693W        W17913   8.086   6.981   7.293  0.0514  0.0698 -0.0477
14694W        W17914   6.804   8.053   9.790  0.1853  0.1747 -0.2417
14695W        W17915   5.165  10.224   4.909  0.2580 -0.1991 -0.2244
14696W        W17916  10.520   5.260  13.926  0.1605  0.1954 -0.1296
14697W        W17917   8.506   7.706   6.775  0.1449  0.0636 -0.0789
14698W        W17918   6.989  15.027  16.894  0.1640 -0.2234  0.0905
14699W        W17919   7.299   5.961   7.133 -0.0757  0.2219 -0.0262
14700W        W17920   9.052  13.388  12.562  0.0547  0.0090  0.1507
14701W        W17921   4.187  12.202  12.222 -0.2912  0.1342  0.2364
14702W        W17922  10.999   8.569  11.638  0.1234 -0.0519 -0.2276
14703W        W17923  10.854   8.861   8.057  0.2546  0.3692 -0.0217
14704W        W17924   3.030  16.699   7.367  0.1559 -0.0107 -0.0967
14705W        W17925   6.550   5.558   6.165  0.1856  0.0186  0.3120
14706W        W17926   0.182   7.220  10.215  0.0296  0.1649 -0.2595
14707W        W17927  11.399   8.627  17.045 -0.0229 -0.2717 -0.0749
14708W        W17928   5.557  12.423   8.590  0.0192  0.0262 -0.1119
14709W        W17929   1.238   6.571  13.062  0.3394  0.0653  0.1314
14710W        W17930   0.510  10.023   3.399 -0.0715 -0.3573 -0.2915
14711W        W17931   6.857   5.986   9.458  0.0065  0.2309 -0.0575
14712W        W17932  11.171   3.385   8.631 -0.2720  0.1379 -0.0567
14713W        W17933   7.553  11.629   1.198 -0.0379 -0.1572 -0.1808
14714W        W17934  10.682   5.550   3.025  0.3528 -0.5575 -0.1743
14715W        W17935  10.579   4.690  14.165  0.0466  0.0308  0.1038
14716W        W17936   3.832   2.101  15.496 -0.1685 -0.0393  0.1059
14717W        W17937   7.476   7.205  15.211 -0.0354 -0.0976  0.0066
14718W        W17938   7.340  12.568   0.906 -0.2656  0.1186  0.0647
14719W        W17939   8.637   6.411  11.039 -0.2890 -0.0583 -0.2382
14720W        W17940   8.460   6.014  11.318 -0.3436  0.0422  0.4249
14721W        W17941   5.323   9.073   8.239 -0.2426 -0.2523 -0.0377
14722W        W17942   6.746   7.786  11.821  0.1911  0.0060 -0.0606
14723W        W17943   9.199  12.102  10.992  0.0634 -0.0941  0.2978
14724W        W17944  17.816   2.237  12.803  0.3379 -0.3538  0.1951
14725W        W17945   7.874  10.354   7.095 -0.3659  0.2782 -0.0291
14726W        W17946   3.690   7.771   5.903  0.2109 -0.2327  0.0388
14727W        W17947   4.817   9.750   3.821  0.1184 -0.0640  0.1313
14728W        W17948   6.137   7.978   1.098  0.0600  0.1689 -0.1260
14729W        W17949   9.310   4.626   9.788 -0.2418  0.0878 -0.0019
14730W        W17950  17.828   8.678  17.425 -0.1448  0.2897  0.0801
14731W        W17951   5.262  10.678  17.604  0.0865  0.1466  0.0961
14732W        W17952   7.065  16.923  16.514  0.0378  0.2467  0.1313
14733W        W17953   3.395  17.220   4.642 -0.2977  0.0345  0.0818
14734W        W17954   3.486   2.101  12.918 -0.0467 -0.0944  0.1959
14735W        W17955   6.373   7.174   9.618  0.0214 -0.3874  0.0169
14736W        W17956   9.448  11.917   9.753 -0.0142  0.0749 -0.1294
14737W        W17957   6.845   5.634  12.177 -0.0014 -0.2021 -0.1202
14738W        W17958   0.438  15.057  12.729 -0.2020 -0.1267 -0.0670
14739W        W17959   8.867  11.504  12.954  0.1910 -0.1219  0.2363
14740W        W17960   3.260   1.844   5.296  0.1266  0.0238  0.0176
14741W        W17961   7.491  15.034  10.209  0.0368 -0.1455 -0.0214
14742W        W17962   2.241   9.892  15.759 -0.1856  0.1805  0.0685
14743W        W17963  10.072   7.581   9.511  0.1838  0.1343 -0.0805
14744W        W17964  14.139   3.125   6.000 -0.1327  0.0839  0.0355
14745W        W17965  10.088   5.975  13.901  0.1807 -0.1042  0.1432
14746W        W17966   9.821   8.111   8.875  0.3455  0.3133  0.0459
14747W        W17967   6.499   7.356   8.042 -0.0927 -0.6249 -0.0114
14748W        W17968   6.582   9.465  15.838 -0.0962 -0.0883 -0.1258
14749W        W17969  10.111   1.163  15.795 -0.2232 -0.0936 -0.2135
14750W        W17970  10.024   3.705   8.824 -0.1088 -0.0904  0.0949
14751W        W17971   1.237   6.163   9.055 -0.0051  0.3145 -0.0606
14752W        W17972   6.025  15.755   8.745  0.1963 -0.2623  0.1505
14753W        W17973   3.632   1.015   8.547  0.0279  0.1279 -0.3320
14754W        W17974   3.912   5.939  11.341  0.2508 -0.0033 -0.1799
14755W        W17975   5.553   9.545  12.941  0.2223 -0.0607 -0.0194
14756W        W17976  10.468   8.811   5.871  0.1796  0.1410 -0.1040
14757W        W17977   6.753   4.040  18.193 -0.0999  0.0179 -0.0367
14758W        W17978   3.386  12.759   9.090  0.1223  0.0347 -0.1721
14759W        W17979   4.788   7.260  11.720 -0.0876  0.1630  0.1934
14760W        W17980   5.655  12.741  10.344 -0.0742  0.3206 -0.0282
14761W        W17981  11.916  12.477   2.979 -0.0808  0.1147 -0.1282
14762W        W17982   4.765  17.492   8.802  0.0847 -0.1341 -0.3706
14763W        W17983   5.921  11.932   5.333  0.1183 -0.2887 -0.0995
14764W        W17984   8.130   3.996   8.804  0.0504 -0.1098  0.4325
14765W        W17985   3.554   2.615  12.768 -0.1239 -0.0861  0.1792
14766W        W17986  12.462  11.355  15.803  0.0673 -0.1076 -0.0083
14767W        W17987   2.949  16.863  11.962  0.0572 -0.0979 -0.2769
14768W        W17988  10.478   6.168   1.875 -0.1743  0.1404 -0.1993
14769W        W17989   7.996   0.160   9.319 -0.3038 -0.1614  0.1223
14770W        W17990   1.403   9.200   8.359 -0.0862 -0.2061  0.3023
14771W        W17991   2.096   8.266  15.580 -0.2499 -0.2126  0.0680
14772W        W17992   3.249   9.325  11.388 -0.0901  0.1262  0.2973
14773W        W17993   1.707  14.341  11.636  0.0448 -0.0511  0.3052
14774W        W17994   6.679   8.974  16.125 -0.0619  0.2135  0.1343
14775W        W17995   6.794  11.977   8.395  0.1366  0.0996  0.2785
14776W        W17996  11.588   3.605   7.191  0.1949  0.1612  0.1276
14777W        W17997   8.415   9.986  14.640  0.1895  0.0460  0.1554
14778W        W17998   1.309   0.205  17.273 -0.2027  0.0831 -0.1156
14779W        W17999   2.245  11.550  13.312 -0.0134 -0.0820 -0.1341
14780W        W18000   8.301  12.186   1.940 -0.1243 -0.0477  0.1058
14781W        W18001   2.337  17.261   7.635  0.0324  0.1924 -0.1740
14782W        W18002   4.657   8.934   4.929  0.0493 -0.2719  0.0786
14783W        W18003   5.519   4.809  10.167  0.1699  0.0129 -0.1779
14784W        W18004  17.270   2.448   1.767  0.1315  0.0954 -0.0859
14785W        W18005  13.693   9.308   6.553 -0.0435  0.4804 -0.4110
14786W        W18006   5.194  12.508  11.914 -0.1311  0.0363  0.2048
14787W        W18007   7.117   5.897   6.246 -0.0071  0.2485 -0.0408
14788W        W18008   8.538   8.922   3.953 -0.1199  0.0690  0.0242
14789W        W18009   1.840  17.902  12.622 -0.1501 -0.3659 -0.0626
14790W        W18010  12.287   6.892   7.399 -0.4012 -0.1732  0.1622
14791W        W18011   5.666   9.424  17.584 -0.0795 -0.0133  0.1832
14792W        W18012  10.112  16.939   6.109  0.1092  0.2602  0.1889
14793W        W18013   5.697   7.186   9.072 -0.0514  0.0971  0.1479
14794W        W18014   5.223   8.720   5.262 -0.1115 -0.0425 -0.0295
14795W        W18015   1.497   7.273  14.387  0.1084  0.1552 -0.0339
14796W        W18016  11.370   5.917   7.160 -0.0818 -0.0113 -0.1714
14797W        W18017  13.991   8.085   2.745  0.2732 -0.0797 -0.2725
14798W        W18018   5.143   8.960   9.684 -0.2061 -0.0740 -0.0478
14799W        W18019   4.645   1.659   6.466 -0.0103  0.2154  0.0408
14800W        W18020   2.539   4.813  13.128 -0.1912 -0.1890  0.2034
14801W        W18021   7.420   4.747   2.008  0.0441  0.0462  0.0120
14802W        W18022   6.165   7.568  10.992 -0.0969 -0.1150 -0.1632
14803W        W18023  17.725  16.453  11.002 -0.1417 -0.0861  0.3408
14804W        W18024   8.521   4.464  12.317  0.0930 -0.6387  0.2121
14805W        W18025   5.827   3.082   6.512 -0.0925 -0.2783 -0.1301
14806W        W18026   7.650   0.179   8.820  0.2120  0.0380 -0.0161
14807W        W18027  11.555  11.177   3.074 -0.2399 -0.1177 -0.0676
14808W        W18028   5.335   9.766   6.114 -0.0403  0.0913 -0.0003
14809W        W18029  10.627   4.583   9.774 -0.1603 -0.0344  0.0119
14810W        W18030   5.084   7.079   7.226 -0.0771 -0.2048  0.0471
14811W        W18031   3.900   1.651   7.845 -0.0221  0.0149 -0.3647
14812W        W18032   9.525   6.134  11.487  0.0540 -0.0418 -0.1956
14813W        W18033   2.131   3.951   5.991 -0.1578 -0.1635  0.1145
14814W        W18034  10.356   4.691   2.069 -0.0494  0.0126  0.0465
14815W        W18035   4.982  11.625  13.756  0.1452 -0.1621 -0.1529
14816W        W18036   8.810  12.587   8.267  0.2038 -0.2279 -0.4872
14817W        W18037   3.415  12.121  13.801 -0.1361  0.0369 -0.2652
14818W        W18038   7.148  13.856   5.217  0.1725  0.1018 -0.0008
14819W        W18039   5.997  13.760   4.444  0.3822  0.2910 -0.0725
14820W        W18040   4.085  12.240  12.718  0.1754 -0.1212 -0.0951
14821W        W18041  10.592   7.248  16.230 -0.2118  0.0515  0.0607
14822W        W18042   4.722   1.329  17.250  0.2303  0.0731 -0.0203
14823W        W18043   5.517  12.500   1.571 -0.0248  0.2714  0.3142
14824W        W18044   9.998  12.670   2.548 -0.0147 -0.0078  0.0974
14825W        W18045  10.282   6.300   4.921 -0.1169 -0.1358  0.0753
14826W        W18046   5.649  13.006   4.643 -0.1612  0.0731  0.3393
14827W        W18047   0.591  11.627  13.474 -0.2087 -0.0701 -0.1476
14828W        W18048   5.682   9.100  12.242 -0.1092 -0.1407  0.3213
14829W        W18049  12.353  10.180   8.325  0.0013 -0.1670  0.3248
14830W        W18050   4.617   2.721  11.440  0.1255 -0.1811 -0.1314
14831W        W18051   2.978  11.836   8.453 -0.2034  0.0678 -0.3934
14832W        W18052   3.782   9.469   8.272 -0.0542  0.1755 -0.2101
14833W        W18053   8.107  10.927  14.683 -0.1084  0.1949 -0.1204
14834W        W18054   1.817   6.917  12.464  0.0104 -0.3914  0.1828
14835W        W18055  11.793   5.749  10.240 -0.0656 -0.1423  0.1606
14836W        W18056  14.697  12.326  10.898  0.2262 -0.0940  0.1657
14837W        W18057   4.479   9.226   9.871  0.1237 -0.1917 -0.0567
14838W        W18058   2.008   5.461  16.595 -0.2818 -0.2072  0.1204
14839W        W18059   7.444  10.876   8.898 -0.1836  0.0245  0.1233
14840W        W18060   2.015   8.269   2.525 -0.0611 -0.1575  0.0549
14841W        W18061   8.193  13.877   5.839 -0.1050 -0.1929  0.1173
14842W        W18062  11.653   7.136   6.895  0.1853 -0.2295 -0.0431
14843W        W18063  12.975  10.867  10.091  0.0303 -0.2792  0.0229
14844W        W18064   7.511   6.975  11.086 -0.0169 -0.1046 -0.1947
14845W        W18065   7.431   9.675   2.339  0.2983 -0.1306  0.0829
14846W        W18066   8.908   8.993   5.430  0.1309 -0.0515  0.3470
14847W        W18067   8.554   0.461  16.463 -0.1703 -0.0681  0.2146
14848W        W18068   3.524   8.045   9.568 -0.0662  0.1429 -0.1661
14849W        W18069   0.123   4.813  13.224 -0.0764 -0.0106  0.1128
14850W        W18070   8.068   4.561   8.545 -0.0773 -0.0804  0.2003
14851W        W18071   8.133   8.227   8.659 -0.0186  0.0353 -0.3031
14852W        W18072   6.104  11.432   5.198 -0.0375  0.1563  0.0740
14853W        W18073  15.688  12.376   0.070  0.2027  0.1234  0.0341
14854W        W18074  17.160  13.971  12.251  0.0058  0.0747  0.0705
14855W        W18075   5.236  14.552  11.118  0.3755  0.0435 -0.2185
14856W        W18076   9.197  13.711   4.784 -0.1366  0.0269 -0.1683
14857W        W18077  10.457   0.931   6.601  0.0971  0.0667 -0.0184
14858W        W18078   7.538   0.527  11.669 -0.0043  0.0450  0.0303
14859W        W18079  10.869  11.977   7.951 -0.0383 -0.1671 -0.2306
14860W        W18080   3.944   5.090   9.275  0.0669 -0.2434 -0.3152
14861W        W18081   3.194   9.477   5.598 -0.1080  0.1492  0.3230
14862W        W18082   5.322   9.052  15.125 -0.4518  0.2494  0.0262
14863W        W18083   6.034  15.236   6.366  0.0329  0.1232  0.5522
14864W        W18084   7.762   5.412  11.528 -0.1262 -0.0095  0.1220
14865W        W18085   4.692   9.684   9.121 -0.1690 -0.0644 -0.2098
14866W        W18086   9.592  10.589   6.433  0.1039 -0.0512 -0.0443
14867W        W18087   3.526  16.458  14.633 -0.0083 -0.3738  0.1533
14868W        W18088   3.567   7.009   8.009 -0.0129  0.0024  0.2347
14869W        W18089   5.568   5.799   3.818 -0.0152 -0.0738  0.1899
14870W        W18090   2.747  15.533   5.544  0.1329  0.4037  0.2244
14871W        W18091   4.306   3.950   5.453 -0.0658 -0.0193  0.0203
14872W        W18092   8.049   8.164  15.221 -0.0053  0.0786  0.0606
14873W        W18093   5.821  15.201   3.898 -0.0901  0.0737 -0.0319
14874W        W18094   9.079   6.468   7.503  0.1337 -0.0340  0.1096
14875W        W18095   4.917   6.620  10.002 -0.0635  0.1496  0.1211
14876W        W18096   3.019   6.768   5.594 -0.1805 -0.3627 -0.1423
14877W        W18097   3.553   2.814   8.943  0.0368 -0.0693 -0.0856
14878W        W18098   9.537   3.702  13.275  0.2011 -0.0628  0.1147
14879W        W18099  10.252   5.440  13.120 -0.1082  0.3171  0.2886
14880W        W18100   2.119   5.988  13.603 -0.0467 -0.1977 -0.0395
14881W        W18101   4.415   1.967  15.399 -0.0275  0.0372  0.0283
14882W        W18102   9.266   8.574   9.199  0.3139 -0.1541  0.2382
14883W        W18103   7.532   8.902   9.901  0.0738  0.2506 -0.2124
14884W        W18104   2.531   5.269   9.853  0.1856  0.2182  0.0062
14885W        W18105   2.515   7.864  18.070 -0.0865  0.0267 -0.0138
14886W        W18106   5.272  10.727   9.627 -0.0181  0.1906 -0.3312
14887W        W18107   5.477  14.138  10.826  0.2421 -0.1333  0.0610
14888W        W18108   4.318   7.297   2.547  0.1684 -0.0548  0.1979
14889W        W18109   6.771   4.574  11.066 -0.1081 -0.0393  0.1658
14890W        W18110   9.251   5.815  11.808  0.0552  0.0181 -0.0722
14891W        W18111   6.341   3.512  12.875  0.3560  0.3351 -0.1023
14892W        W18112  13.804   6.997   7.997 -0.0108 -0.2105 -0.0979
14893W        W18113   7.627   7.154  10.240 -0.1431  0.0574 -0.1960
14894W        W18114  11.934   6.781   2.739  0.0080  0.0990  0.1602
14895W        W18115   3.505  14.636  12.141  0.1265 -0.1097  0.0995
14896W        W18116   9.742   3.964   4.173 -0.0058  0.1078 -0.3358
14897W        W18117  11.113   7.149   6.874 -0.2864 -0.3138 -0.0685
14898W        W18118   7.357   9.605  13.202  0.0542  0.0203 -0.1564
14899W        W18119   4.895  10.151   7.908 -0.1809  0.1150 -0.1671
14900W        W18120   1.128   8.431   4.665 -0.2688  0.2776 -0.0483
14901W        W18121  10.648   8.189   8.526  0.3944 -0.0557 -0.3209
14902W        W18122  15.331  13.496   8.857 -0.0212 -0.1131  0.0615
14903W        W18123   8.409  11.786   6.771 -0.0689 -0.1008 -0.0574
14904W        W18124   1.905  11.911   0.952  0.1124 -0.2453 -0.2247
14905W        W18125   4.176   1.941   9.652  0.0854  0.0454  0.0266
14906W        W18126   0.924  13.018   2.308  0.0918  0.2062 -0.3035
14907W        W18127   2.207   6.708   7.739 -0.0619  0.0452 -0.1693
14908W        W18128   7.531   9.235   7.186 -0.2219  0.0239  0.1199
14909W        W18129   0.401   5.288  12.060 -0.0159  0.1042  0.1074
14910W        W18130  13.922  11.985   3.979 -0.0275 -0.1063 -0.1825
14911W        W18131  11.336  12.899  10.325 -0.0757  0.1581 -0.3164
14912W        W18132  13.717   5.297   5.483 -0.1836  0.3127 -0.0909
14913W        W18133   9.356   7.053  11.242  0.0076  0.1288  0.1921
14914W        W18134  17.772   8.038  10.194 -0.0659  0.0564  0.0581
14915W        W18135   1.655   2.764   4.766  0.1927 -0.0244  0.2807
14916W        W18136   8.810  10.234  14.798  0.3724  0.1973 -0.0391
14917W        W18137  13.402   4.267  12.764  0.4008 -0.0073  0.0436
14918W        W18138  10.183   4.901  11.466 -0.0709  0.0917 -0.0276
14919W        W18139   3.463   7.717   8.729  0.1462 -0.2031  0.0882
14920W        W18140   4.735  10.842   9.678  0.1203  0.1741 -0.1091
14921W        W18141   6.134   7.439   6.924 -0.3080  0.0936 -0.2536
14922W        W18142   7.433   6.231   0.196  0.0527 -0.2638  0.2015
14923W        W18143   3.179   4.945   8.607  0.2956 -0.0487  0.0347
14924W        W18144   4.822  12.301   9.058  0.2396 -0.0758 -0.2304
14925W        W18145  10.264  12.829   6.950 -0.2491  0.0882 -0.1449
14926W        W18146  10.609  10.709  12.948 -0.0747 -0.2189  0.1040
14927W        W18147   6.637   5.979   8.006 -0.0484 -0.1300 -0.2851
14928W        W18148   3.826  17.639   3.066 -0.1238  0.0199  0.0309
14929W        W18149  17.471  12.445   5.213  0.0764 -0.4350 -0.0256
14930W        W18150   4.338  11.790   9.090  0.3020  0.0878 -0.1262
14931W        W18151   0.738   6.544  13.160  0.1601  0.4774  0.1048
14932W        W18152   5.280  14.572   7.394  0.1045 -0.2744  0.0673
14933W        W18153   7.921  12.811   1.095 -0.1073  0.1232 -0.0813
14934W        W18154   6.256  11.120   6.570  0.0816 -0.2677 -0.0380
14935W        W18155  11.046   6.221   5.383 -0.1581 -0.1013  0.0262
14936W        W18156  12.349   8.001  12.410 -0.0761 -0.1205  0.1568
14937W        W18157   8.473   5.550  13.307 -0.0822 -0.1220 -0.4614
14938W        W18158  10.961   5.171  10.541  0.2978  0.2380 -0.0665
14939W        W18159   5.300   4.463  11.807  0.2659  0.3487  0.1206
14940W        W18160   6.886   6.132  16.493  0.1151 -0.0111 -0.0697
14941W        W18161   7.612  12.493   1.367  0.3043 -0.1166 -0.0123
14942W        W18162   9.197  11.241   8.081 -0.3112  0.2001  0.0146
14943W        W18163   2.937   2.961   8.985 -0.0319  0.4589 -0.0939
14944W        W18164   4.489   4.348   1.486  0.0859 -0.1088 -0.3107
14945W        W18165   3.719  16.030  16.681 -0.2238  0.1573  0.0588
14946W        W18166   4.965  10.314  13.774  0.1528  0.0484  0.2353
14947W        W18167   9.788   6.139   2.278 -0.1511 -0.1674 -0.0724
14948W        W18168   6.054  10.307   0.170  0.0509  0.1015 -0.1031
14949W        W18169   3.429  11.829  11.967 -0.1522  0.2865 -0.0106
14950W        W18170   2.576  11.510   4.736 -0.3460 -0.1669 -0.0221
14951W        W18171   3.752   1.837   5.376  0.2348 -0.1588  0.2191
14952W        W18172   5.192   9.382  12.223  0.0657  0.1392  0.1167
14953W        W18173   1.606   5.020  18.019  0.0062  0.1227 -0.0985
14954W        W18174   3.363   8.895   7.316  0.0897 -0.2871  0.0067
14955W        W18175  15.364  14.980   6.143  0.1241 -0.3085  0.3787
14956W        W18176   9.524   9.597  12.758 -0.1069  0.1853 -0.1634
14957W        W18177   8.297   9.309   6.630  0.0189 -0.0002 -0.2876
14958W        W18178   3.543   2.654   4.900 -0.1045 -0.0474 -0.1625
14959W        W18179   6.152   5.251  17.999  0.2879 -0.0619 -0.4222
14960W        W18180   1.893  11.629  11.767 -0.0112  0.1856  0.0483
14961W        W18181   3.281   7.142   9.410  0.0436 -0.1706  0.0249
14962W        W18182   8.636   9.351  17.596  0.1249  0.1032 -0.2322
14963W        W18183   6.876  13.904  11.650  0.0343 -0.2811  0.0754
14964W        W18184   2.172   2.816   3.673  0.0555  0.1772  0.1764
14965W        W18185   7.366   4.466  12.075 -0.0744  0.2893  0.1134
14966W        W18186   1.576   9.660   5.341  0.1053 -0.0128 -0.1228
14967W        W18187   7.882   6.222   5.822 -0.1702  0.4735  0.0896
14968W        W18188   6.111   9.762  14.213  0.1323  0.1935 -0.0575
14969W        W18189   9.415  12.357   6.958 -0.1170 -0.3558 -0.0783
14970W        W18190  12.804   0.386   9.847  0.0610  0.0445 -0.3027
14971W        W18191  11.163   7.067   8.761 -0.0580 -0.1035 -0.1861
14972W        W18192   5.513   3.504   5.500 -0.1501  0.1901  0.2518
14973W        W18193  14.532   4.457  10.005 -0.2491 -0.2383  0.0472
14974W        W18194   3.979   9.311   0.975  0.1682 -0.0026  0.0936
14975W        W18195  13.231   2.960  11.435 -0.2538 -0.0453 -0.0443
14976W        W18196   9.220  12.827   7.014 -0.2653  0.1907 -0.0714
14977W        W18197   0.878   3.615  14.122 -0.0504 -0.0308  0.0114
14978W        W18198   8.823   6.102   9.710 -0.1669  0.2169  0.1672
14979W        W18199   2.443  11.655  14.846 -0.1023 -0.1485  0.1382
14980W        W18200   7.678   7.776  14.738  0.4199  0.1091 -0.5125
14981W        W18201   5.965  13.415  11.337  0.1449 -0.2832 -0.2682
14982W        W18202   2.762   6.802  13.765 -0.1138  0.0386 -0.0262
14983W        W18203   7.882  10.422  10.207  0.2791 -0.3253  0.0007
14984W        W18204   7.707   8.062   4.689 -0.0665 -0.0859 -0.1766
14985W        W18205   2.173   8.017   6.352 -0.1337  0.0125  0.1280
14986W        W18206   7.067  13.713  10.417  0.2015 -0.1527  0.0332
14987W        W18207  10.141   8.701   6.464 -0.1147 -0.2251 -0.1190
14988W        W18208  13.428  10.729   7.161  0.1243 -0.1141 -0.2574
14989W        W18209   6.574   3.450   7.616  0.2673  0.0275  0.0559
14990W        W18210   3.797  10.944  15.134 -0.1024  0.0479 -0.0728
14991W        W18211   6.925  16.358  11.732  0.2664  0.0257 -0.0483
14992W        W18212   3.577  12.142   4.542  0.0552  0.2147 -0.0814
14993W        W18213   4.945  12.095  11.168  0.0377  0.1702  0.1011
14994W        W18214   5.136  11.009  17.240  0.0607  0.0138  0.0087
14995W        W18215   2.917  16.117  13.097 -0.0290  0.2463 -0.1949
14996W        W18216   3.444   6.860   9.839 -0.2610 -0.0095 -0.1677
14997W        W18217   3.351   1.555   7.815  0.1380 -0.0651 -0.1961
14998W        W18218   4.589  10.096   4.188 -0.1492  0.3519 -0.0291
14999W        W18219  18.214  13.337  16.686  0.1355  0.1294 -0.1446
15000W        W18220   9.422   4.614  10.508  0.0666 -0.2370  0.0661
15001W        W18221  12.634  12.282  11.001 -0.2462 -0.2816  0.1479
15002W        W18222   9.956  11.038  10.811 -0.0553 -0.1436 -0.1042
15003W        W18223   5.408   3.107  12.485  0.2185 -0.2832  0.0246
15004W        W18224   2.169  13.539  11.519  0.1391  0.1460 -0.1122
15005W        W18225  13.569   8.211  14.092 -0.1143 -0.1736  0.1604
15006W        W18226  12.336  14.252   8.728  0.1668  0.2884 -0.1734
15007W        W18227   8.584  17.634  11.336  0.0241 -0.1553  0.1707
15008W        W18228   1.025  13.942  12.602  0.1328 -0.2992  0.0936
15009W        W18229  18.103   4.641   1.447 -0.0315 -0.0709  0.1932
15010W        W18230   1.306   7.763   0.584  0.0441  0.0938  0.1514
15011W        W18231  15.697  16.365  17.680  0.0227  0.0739 -0.1487
15012W        W18232  17.747   1.279   7.619  0.0374  0.0378  0.0689
15013W        W18233   5.532  10.146  16.637  0.1588  0.1410 -0.0391
15014W        W18234   8.268   6.289  17.267 -0.0678  0.0730 -0.0161
15015W        W18235  16.842  18.137  15.993 -0.1493  0.3713 -0.0689
15016W        W18236  11.452   6.649  11.078 -0.3213  0.2634 -0.1562
15017W        W18237   1.365   7.173  11.307  0.3439  0.1056 -0.0592
15018W        W18238   1.559  15.048   9.085 -0.2004 -0.3914 -0.1216
15019W        W18239   3.785   7.950   0.675  0.1452  0.2356  0.2021
15020W        W18240   5.009  14.531  15.521 -0.2115 -0.1422 -0.2410
15021W        W18241   9.204   8.282   3.632  0.1999  0.0743  0.0634
15022W        W18242  17.151   5.896  16.390  0.1330 -0.0488  0.1058
15023W        W18243   7.510  11.350   7.895 -0.3368  0.4145  0.2900
15024W        W18244  12.849   7.417  10.464 -0.1315  0.0553  0.0578
15025W        W18245   2.221   4.488   0.828  0.0942  0.2358 -0.0765
15026W        W18246   7.507  17.648  16.823 -0.2922 -0.2075  0.0964
15027W        W18247   5.394  13.954  10.343 -0.1905  0.1943 -0.0402
15028W        W18248   7.243   8.026  11.859  0.0266  0.0091  0.2148
15029W        W18249   6.455  15.708  13.056 -0.0918  0.2357 -0.1353
15030W        W18250   7.413   7.996  18.243  0.0495  0.0335  0.0058
15031W        W18251   8.009   9.569   0.039 -0.2959  0.2623 -0.2166
15032W        W18252   2.526   6.579  17.021  0.0835 -0.3191  0.0250
15033W        W18253   8.112   2.220  14.469 -0.2867 -0.2056  0.3927
15034W        W18254   1.064   6.991  14.240 -0.0502 -0.1519 -0.3734
15035W        W18255   1.740   9.159   2.428  0.2204 -0.3842 -0.2109
15036W        W18256   4.381  11.412  11.460  0.0885  0.0522  0.1022
15037W        W18257   7.236  13.302  16.242  0.1646  0.2709  0.1963
15038W        W18258  10.834   6.040  10.923 -0.0543  0.1540  0.5237
15039W        W18259   7.126   7.337  11.053 -0.0327  0.1123  0.1381
15040W        W18260   4.079   6.506  13.847  0.0022 -0.2348  0.0382
15041W        W18261   5.506   8.505  14.777 -0.4332  0.1569 -0.0375
15042W        W18262   4.061  11.955   7.952 -0.0399 -0.0506 -0.1295
15043W        W18263  11.059   9.239  12.626  0.0356  0.1033 -0.3217
15044W        W18264   0.012   2.213  18.260 -0.2648 -0.5414  0.3166
15045W        W18265   3.184   9.762  10.052 -0.0192 -0.0278  0.0600
15046W        W18266   4.852  17.344  11.901  0.1293 -0.2379  0.1668
15047W        W18267   2.463   9.020  10.971 -0.0356  0.3572 -0.0563
15048W        W18268   9.883   9.991   5.311 -0.2308 -0.2060 -0.1248
15049W        W18269   9.785   6.894  11.034 -0.1065 -0.2359 -0.0617
15050W        W18270   4.026   9.827   0.102 -0.0663  0.1407  0.2723
15051W        W18271   0.635   8.699  17.494 -0.0231 -0.1163 -0.2081
15052W        W18272   2.840  10.190  10.879 -0.1137  0.1572 -0.2505
15053W        W18273   8.770   2.983   9.159 -0.3149  0.2869 -0.0314
15054W        W18274  11.607  16.069   7.282 -0.0888 -0.1923 -0.4470
15055W        W18275  13.237   8.718  12.297 -0.0642  0.0767  0.1547
15056W        W18276   4.586   3.082   9.780 -0.4838 -0.5174  0.1349
15057W        W18277  14.417   8.140  15.277 -0.0021 -0.1774  0.1795
15058W        W18278   9.213  11.853   6.797  0.2221  0.1128 -0.1778
15059W        W18279  15.540  13.736   9.693 -0.1714  0.3685  0.0542
15060W        W18280  11.583  13.352  11.194 -0.2401  0.1264  0.0921
15061W        W18281   8.740   7.731  15.690  0.0845 -0.1044  0.0400
15062W        W18282   5.732   6.911  15.532 -0.0396 -0.2115  0.3887
15063W        W18283   0.928  13.927  15.640 -0.1916  0.1058 -0.1483
15064W        W18284   6.822   5.638  10.409  0.0838  0.0728  0.0757
15065W        W18285  11.853   6.629  13.255 -0.1361  0.2074 -0.1974
15066W        W18286   1.511   8.850  17.212  0.2299 -0.3723 -0.0348
15067W        W18287  18.077   7.668  13.841 -0.1101  0.0089 -0.1670
15068W        W18288  11.492   2.295   7.626 -0.1376  0.1464 -0.1499
15069W        W18289  10.824   4.715   0.291 -0.0586 -0.3755  0.1171
15070W        W18290   8.631  12.958  16.517 -0.3359  0.3010  0.0348
15071W        W18291   6.207   6.199  10.147 -0.0301  0.2426  0.1744
15072W        W18292   2.877  13.156  13.195  0.0989 -0.1742 -0.1339
15073W        W18293   7.998  13.324  14.853  0.2652 -0.0111  0.0878
15074W        W18294   5.705  10.105   6.300 -0.1333 -0.2030  0.0824
15075W        W18295  18.132   9.602   9.402 -0.4153 -0.1868 -0.2999
15076W        W18296   2.568   4.036  14.227  0.3530  0.0815  0.3066
15077W        W18297   5.129  10.700  13.317  0.2465 -0.1755 -0.0111
15078W        W18298   2.723   6.141   1.510  0.1103  0.3613  0.2216
15079W        W18299   7.613  11.791   5.543  0.0121 -0.0001  0.0027
15080W        W18300   4.871   8.917   1.427 -0.3054 -0.1065  0.0928
15081W        W18301  17.441  17.661  17.415 -0.0430 -0.2186 -0.3644
15082W        W18302   7.677   9.807  13.945 -0.0650 -0.0198 -0.1461
15083W        W18303   3.963   8.490  11.069 -0.0077 -0.1761 -0.1619
15084W        W18304   6.972  14.292  13.699 -0.1815 -0.1453  0.1614
15085W        W18305   9.363   3.417  15.426  0.0201 -0.4421 -0.2560
15086W        W18306   5.697  10.071  10.005 -0.2590 -0.0077 -0.0856
15087W        W18307   0.643   4.142  14.776 -0.0962 -0.3641 -0.3021
15088W        W18308   5.937   7.215  12.667  0.1174  0.0933 -0.1256
15089W        W18309  16.552   3.575  10.039  0.0863  0.1492 -0.0952
15090W        W18310   7.861   3.104  18.207  0.1201 -0.0151  0.0023
15091W        W18311   3.673   7.356  14.860  0.1353 -0.0530  0.1127
15092W        W18312  10.857  10.787   8.322  0.2205 -0.1022 -0.2557
15093W        W18313   2.668  11.163  13.326  0.1884  0.0228 -0.0230
15094W        W18314   6.218   1.308  10.784 -0.1981  0.0225 -0.0026
15095W        W18315   8.104  17.562   8.891  0.1756 -0.3680 -0.3915
15096W        W18316  15.261  13.410  15.243 -0.2031 -0.0177 -0.3246
15097W        W18317   2.453  13.967  17.166  0.2603 -0.1242 -0.0281
15098W        W18318   5.978   7.136  13.244  0.2140 -0.0706 -0.1371
15099W        W18319   8.857   4.688  13.965 -0.2314 -0.0270  0.0034
15100W        W18320   6.082   1.071  18.116 -0.0510 -0.2296  0.0933
15101W        W18321  10.922   3.963  17.271 -0.2559  0.1660 -0.3804
15102W        W18322  12.966   3.329   0.023 -0.1668  0.1723  0.1647
15103W        W18323  15.866  12.694   2.378 -0.0940  0.1223  0.4538
15104W        W18324  13.046  17.990   8.022 -0.1535 -0.0423  0.0986
15105W        W18325   1.568  12.615  16.674 -0.0699 -0.0340 -0.5104
15106W        W18326  10.593   5.006  10.095  0.0730 -0.0433 -0.0651
15107W        W18327   8.117   4.892   1.092 -0.1012 -0.1487  0.0029
15108W        W18328   8.486   5.163   0.029  0.2450 -0.0117 -0.0793
15109W        W18329   6.147   9.925   1.032 -0.0509  0.0602 -0.1536
15110W        W18330   2.880  10.293  12.767  0.6543  0.0574 -0.1794
15111W        W18331   3.712  12.866  10.992  0.1743 -0.1212  0.2469
15112W        W18332   5.832   4.235  12.381  0.2390  0.0912 -0.0379
15113W        W18333   0.943  13.339  13.575 -0.2837  0.0068 -0.1469
15114W        W18334  17.619  14.537  10.255  0.1998 -0.0734  0.0537
15115W        W18335   0.259  10.271  15.116 -0.3939  0.2143  0.2105
15116W        W18336   2.110   7.284  17.403 -0.0376  0.0742  0.0097
15117W        W18337   7.573  15.890  11.692 -0.4292  0.5062  0.0539
15118W        W18338   1.151   1.278  10.196  0.1211  0.2949  0.2670
15119W        W18339   8.744   7.546   9.715  0.3762 -0.0647  0.3245
15120W        W18340   3.303   4.371   1.095  0.1054  0.2258  0.1676
15121W        W18341  15.426   8.241  10.657  0.4063 -0.4489  0.1311
15122W        W18342   7.419  13.285  13.044  0.0613 -0.0463  0.3796
15123W        W18343   6.470  13.671  10.505 -0.2545  0.1072 -0.1017
15124W        W18344   1.041  12.808  13.468  0.0377 -0.1092  0.0698
15125W        W18345   0.884   5.997  10.954 -0.1186 -0.0060  0.1011
15126W        W18346   5.804  11.399   1.009  0.0138  0.0376 -0.1718
15127W        W18347   8.430  10.981  16.920  0.4186 -0.1232 -0.0949
15128W        W18348  17.163  10.100  14.236 -0.1456  0.2249  0.1221
15129W        W18349   5.889   3.012  10.376  0.0089 -0.0169  0.0158
15130W        W18350  11.350   8.341   7.395  0.3221  0.0324  0.1060
15131W        W18351   7.243   7.098  18.001  0.3266  0.0648  0.4372
15132W        W18352   7.719  12.281   5.625 -0.0583  0.1262  0.3065
15133W        W18353  13.039   5.835  16.339 -0.0595 -0.4145  0.1283
15134W        W18354   5.856   5.611  15.048  0.2501  0.0691  0.3573
15135W        W18355   6.044   8.808   7.629 -0.1833 -0.0948 -0.2234
15136W        W18356   8.770   1.445  15.409  0.1644  0.0445  0.0390
15137W        W18357   2.589   7.064  11.134 -0.0718 -0.0587 -0.1311
15138W        W18358  15.642   9.783   4.086 -0.0912  0.1994 -0.1481
15139W        W18359   0.568  10.110  12.007  0.0330 -0.0542 -0.3597
15140W        W18360   5.321   7.607  10.417  0.2696 -0.0304  0.0204
15141W        W18361   9.076  14.636  14.880 -0.1600 -0.1829  0.0244
15142W        W18362  11.145  10.019  10.646  0.0484 -0.2155 -0.3780
15143W        W18363   6.003   5.476  11.906  0.1971  0.2483 -0.3122
15144W        W18364  10.680   7.223  11.278  0.1296  0.0689 -0.1272
15145W        W18365   4.442  11.253   9.919 -0.0604 -0.1060 -0.1317
15146W        W18366   6.239  12.663  13.780 -0.1123  0.0914 -0.1652
15147W        W18367  11.555   6.732  14.543 -0.1588 -0.0849  0.1453
15148W        W18368   7.211   3.367  14.146 -0.0296 -0.2020 -0.0600
15149W        W18369   5.614  10.093  14.992 -0.1528  0.1374  0.0839
15150W        W18370   6.566   7.569  14.694 -0.1188  0.0631 -0.1514
15151W        W18371   7.393   1.612  12.452  0.0696  0.0204 -0.4325
15152W        W18372   3.205  13.824  15.364  0.1249  0.1056 -0.0076
15153W        W18373   3.704   4.620   8.700 -0.0932  0.0099  0.0048
15154W        W18374   6.292  11.918  17.324 -0.0786 -0.3543 -0.3397
15155W        W18375   8.811   1.341   9.197  0.4420 -0.0468  0.0343
15156W        W18376   5.201  13.232  12.568 -0.3941  0.2126  0.4361
15157W        W18377   9.761   4.823  14.403 -0.2736  0.1044 -0.0096
15158W        W18378   4.992  13.325  15.887 -0.1638 -0.0820  0.1151
15159W        W18379  13.362   2.827  13.151 -0.0540  0.2692 -0.0747
15160W        W18380   4.222   6.453  14.993  0.0265  0.1903  0.0073
15161W        W18381   0.015  12.590  15.599 -0.0219  0.0983  0.2909
15162W        W18382   4.831  10.278   9.110  0.0052  0.1565 -0.0313
15163W        W18383   9.563  15.898  14.958 -0.2280  0.0173 -0.0780
15164W        W18384   0.920  12.053   0.329 -0.1016 -0.3269 -0.0526
15165W        W18385   4.091   6.950  10.475  0.1987  0.1625 -0.0882
15166W        W18386   7.398   8.799  10.750  0.0782 -0.0667  0.0071
15167W        W18387  15.300   7.931  10.233  0.1755  0.0504 -0.2142
15168W        W18388   6.321   5.603  12.278 -0.0640 -0.3527  0.0797
15169W        W18389  13.530   2.414   8.181  0.0533  0.1589  0.2255
15170W        W18390   9.912  10.639  11.403  0.0610 -0.1912  0.0984
15171W        W18391  17.342   9.132  11.527  0.0323 -0.2226  0.2026
15172W        W18392   5.922  12.455   6.960  0.2036  0.0313 -0.0048
15173W        W18393   1.586   9.164  14.721  0.3942 -0.1200  0.2708
15174W        W18394   8.471  15.334  10.505 -0.0280  0.3643 -0.2145
15175W        W18395   3.035  17.045  14.126  0.1283 -0.0346  0.0844
15176W        W18396   6.177   7.474   4.837  0.1271  0.0080  0.0045
15177W        W18397   0.901  11.567   0.145  0.2205  0.0475  0.0659
15178W        W18398   3.422   7.610   1.061 -0.0920  0.0281 -0.2000
15179W        W18399   9.463   6.063  15.531  0.1004  0.0714 -0.0283
15180W        W18400  12.060  13.284   0.408  0.0025  0.0830 -0.2655
15181W        W18401   5.425  11.234   5.844 -0.1251  0.1930 -0.0829
15182W        W18402   8.493  12.794  13.174 -0.2335 -0.2127 -0.4261
15183W        W18403   7.883  12.492   4.145 -0.0506  0.0068 -0.1343
15184W        W18404   4.816   5.504   7.724  0.1707 -0.1046 -0.1481
15185W        W18405   1.001  12.824  14.544 -0.1351 -0.0643 -0.2800
15186W        W18406   3.074  10.800  11.239 -0.1096 -0.0158  0.1601
15187W        W18407   1.284  12.126  12.951 -0.0604 -0.0804  0.3379
15188W        W18408   1.494   8.898  13.042 -0.2400 -0.0527  0.3280
15189W        W18409  10.174  14.536  11.019 -0.3604 -0.0971 -0.0247
15190W        W18410   8.130   1.775   8.640  0.0016 -0.2060 -0.1961
15191W        W18411   1.885  15.139  13.147  0.1909  0.2663  0.2774
15192W        W18412   8.752   3.699  15.596 -0.1249  0.1065  0.0391
15193W        W18413   4.249   5.918  16.301 -0.2907 -0.1283  0.1992
15194W        W18414   9.249   8.166  16.150 -0.2340  0.0400  0.0546
15195W        W18415   9.085  11.641  15.108  0.3849  0.0901 -0.3342
15196W        W18416   0.044   4.308   8.288  0.0857  0.0431  0.1105
15197W        W18417   5.848   5.660   9.536 -0.0396 -0.0880 -0.4252
15198W        W18418   2.642   1.299   8.288  0.0081 -0.0143 -0.0342
15199W        W18419   1.692  13.471  11.445  0.1617 -0.1281  0.2297
15200W        W18420   7.987   6.539  14.215 -0.3345  0.2638  0.0913
15201W        W18421   9.625  14.093   9.979  0.0201 -0.1536  0.0819
15202W        W18422   0.794  12.112  17.475 -0.3475 -0.0352 -0.1133
15203W        W18423  10.313   6.378   8.127  0.2851  0.1261  0.1244
15204W        W18424  17.423   7.678  10.099 -0.1444  0.3732  0.1314
15205W        W18425  11.672   7.102  10.772  0.1979  0.2156  0.2419
15206W        W18426   7.472   3.118   7.662 -0.1808 -0.2498 -0.2552
15207W        W18427   5.368  13.045  14.544 -0.1849  0.1602 -0.0339
15208W        W18428   5.111   6.473   2.078  0.0956  0.1915 -0.2260
15209W        W18429   1.890  12.996  13.363  0.0427 -0.0059 -0.0365
15210W        W18430   4.524   6.395  17.722 -0.2952 -0.1598 -0.2293
15211W        W18431  10.639   9.116  14.655  0.2275 -0.0148  0.0620
15212W        W18432   8.403   4.521   1.142  0.2813 -0.4093  0.1256
15213W        W18433   8.714   5.917  16.031 -0.2390 -0.0879 -0.0450
15214W        W18434  11.128   8.040   7.828 -0.1696 -0.0238 -0.0067
15215W        W18435   4.967  17.252   9.715 -0.1335 -0.1301  0.0900
15216W        W18436   3.229   1.716  17.328 -0.0231  0.3518 -0.0714
15217W        W18437   6.633   8.548   2.498 -0.2240 -0.0028 -0.2379
15218W        W18438  11.407   8.010   7.027  0.0881 -0.4139 -0.2523
15219W        W18439   4.205  13.323  18.011  0.1465  0.0625 -0.0453
15220W        W18440  12.261   4.708  14.884  0.0408  0.1833 -0.0867
15221W        W18441  10.903   8.709  17.793 -0.0230  0.1998  0.3003
15222W        W18442   0.490  10.836  12.694 -0.0061 -0.1563  0.1476
15223W        W18443   8.473  15.978   5.797  0.3342  0.3346  0.0049
15224W        W18444   3.918   8.881   0.326 -0.0020  0.3197 -0.1612
15225W        W18445   4.867  13.938  17.189 -0.1255  0.0378 -0.0269
15226W        W18446   2.793   5.209  12.662 -0.0511  0.1529  0.3567
15227W        W18447  10.111   7.647   8.006 -0.1290  0.1224  0.2499
15228W        W18448   5.118   8.011  14.654  0.0521 -0.1782 -0.1700
15229W        W18449   4.403   5.999   0.283 -0.2316  0.1772  0.2514
15230W        W18450   3.403  10.736  15.734 -0.1317 -0.1264 -0.0632
15231W        W18451  10.555   5.535   8.344  0.0765 -0.0065  0.0665
15232W        W18452   7.601   1.919  15.936 -0.0336  0.1740 -0.2761
15233W        W18453   4.469  12.946  13.787 -0.2323  0.2344 -0.0594
15234W        W18454  13.973   7.113   9.356  0.1151  0.1858  0.1749
15235W        W18455   2.410  10.157   4.798 -0.0002 -0.0143 -0.0896
15236W        W18456   9.985  15.594  15.095 -0.1379  0.1812  0.0251
15237W        W18457   2.918   4.759   0.909  0.2045 -0.1112 -0.0586
15238W        W18458   6.759  11.895  14.800 -0.0984 -0.0823  0.0427
15239W        W18459   9.880   5.798   7.641 -0.1750 -0.0377 -0.0146
15240W        W18460   3.088   7.826  14.526  0.1000 -0.0625  0.0110
15241W        W18461   1.787   5.862  11.795 -0.1579 -0.0362 -0.2364
15242W        W18462   4.146   6.216  12.399  0.3628 -0.0485 -0.0320
15243W        W18463   2.534   7.937   8.394  0.1276  0.2141 -0.2290
15244W        W18464  12.377   9.060   0.529  0.2848  0.1581 -0.0768
15245W        W18465   6.786   4.674   9.928  0.2158 -0.2553  0.2879
15246W        W18466   8.136   7.896   9.012  0.1605 -0.0254  0.1938
15247W        W18467   7.055  17.957  15.269  0.3529  0.1006 -0.0051
15248W        W18468   5.719   6.704  14.729  0.1673  0.1168 -0.2277
15249W        W18469   5.657  12.637  14.788  0.1851 -0.3037  0.3036
15250W        W18470   4.155   2.327  17.813 -0.2937  0.5195 -0.1235
15251W        W18471   9.187   3.265  13.173 -0.1340  0.1013  0.2355
15252W        W18472   3.651   9.993   8.399 -0.0175  0.1775 -0.4464
15253W        W18473  13.604  10.281  10.138  0.0438 -0.1667 -0.1261
15254W        W18474   4.132   9.932  15.662  0.0134 -0.2007 -0.0769
15255W        W18475   8.785   0.357  17.996  0.0929  0.1053 -0.0430
15256W        W18476   9.557  16.009  13.487 -0.0825 -0.0117  0.1676
15257W        W18477   8.281   7.592  11.528 -0.2066 -0.0110 -0.2306
15258W        W18478  12.713   5.628  10.204  0.1066  0.0404  0.5476
15259W        W18479  12.768   8.632  12.522 -0.0391  0.1393 -0.1308
15260W        W18480   4.821   5.145   0.230  0.0080 -0.6190  0.1401
15261W        W18481   0.389   2.793  16.237 -0.3051  0.2969  0.0129
15262W        W18482   7.500   9.142  13.280 -0.0575  0.3948 -0.3279
15263W        W18483   7.778  11.915  17.283  0.2574  0.0456 -0.4077
15264W        W18484   3.319  12.800   2.394 -0.0401 -0.0754 -0.1789
15265W        W18485   9.320   0.966   8.963 -0.4245 -0.0514 -0.0392
15266W        W18486  17.737  11.429  12.815  0.0767  0.2660 -0.0223
15267W        W18487   6.919   6.879  11.060 -0.1024  0.1382 -0.1439
15268W        W18488   3.033   3.704   7.366  0.1375 -0.1009 -0.2891
15269W        W18489   8.134   7.224  16.258  0.2636  0.0931 -0.2461
15270W        W18490   8.273  11.648  17.707 -0.1868  0.1655 -0.1994
15271W        W18491   8.276  16.065   0.422  0.1602 -0.4938  0.2855
15272W        W18492   5.016   9.466  14.046  0.1132 -0.1356 -0.1670
15273W        W18493   3.358   8.422  11.479  0.1579  0.0720  0.2714
15274W        W18494  11.119   8.175  10.080 -0.0812 -0.0029  0.2697
15275W        W18495   3.646  13.643   4.168 -0.1336  0.1684  0.1684
15276W        W18496   4.368   7.211  16.185  0.0454 -0.0238  0.2512
15277W        W18497   3.658  14.333  13.206 -0.0659 -0.0370 -0.0800
15278W        W18498   7.415   4.047   6.055  0.2601 -0.2093  0.3132
15279W        W18499   4.491  13.310  15.586 -0.0702  0.0603  0.1487
15280W        W18500   6.224  11.606  11.611  0.0370  0.0713 -0.0620
15281W        W18501   3.706   9.286   1.434 -0.2388 -0.1502  0.2772
15282W        W18502   3.919   1.922  16.821 -0.1827 -0.0144  0.0045
15283W        W18503   2.974  16.369   9.655 -0.2367  0.1590  0.1023
15284W        W18504   0.067  13.299   6.518  0.2499 -0.1473 -0.0912
15285W        W18505   8.125   7.244  15.573  0.3401 -0.0027  0.1145
15286W        W18506   8.531  12.365  11.270 -0.0015  0.3410 -0.3462
15287W        W18507   1.302   3.163  12.007  0.0216  0.3572 -0.2471
15288W        W18508  12.954   5.668  17.276  0.1561  0.0898  0.0815
15289W        W18509  10.632   4.367  11.017 -0.2157 -0.0442 -0.2247
15290W        W18510   5.376   8.585  12.883 -0.0473 -0.2048 -0.0719
15291W        W18511  11.896  13.788  12.517  0.0635  0.2931  0.0135
15292W        W18512   6.580   9.778   9.080  0.0116 -0.0525  0.2174
15293W        W18513   3.100   9.262  12.105 -0.1409 -0.2656 -0.4174
15294W        W18514   1.422   6.967   7.700 -0.1418 -0.1198  0.1438
15295W        W18515   3.768  11.343   8.071 -0.2460 -0.2051 -0.0958
15296W        W18516  10.025   6.495   9.864  0.2556  0.0452  0.1281
15297W        W18517   3.557   7.144  11.157 -0.4965 -0.2459 -0.3992
15298W        W18518   3.644   3.836   4.528 -0.1288  0.0720 -0.0242
15299W        W18519  14.627  14.226  13.845  0.0003 -0.1179 -0.1911
15300W        W18520  11.147   4.717  10.296 -0.0326  0.0236  0.1194
15301W        W18521   4.710   6.787  12.038 -0.1131  0.0855 -0.2183
15302W        W18522   8.855   9.351   8.698  0.3628  0.2078  0.0316
15303W        W18523   7.984  12.818   7.582 -0.2231  0.1496  0.1896
15304W        W18524  17.764  10.879  14.046 -0.1339  0.0983 -0.1284
15305W        W18525   4.215   6.491   6.201  0.2427 -0.2636 -0.1570
15306W        W18526   5.835  15.057  17.139 -0.1789  0.0555  0.0021
15307W        W18527   3.645  12.954  12.016 -0.0235  0.1396  0.1651
15308W        W18528   9.465   4.270  11.513 -0.1300  0.0195  0.0583
15309W        W18529   9.622  16.028   8.062  0.1260  0.0566 -0.1683
15310W        W18530  10.838   6.008  17.240 -0.0934  0.2562 -0.0585
15311W        W18531   7.490  13.488   1.092 -0.1271 -0.3191 -0.2476
15312W        W18532   8.630   6.302   0.692  0.0190 -0.0916 -0.4396
15313W        W18533  13.075   5.587  10.683  0.4326 -0.0031  0.0784
15314W        W18534   4.937   4.035  14.440 -0.1779 -0.0182 -0.0090
15315W        W18535   2.939  11.158  13.976  0.3201  0.1043  0.0832
15316W        W18536   6.436   4.575  10.278  0.3528  0.0567  0.2833
15317W        W18537   6.197  13.789  14.057  0.2446 -0.0259  0.0373
15318W        W18538   6.294  12.813   3.975 -0.1024 -0.2872  0.0789
15319W        W18539   5.723  13.754  11.091  0.1366  0.0148  0.1358
15320W        W18540   7.784   9.462   0.980 -0.0243  0.2608 -0.2956
15321W        W18541   5.037   9.395   2.643 -0.3532 -0.1130 -0.3382
15322W        W18542   5.181  10.573  15.098  0.0513  0.0735 -0.1735
15323W        W18543   2.021   7.568   0.482  0.1389  0.0919 -0.0509
15324W        W18544  16.428  10.455  16.141  0.3002  0.2311  0.3071
15325W        W18545   9.446   8.241   8.364 -0.1538 -0.0055 -0.5272
15326W        W18546   1.269   7.035  13.344  0.0590 -0.0081 -0.1123
15327W        W18547  11.816   6.621   9.701 -0.2307 -0.0174  0.2202
15328W        W18548   6.505  10.141  14.513 -0.0499  0.2563  0.0391
15329W        W18549   7.143  10.039  10.197 -0.0168  0.1077 -0.0807
15330W        W18550  13.490   8.204   7.001 -0.1638  0.1069 -0.0617
15331W        W18551   1.210  11.690  17.678 -0.0978 -0.1003  0.1278
15332W        W18552   4.023   1.990  18.253 -0.0641 -0.3185 -0.2073
15333W        W18553  18.016   8.648  16.389  0.0934  0.0237 -0.3654
15334W        W18554   5.591   1.580  10.201 -0.0185  0.2618 -0.1205
15335W        W18555   2.851   1.487   7.769  0.0001 -0.2436 -0.1969
15336W        W18556   1.835  10.012  17.112 -0.1324  0.3489  0.1272
15337W        W18557   7.741   2.928  13.398 -0.1029  0.1267 -0.1945
15338W        W18558  15.687   8.983  12.189  0.2062 -0.3547 -0.2331
15339W        W18559  15.913   9.880  10.817 -0.2280  0.0477 -0.3218
15340W        W18560   3.741   2.692  13.861  0.1002  0.1046 -0.2083
15341W        W18561   3.861   5.811   8.828 -0.0139  0.5408 -0.1168
15342W        W18562   2.321  13.771  13.220  0.1955 -0.2834 -0.2371
15343W        W18563   2.470   6.411  15.738 -0.0047 -0.2472  0.0658
15344W        W18564   4.649   2.995  11.037 -0.1009  0.0529 -0.0321
15345W        W18565   6.873  13.599  15.877 -0.1999  0.1575 -0.0830
15346W        W18566  15.668   3.966   3.108  0.1066 -0.2019  0.0871
15347W        W18567   2.746  10.972   8.273  0.0715 -0.1816 -0.1600
15348W        W18568   8.050  14.722   6.675  0.0524 -0.0045  0.0722
15349W        W18569   9.272   8.511  15.224 -0.0555 -0.2291  0.2573
15350W        W18570  10.380   9.504  13.873 -0.0392 -0.0026  0.0489
15351W        W18571   8.045   5.723  12.564 -0.2295 -0.2250 -0.0086
15352W        W18572   1.852  10.719   9.046 -0.1222 -0.0113 -0.0908
15353W        W18573   8.001  13.346  11.257 -0.3772 -0.1223 -0.1052
15354W        W18574   5.423  12.901  12.147  0.1164  0.0502  0.1706
15355W        W18575   2.385  11.651  18.027  0.2031 -0.3988  0.0646
15356W        W18576   6.531   8.392   8.965  0.0096  0.0165 -0.2603
15357W        W18577   8.129   2.550   9.709  0.1184 -0.1678  0.2821
15358W        W18578  16.583   4.913  11.181  0.1141  0.0360 -0.0600
15359W        W18579   3.421  12.780  12.981  0.0132 -0.2041  0.1676
15360W        W18580   4.909   5.958   8.002  0.3673 -0.1755 -0.0575
15361W        W18581   7.332   6.144   2.788 -0.1465  0.2699 -0.2075
15362W        W18582  14.665  15.458  14.169 -0.3322 -0.3879  0.0749
15363W        W18583   5.676  15.848   7.509  0.0833  0.4064 -0.0866
15364W        W18584   5.270   6.290  10.091  0.0708 -0.0187 -0.0488
15365W        W18585   4.736   3.909   9.521 -0.0683 -0.1947  0.0441
15366W        W18586   9.331   7.904  12.292 -0.1502  0.1966  0.2767
15367W        W18587   5.893  10.244  11.165  0.2406 -0.0147 -0.2231
15368W        W18588   5.463   6.389  16.109 -0.1695 -0.1713 -0.1433
15369W        W18589   1.249   5.957  17.896  0.0321 -0.0017  0.1735
15370W        W18590   8.498  11.821  11.653  0.2371  0.2388 -0.0036
15371W        W18591  12.614   7.645  12.846 -0.2454 -0.1955 -0.0391
15372W        W18592   5.635   0.429  11.312 -0.3030  0.1567 -0.0599
15373W        W18593   8.090  14.696  14.219 -0.0222 -0.0121 -0.0455
15374W        W18594   9.115  11.972  15.772 -0.3245  0.1242 -0.3458
15375W        W18595   6.153   9.011  11.863  0.1765 -0.0156 -0.1608
15376W        W18596   7.296  10.868   9.378  0.0481  0.0009 -0.0873
15377W        W18597   3.886   8.636  16.101 -0.0821  0.0517  0.0319
15378W        W18598   6.427  13.599   3.803  0.1807  0.3461 -0.1856
15379W        W18599   4.266   5.946  11.814  0.0545  0.1756 -0.0612
15380W        W18600  12.250  14.612  16.271  0.0619 -0.1178 -0.1261
15381W        W18601   5.921   9.418  13.759  0.2093  0.1480  0.1734
15382W        W18602   1.230   6.231   0.161  0.0255 -0.1208 -0.0185
15383W        W18603  10.384   9.931  18.226  0.1881  0.5800 -0.0546
15384W        W18604   3.099   1.072  10.200 -0.0970  0.3034  0.1023
15385W        W18605  12.078  15.048   9.608 -0.0153  0.0214 -0.0067
15386W        W18606   4.866   4.945   1.994 -0.0231 -0.1070 -0.1806
15387W        W18607   7.495   0.963  13.196  0.2051  0.0295  0.1898
15388W        W18608   3.848   7.071  15.986 -0.2456 -0.0284 -0.0554
15389W        W18609   9.134   8.114  10.764  0.1079 -0.1177  0.0901
15390W        W18610   5.499  14.164   3.155 -0.3529 -0.3412  0.3878
15391W        W18611   2.556   9.929  11.269 -0.0402  0.1514  0.0590
15392W        W18612   9.942   8.605   9.160 -0.1574 -0.0871 -0.0776
15393W        W18613   9.377   7.341   8.887 -0.0330 -0.2912  0.1090
15394W        W18614  11.750  16.631   6.682 -0.1308  0.0962 -0.1796
15395W        W18615  16.253  13.227  11.743 -0.0365  0.2985  0.0591
15396W        W18616   3.172   6.163  17.590  0.0997 -0.2512 -0.2019
15397W        W18617   6.409   8.489   1.527 -0.1414 -0.1453  0.2554
15398W        W18618  17.648   7.952   0.788 -0.0891  0.1889 -0.0635
15399W        W18619   5.878   8.343  13.616 -0.1120 -0.0267 -0.2262
15400W        W18620   6.853   9.577  11.744  0.2472 -0.3200 -0.2317
15401W        W18621   3.778   9.196   7.288 -0.0048  0.0919 -0.0727
15402W        W18622   2.069  12.466   4.869  0.1555  0.3407  0.1536
15403W        W18623  12.518   6.072   4.453 -0.0002  0.1030  0.4420
15404W        W18624  11.369  13.144  17.465 -0.1419 -0.0188  0.0859
15405W        W18625   1.947   5.826  16.205 -0.0628 -0.1491  0.0167
15406W        W18626   2.535   7.722   4.062  0.0221  0.4046 -0.0033
15407W        W18627   6.684   5.738  16.253  0.1457  0.1505 -0.1480
15408W        W18628   5.310   7.697  12.947 -0.0956  0.1092 -0.1871
15409W        W18629   6.903   2.172   1.062 -0.0542  0.1034 -0.2069
15410W        W18630  10.455   4.115   1.472 -0.0020  0.0184  0.1399
15411W        W18631   9.016  15.888  13.778 -0.1528  0.3254 -0.2446
15412W        W18632   6.584   4.598  12.031 -0.2683  0.2054  0.0772
15413W        W18633   7.523   5.496  14.319  0.0671 -0.2574 -0.1831
15414W        W18634  18.163   4.870   3.501  0.2069 -0.2192 -0.0925
15415W        W18635   8.903   6.631   1.094  0.0048  0.0826 -0.0199
15416W        W18636  10.826  13.201  13.257 -0.0244 -0.3597 -0.2343
15417W        W18637   4.868   8.904  16.499 -0.1070  0.2833 -0.1764
15418W        W18638   0.402  11.671  18.253  0.3628  0.1151 -0.1543
15419W        W18639  14.291  11.251   0.315 -0.2522 -0.4297  0.1394
15420W        W18640  15.942  12.114  15.310  0.0803 -0.0030 -0.1336
15421W        W18641   2.404  11.351  16.653  0.1670  0.1859 -0.0666
15422W        W18642   3.482   7.406  16.772 -0.1335 -0.1042 -0.2015
15423W        W18643   7.852  17.373   2.420 -0.0195  0.0818 -0.3990
15424W        W18644   3.211  13.398  14.861 -0.0848  0.0138  0.2139
15425W        W18645   7.815   7.701  18.193  0.1087  0.4097  0.0944
15426W        W18646   9.434  11.440   9.516 -0.0302  0.0224  0.3744
15427W        W18647   5.879  15.762   1.543  0.2490 -0.3006  0.1566
15428W        W18648   6.507   9.792  14.996  0.2104 -0.4377 -0.2917
15429W        W18649  13.355  14.009  13.483  0.0460  0.1174 -0.1342
15430W        W18650   5.620  15.105   9.839 -0.2156  0.0115  0.2312
15431W        W18651   5.414   6.635   4.532  0.2303 -0.1126 -0.0257
15432W        W18652   5.370   4.983   3.887 -0.1924 -0.1520  0.1941
15433W        W18653   2.649   5.323   4.413 -0.0499  0.0412  0.0718
15434W        W18654   8.325  13.053  11.702 -0.3665  0.0278  0.1458
15435W        W18655   9.216   6.088   2.989 -0.0475  0.0238 -0.4082
15436W        W18656  11.692   6.798   0.957 -0.3255 -0.3860  0.0228
15437W        W18657   7.968   7.330   0.586  0.0467 -0.0425  0.3017
15438W        W18658   6.623  14.133   3.230  0.3397 -0.0572  0.2703
15439W        W18659   5.646   8.842  11.746 -0.3048  0.1297 -0.2757
15440W        W18660   1.639  15.150  16.357  0.1029  0.1212  0.0710
15441W        W18661  11.364   9.787   7.322 -0.1425  0.1019  0.0467
15442W        W18662   7.001  12.393  14.667 -0.3043 -0.0959  0.1538
15443W        W18663   5.225  15.960  15.142 -0.0473  0.2855  0.0087
15444W        W18664  17.209  16.142  16.808  0.1229 -0.0438  0.4234
15445W        W18665  13.525   3.712  11.920  0.1998  0.2477  0.1589
15446W        W18666  11.186  15.023  18.050 -0.2308 -0.1700 -0.1812
15447W        W18667  18.030  10.194   2.242  0.2436 -0.1810  0.0947
15448W        W18668   9.308  11.978   1.892 -0.0393  0.0144 -0.0340
15449W        W18669   1.186  16.270  17.174  0.1869 -0.0749 -0.1934
15450W        W18670  12.763   4.797  14.929  0.1773  0.0193  0.1669
15451W        W18671  16.808  13.497  15.449 -0.1260 -0.0108  0.2731
15452W        W18672   0.456  11.789  16.780 -0.1849 -0.0514  0.0841
15453W        W18673   7.057   1.463  17.586 -0.3315  0.0994 -0.0272
15454W        W18674   5.771   8.108   0.365  0.0960 -0.0051 -0.1649
15455W        W18675   2.113  11.876   2.308 -0.3609  0.0014  0.0392
15456W        W18676   1.950   9.607  14.746 -0.3329  0.3041  0.3067
15457W        W18677  16.937  10.484   1.331 -0.0379 -0.0259  0.3106
15458W        W18678   1.824   6.810   1.694  0.0525 -0.2679 -0.0135
15459W        W18679   8.658   2.850  14.983 -0.2790  0.2670 -0.2925
15460W        W18680   7.757   6.806  15.426 -0.0941 -0.3819  0.2015
15461W        W18681   6.900  10.065   1.473 -0.1673  0.1034  0.1394
15462W        W18682   6.780   1.072   0.214  0.0066 -0.2975 -0.0097
15463W        W18683   3.569   4.748  13.588 -0.2454 -0.0599 -0.3190
15464W        W18684  10.740  14.756  16.969 -0.0016 -0.0318 -0.0674
15465W        W18685   3.165   9.704  11.902  0.1209  0.2413 -0.2315
15466W        W18686   0.278  11.360   1.104 -0.1350 -0.0104  0.1423
15467W        W18687   9.054   9.942   3.414  0.2340  0.0167 -0.1082
15468W        W18688   7.734  10.892   0.732  0.1920 -0.2692  0.2041
15469W        W18689   6.470  13.808  16.570  0.1077  0.1042 -0.2242
15470W        W18690   7.057   2.265  14.968  0.1829  0.5233  0.0792
15471W        W18691   9.882   9.177  13.951  0.2952  0.0853 -0.0239
15472W        W18692  12.541  15.222   3.175  0.2557 -0.2244 -0.3279
15473W        W18693   1.912   7.537   9.962 -0.1270  0.1491 -0.1032
15474W        W18694   3.328   9.192  17.775  0.1268  0.1324 -0.1118
15475W        W18695   1.264   3.875  13.868  0.2363 -0.0464 -0.2133
15476W        W18696   4.235   9.935   3.404 -0.5180  0.0002 -0.2858
15477W        W18697   2.775  10.277   0.338  0.1239  0.3927 -0.2166
15478W        W18698   6.283  18.267   7.875  0.1886 -0.0554  0.0511
15479W        W18699  16.011  11.929   0.522 -0.2373  0.0968 -0.1019
15480W        W18700   2.806   8.429  15.040  0.1430 -0.1352  0.0438
15481W        W18701   6.990  11.691   0.978 -0.0792  0.0803  0.1325
15482W        W18702   1.509   1.722   1.282 -0.2097 -0.0372 -0.0173
15483W        W18703   6.363   7.754  12.185 -0.0101 -0.0904 -0.0913
15484W        W18704   5.986   8.450  17.786  0.0862 -0.0547  0.0289
15485W        W18705   4.435  15.379  16.302  0.2122  0.0587 -0.0536
15486W        W18706   9.766  16.639   4.632 -0.0094 -0.2230 -0.2222
15487W        W18707   4.523   2.174   1.804  0.0687  0.1437  0.1282
15488W        W18708  10.367   6.599   1.529  0.3811  0.1815 -0.3161
15489W        W18709  16.824   9.929   2.417  0.3025 -0.1055 -0.0486
15490W        W18710  15.610  12.750   1.459  0.0358 -0.3306 -0.3776
15491W        W18711   8.798   7.737  17.298  0.2094 -0.4086 -0.0702
15492W        W18712   7.667   6.962   3.036  0.2690  0.0391  0.2536
15493W        W18713   5.130  10.754  14.308  0.2939 -0.1055 -0.0324
15494W        W18714   7.468   1.139   5.809  0.2278  0.1991  0.0355
15495W        W18715   9.891  11.968   1.223 -0.1162  0.1287 -0.0552
15496W        W18716   5.125   6.072  14.563 -0.0936  0.2004 -0.1580
15497W        W18717   7.657  12.960  14.501  0.0476 -0.1065  0.0211
15498W        W18718   4.155  13.794  13.334  0.0950  0.1813  0.0873
15499W        W18719   4.309   9.105  14.383 -0.1559 -0.0897 -0.0165
15500W        W18720   3.979   8.560  16.622  0.1602  0.1737  0.1858
15501W        W18721   7.350  12.601  11.883 -0.0266 -0.1985 -0.1514
15502W        W18722   1.254  10.563  16.187  0.0380  0.0471 -0.0697
15503W        W18723   9.155  12.113  16.688  0.1349 -0.1373  0.0871
15504W        W18724   1.300   1.185  11.698 -0.0095  0.0269  0.0612
15505W        W18725   5.858  10.279  18.007 -0.1963 -0.1009 -0.0068
15506W        W18726   8.273   8.705  17.102  0.0451  0.0547 -0.0439
15507W        W18727   3.891   6.184   0.844  0.0259  0.0613 -0.1391
15508W        W18728   6.106  10.843  15.134 -0.5259  0.1603  0.0051
15509W        W18729   6.321  14.259  14.175  0.3720  0.1184 -0.2862
15510W        W18730   7.508   6.536  14.435 -0.1534  0.0023  0.0591
15511W        W18731   7.118   6.996  16.674  0.2271  0.1911  0.0163
15512W        W18732   3.808   2.359   1.188  0.3319  0.4416 -0.0850
15513W        W18733   0.398   7.001  14.808  0.0673  0.2999 -0.1251
15514W        W18734  16.467  10.599   4.622 -0.0082 -0.2566  0.2341
15515W        W18735   4.959   9.506   1.228 -0.0946  0.3345  0.0992
15516W        W18736   8.011  10.358  11.320  0.2219  0.1448  0.2042
15517W        W18737   4.136   7.117   0.428  0.0842  0.0145  0.1802
15518W        W18738  11.780   5.301   0.594  0.0367 -0.0454 -0.3149
15519W        W18739   4.738   1.120  12.888  0.1878  0.2153  0.0926
15520W        W18740   4.830  14.020  12.053  0.4709  0.0368  0.0741
15521W        W18741  17.711   6.783  16.621  0.2758  0.0368 -0.0811
15522W        W18742   6.082   8.286   4.085  0.0071  0.3091  0.0275
15523W        W18743   6.114   6.988   5.107  0.2250 -0.0483 -0.3212
15524W        W18744   8.553  12.526   3.112 -0.0436  0.0138 -0.1318
15525W        W18745   3.086   5.722   0.792  0.0477 -0.0652  0.0026
15526W        W18746  16.514  13.095  14.577 -0.0932 -0.0010  0.1149
15527W        W18747   7.056   5.290  14.211 -0.0561  0.2553  0.0796
15528W        W18748   9.280  15.054  17.477  0.3870 -0.1563  0.0116
15529W        W18749   4.973   2.358  10.722  0.0178  0.0919  0.2222
15530W        W18750   5.598  17.265   2.066  0.0719  0.2359  0.1070
15531W        W18751  17.126  10.188   0.549 -0.1232 -0.1661 -0.2461
15532W        W18752  10.486   7.973  14.459  0.3356  0.0502 -0.1159
15533W        W18753   8.100  11.129  17.822 -0.4186  0.2874 -0.0079
15534W        W18754   2.856   9.460  15.029  0.1397 -0.4065 -0.0085
15535W        W18755   6.476   0.090  16.997  0.2522 -0.1053  0.0781
15536W        W18756  17.593   5.161   0.702 -0.0772 -0.1286 -0.1725
15537W        W18757   0.315   9.438   2.782  0.1398 -0.0782 -0.0158
15538W        W18758   0.872  12.012  13.850  0.1923 -0.2432  0.1713
15539W        W18759  16.261  10.278  13.710 -0.1628  0.0374 -0.1056
15540W        W18760   5.064   7.602  13.820 -0.0471 -0.2744  0.1731
15541W        W18761  10.345   0.833  10.892 -0.1008  0.0543  0.2067
15542W        W18762   1.260   3.343   0.125 -0.0822 -0.3205  0.0502
15543W        W18763   9.744  10.352   2.197 -0.0073 -0.0880 -0.1548
15544W        W18764   4.284   9.511  13.436  0.0324 -0.1006  0.1194
15545W        W18765  11.686   7.128   2.981  0.1756  0.1640 -0.0347
15546W        W18766   9.117  12.623   9.137 -0.0711 -0.0116 -0.0676
15547W        W18767   1.418   7.475   1.732 -0.1804  0.0887  0.0859
15548W        W18768   5.290   6.547  14.491 -0.2772  0.1258  0.1352
15549W        W18769   4.093   3.061  13.860  0.1399 -0.2170  0.3489
15550W        W18770   5.533   9.807  17.044 -0.0516 -0.1327  0.0395
15551W        W18771   9.276  17.794   2.174 -0.0530  0.1793 -0.0707
15552W        W18772  14.938  11.789   2.930 -0.0458  0.2104  0.2692
15553W        W18773   5.135  10.039  15.295 -0.0346 -0.0494  0.1005
15554W        W18774   3.217  12.410  15.099 -0.1962 -0.2385  0.2156
15555W        W18775   7.009   2.114   2.823  0.1454 -0.0534  0.2357
15556W        W18776   7.098   3.833  13.877  0.0766 -0.0479  0.1063
15557W        W18777   8.841  10.291  10.851 -0.0309 -0.0459 -0.0132
15558W        W18778  10.768   6.557   2.723  0.0282  0.0162  0.0694
15559W        W18779   7.430   5.567  14.969 -0.0133  0.0366  0.3452
15560W        W18780   5.627   5.642   2.023 -0.0012 -0.0939 -0.2532
15561W        W18781   2.341   8.276   4.027  0.3057 -0.1956  0.2185
15562W        W18782   2.864   5.696   1.711 -0.0447  0.0462  0.4078
15563W        W18783  16.406   7.418  11.994  0.0508  0.1955 -0.1701
15564W        W18784   0.781   8.699   5.845 -0.0086 -0.1669  0.2326
15565W        W18785   6.330  16.335  10.388 -0.1435 -0.0318  0.0705
15566W        W18786   2.341  14.228   0.057  0.2996  0.3564 -0.0338
15567W        W18787   8.178  13.817  16.076 -0.1430 -0.2057 -0.1982
15568W        W18788   6.287   3.829  16.246 -0.0757 -0.2284  0.0760
15569W        W18789   6.400   8.612  12.674 -0.3164 -0.2378  0.0450
15570W        W18790  15.981   6.852  14.311  0.0902 -0.0342  0.0539
15571W        W18791   7.079   5.660  13.439 -0.0125  0.2986  0.1141
15572W        W18792  16.408   4.332   1.532 -0.2210  0.2060  0.1751
15573W        W18793   1.279   9.070  18.195  0.0942 -0.0453  0.2690
15574W        W18794   1.974  18.019  16.053 -0.0583 -0.2261 -0.1422
15575W        W18795   7.480   3.894   0.942 -0.2302 -0.2693  0.1721
15576W        W18796  18.266  12.266   7.940  0.1849  0.2798  0.1196
15577W        W18797   8.869   4.690   1.140  0.1031  0.3202  0.2949
15578W        W18798   4.354  12.081  15.764 -0.0614 -0.1538 -0.1396
15579W        W18799   7.797   8.686  18.241 -0.0816  0.2555  0.0182
15580W        W18800   4.858   9.164  14.847 -0.0831 -0.4006 -0.1798
15581W        W18801  16.102  12.996   5.326  0.1205  0.0566  0.1040
15582W        W18802   9.915   8.648  16.130 -0.2834 -0.0745  0.1282
15583W        W18803  11.724  14.615   1.748 -0.1879  0.1526  0.1061
15584W        W18804   5.406  12.672  17.356 -0.0478 -0.1997  0.0567
15585W        W18805   4.870  10.944  12.485 -0.0065  0.0764  0.0834
15586W        W18806  14.407   8.639  11.251 -0.1560 -0.1125  0.1084
15587W        W18807  10.476   6.256  13.051 -0.0676 -0.0868 -0.3465
15588W        W18808  15.037   1.896   2.205  0.0733 -0.3313 -0.0634
15589W        W18809   9.204   9.175   0.172 -0.3075 -0.1448  0.0174
15590W        W18810   6.231   5.513  13.403 -0.1984  0.0167 -0.1585
15591W        W18811   2.058   8.257  13.147 -0.1198  0.0035 -0.1750
15592W        W18812   3.853   3.144   1.703 -0.1658 -0.1892  0.1369
15593W        W18813   5.120  16.756   1.400 -0.0460 -0.2238 -0.0010
15594W        W18814   2.852  12.611   0.150  0.1100  0.2322  0.0443
15595W        W18815   5.357   6.384  12.432  0.1512  0.0733 -0.0239
15596W        W18816   0.189  16.954  15.279 -0.2037  0.0590  0.1148
15597W        W18817   2.463   7.895  13.239 -0.0345  0.0732 -0.2171
15598W        W18818   6.352   7.709  16.905  0.1520 -0.1578 -0.1917
15599W        W18819   2.848  13.547  14.496  0.1226  0.0224 -0.0354
15600W        W18820   5.171  11.529   2.082  0.1473  0.1211  0.0505
15601W        W18821   4.440   9.866  11.930  0.1687  0.1192  0.0373
15602W        W18822   9.101  13.507   2.370 -0.0046  0.0625  0.1086
15603W        W18823   4.484   6.819   0.172  0.2087  0.0289  0.1260
15604W        W18824  11.913  12.266  16.741 -0.0245  0.2280  0.4255
15605W        W18825   4.878   3.038  17.949 -0.1105  0.3474  0.1582
15606W        W18826  16.458  12.215   5.375 -0.1845 -0.4021  0.0569
15607W        W18827   1.361  14.057   4.995  0.1787 -0.1420 -0.2771
15608W        W18828   7.077  14.642  15.119  0.1086 -0.3849  0.2517
15609W        W18829   5.615  15.482  12.178 -0.0340 -0.2526  0.2556
15610W        W18830  11.616   5.944   5.075  0.3434 -0.0623  0.0684
15611W        W18831   1.330   6.756  15.179  0.0576  0.0696 -0.0117
15612W        W18832   5.996  12.229  15.955  0.1557  0.2517 -0.2417
15613W        W18833   6.860   7.498   9.622 -0.3732 -0.1564  0.0376
15614W        W18834   7.683   5.771   8.927  0.2281 -0.1639 -0.5662
15615W        W18835   0.659   0.816   2.627  0.0308  0.0920 -0.0298
15616W        W18836  11.823  10.074  18.262 -0.4319 -0.0034 -0.2914
15617W        W18837   7.847   6.152   1.858  0.2228 -0.2811 -0.0114
15618W        W18838  16.835   8.888   5.167  0.1286 -0.3726 -0.1180
15619W        W18839   5.843   9.172  10.938  0.5180 -0.0216  0.0883
15620W        W18840  17.913  11.555  15.134  0.2472 -0.2019 -0.1662
15621W        W18841   4.464   9.400  12.077  0.0376  0.1141 -0.1105
15622W        W18842   0.798   5.875   1.307  0.0930  0.3045  0.1857
15623W        W18843   0.171   9.357  15.350 -0.0152  0.2173 -0.1269
15624W        W18844   9.038   6.474  16.938  0.3162 -0.0021 -0.1690
15625W        W18845   2.572   9.738   9.343  0.0905  0.3668 -0.0797
15626W        W18846   4.421  10.307  16.358 -0.4174 -0.2843  0.1568
15627W        W18847  11.463  17.122  16.621  0.1053  0.1889  0.2311
15628W        W18848   5.861   0.998   9.120  0.2653  0.3781  0.2066
15629W        W18849  14.451  10.553  16.975 -0.0721 -0.0374  0.0936
15630W        W18850   0.430   6.931   4.599 -0.0565 -0.1307 -0.2527
15631W        W18851   1.277   9.950   3.384 -0.3976  0.1898  0.2395
15632W        W18852   4.889  10.984  15.776 -0.2057 -0.1615  0.3183
15633W        W18853   5.634  14.617  15.882  0.1565  0.2853 -0.0261
15634W        W18854   6.605   8.482  15.132  0.2299  0.0301  0.2825
15635W        W18855   2.692   7.803  14.148  0.1851 -0.1554 -0.2785
15636W        W18856  16.113  13.735  17.891 -0.1592  0.2172  0.3482
15637W        W18857   8.886   9.933  14.468  0.2842  0.1393  0.0997
15638W        W18858   7.518   4.786  11.656 -0.1838 -0.0948  0.0705
15639W        W18859   7.601   4.864   5.777 -0.1414  0.0523 -0.1135
15640W        W18860   1.610  12.345  17.053  0.0491 -0.1578  0.0493
15641W        W18861  11.785   5.442  11.833 -0.3675  0.0593  0.3271
15642W        W18862  17.692  13.233   1.266  0.1061 -0.0515  0.1207
15643W        W18863   3.927  16.620   0.513 -0.1390  0.2623 -0.0279
15644W        W18864   4.553   6.490  12.484 -0.1102  0.2339  0.1017
15645W        W18865   9.533   6.648  12.898 -0.0795 -0.1742 -0.1186
15646W        W18866   2.862  13.251   0.083  0.1425  0.0131  0.0037
15647W        W18867  13.399   9.947   4.747  0.0074  0.2681 -0.0250
15648W        W18868   2.103   1.910   0.294  0.1231  0.1215  0.2691
15649W        W18869   7.269   9.168  17.338 -0.0536  0.3586  0.1988
15650W        W18870  14.805   5.120   7.021  0.2812  0.1817 -0.0315
15651W        W18871   9.062   1.764   6.821 -0.2242 -0.0690 -0.0456
15652W        W18872   5.047   4.733   0.482  0.1642 -0.5964  0.3112
15653W        W18873   9.612  10.725   1.852  0.2047  0.1432  0.0217
15654W        W18874   1.345   8.230   1.365  0.3233 -0.1789 -0.4329
15655W        W18875   7.573  11.124   1.334 -0.4081 -0.0256 -0.2118
15656W        W18876   1.558  11.074   2.064  0.0603 -0.1802  0.2241
15657W        W18877   4.094  10.052  13.416 -0.0166  0.1094  0.0144
15658W        W18878   4.786   5.024  18.031 -0.0441  0.0280 -0.0102
15659W        W18879   6.534   7.411   6.450  0.0432  0.0738  0.1563
15660W        W18880   5.316  11.954  15.667 -0.1552 -0.4278 -0.0233
15661W        W18881   4.971  12.348   0.389 -0.1643 -0.1906  0.1326
15662W        W18882   7.116   4.661  14.907 -0.0887  0.2066  0.1726
15663W        W18883   5.399  13.110   5.090  0.1137 -0.2455 -0.2437
15664W        W18884   3.169   6.905   0.385  0.0186 -0.0246  0.1837
15665W        W18885   8.137   9.625   0.641  0.0006  0.0493 -0.1239
15666W        W18886  16.262   9.556   5.433  0.0427 -0.0900 -0.2710
15667W        W18887   5.946   7.860  13.525  0.1864 -0.0950  0.2916
15668W        W18888  13.454  12.729  17.461 -0.1206  0.2597 -0.1101
15669W        W18889  13.000  14.394  10.031 -0.1386  0.1186  0.1743
15670W        W18890   6.964  13.261   4.463  0.2625  0.1088 -0.1402
15671W        W18891   4.483  12.533  12.493 -0.0471 -0.0000 -0.1227
15672W        W18892   2.869   5.373  15.977 -0.2816  0.0342 -0.1666
15673W        W18893   4.671   5.846  13.542 -0.1134 -0.2767  0.2197
15674W        W18894   5.663  11.566  16.692 -0.3819 -0.0547 -0.1746
15675W        W18895   3.266   2.934  16.310  0.3277  0.1772 -0.1796
15676W        W18896   4.113  11.301   1.516 -0.0173 -0.3480 -0.0682
15677W        W18897   3.720   8.156  13.406 -0.1064  0.2197  0.0212
15678W        W18898   2.826  13.080  16.464 -0.0152 -0.0735 -0.1926
15679W        W18899   8.146   5.690   1.552  0.2414 -0.3254 -0.0919
15680W        W18900   2.453  10.044  16.250 -0.0255 -0.2537 -0.0450
15681W        W18901   7.315  13.918  10.833  0.1447 -0.2625  0.3478
15682W        W18902   7.651   8.561  17.018  0.0936  0.1739  0.3294
15683W        W18903   4.089  12.837  15.490  0.1496 -0.0671 -0.1043
15684W        W18904   8.674  10.629  12.084 -0.3063 -0.0777 -0.1276
15685W        W18905   8.345   7.179  12.810  0.0877 -0.2794  0.4266
15686W        W18906   1.803  12.895   0.731 -0.0894  0.1371  0.1407
15687W        W18907   8.010  16.841   2.463 -0.1896  0.1531  0.1163
15688W        W18908   2.322   6.056   6.385  0.1563 -0.2272 -0.1349
15689W        W18909   7.417  10.591   6.994  0.0514  0.0719 -0.0803
15690W        W18910   8.589  13.950  14.802 -0.0888  0.0056 -0.0881
15691W        W18911   3.440   6.537   1.084 -0.0595  0.2324  0.0270
15692W        W18912   7.054   2.392  17.160 -0.3073 -0.2370 -0.0279
15693W        W18913   4.330   6.422   3.751 -0.0386  0.0358 -0.3000
15694W        W18914   5.330   3.657  12.206  0.0158  0.2627  0.1403
15695W        W18915   5.119   9.743  16.634 -0.0504  0.1650  0.2156
15696W        W18916   7.637  10.039  16.232 -0.1415  0.0327  0.2420
15697W        W18917   0.363  12.969  14.821  0.1525 -0.0915  0.4812
15698W        W18918   6.991   6.383  15.228 -0.3363  0.0863 -0.1191
15699W        W18919   4.909  11.598  17.476  0.1453  0.2686  0.0729
15700W        W18920   9.058  10.749   0.270 -0.1419  0.0363  0.3552
15701W        W18921   4.410  10.848   3.094 -0.0750 -0.0981  0.1107
15702W        W18922   5.494   7.791  15.461  0.2502  0.0607 -0.0268
15703W        W18923  18.107   9.637   1.360 -0.0181  0.0201  0.2713
15704W        W18924   7.670   7.370   9.800 -0.1139  0.0284  0.1715
15705W        W18925   6.660  16.867  16.081 -0.0825  0.0797  0.0606
15706W        W18926   2.294  12.410  14.241 -0.4279 -0.0833 -0.0689
15707W        W18927   9.556   2.898   0.207 -0.1246 -0.1394 -0.0861
15708W        W18928   5.192   6.049   1.441 -0.1065 -0.1031 -0.0753
15709W        W18929  11.749  10.179  11.641  0.1881  0.0972 -0.1641
15710W        W18930   3.513   8.574   2.678  0.0406 -0.0046 -0.3022
15711W        W18931   4.323   7.460  16.704 -0.1923 -0.1316 -0.0718
15712W        W18932   3.415   8.115   7.906  0.0014 -0.1689 -0.0419
15713W        W18933  13.576   9.398  17.570 -0.2612 -0.0419 -0.3372
15714W        W18934   3.582  11.372  15.785 -0.1541 -0.0549 -0.2519
15715W        W18935   5.916   4.813   3.606  0.3056  0.1065 -0.1217
15716W        W18936   8.592   7.979  13.454  0.2675  0.0031  0.1832
15717W        W18937   5.334   7.754  17.570  0.0728 -0.1248 -0.0502
15718W        W18938   3.670   8.057  12.069 -0.2597  0.0879  0.0201
15719W        W18939   0.376   0.323   4.049 -0.2770 -0.4537 -0.0849
15720W        W18940  15.938   5.186  14.479 -0.1836  0.0522  0.3146
15721W        W18941   1.620   3.903   1.875  0.1473 -0.0218  0.0642
15722W        W18942  10.304  10.334  16.240 -0.0403  0.1122 -0.2553
15723W        W18943   3.231   9.948   0.807 -0.0072 -0.0251 -0.5018
15724W        W18944  16.387   3.637  13.185 -0.0435 -0.0915 -0.1346
15725W        W18945  10.100   9.850   7.339 -0.3034 -0.2512  0.4114
15726W        W18946  15.964  14.044   0.684 -0.2206  0.0186  0.0636
15727W        W18947   9.213   6.491   6.760 -0.1451  0.1368  0.1291
15728W        W18948   4.194   9.548   1.580 -0.2276 -0.2126  0.1919
15729W        W18949   6.734  12.732   3.577 -0.0072  0.0439  0.3826
15730W        W18950  10.397  13.023  17.585 -0.0237 -0.0476  0.1663
15731W        W18951  16.141  13.800   7.179  0.0665 -0.2536  0.0913
15732W        W18952   5.069  10.738   7.483  0.0613 -0.1999 -0.0118
15733W        W18953   5.925   8.476   1.707  0.1427  0.1479  0.0648
15734W        W18954   7.736   1.174  13.611 -0.1147  0.0759 -0.0098
15735W        W18955   5.754   8.940   2.115 -0.3473  0.1308 -0.0762
15736W        W18956  15.166  14.389   1.188  0.0020  0.0361  0.1695
15737W        W18957   1.782   4.135  14.380 -0.2590  0.0170 -0.0724
15738W        W18958   2.837  11.103   3.949 -0.0220  0.1731 -0.0859
15739W        W18959   4.678   8.265  14.528 -0.2617  0.0832  0.2506
15740W        W18960   5.889   7.530   2.869  0.0500  0.4424  0.3327
15741W        W18961   8.068  11.922  12.680  0.0006  0.2706 -0.0500
15742W        W18962   8.327  10.672  15.313  0.0776  0.1049  0.1573
15743W        W18963   0.944  14.167   1.530  0.0222 -0.0884  0.0700
15744W        W18964   9.837   3.326   6.724  0.0461 -0.1634 -0.0217
15745W        W18965   8.551   6.229   9.286 -0.1823  0.0525  0.4173
15746W        W18966   1.564   4.405  17.173 -0.1122  0.0378  0.1632
15747W        W18967   4.125  11.283  15.668 -0.0174 -0.1601 -0.0593
15748W        W18968   8.330  17.125  15.421 -0.0020  0.1299  0.0030
15749W        W18969   7.154  15.214  14.051 -0.0117  0.0701  0.2323
15750W        W18970   7.632   6.250   1.145 -0.0238  0.1211 -0.4730
15751W        W18971   5.970   6.292   3.939  0.3616  0.0224  0.1401
15752W        W18972  12.966  10.713   1.159  0.0857 -0.2320 -0.0900
15753W        W18973   4.048   7.076  13.133  0.2057  0.2046 -0.1128
15754W        W18974  18.257  13.050  10.262 -0.3044  0.0095 -0.0228
15755W        W18975  11.547   2.575  13.755 -0.0799  0.2155 -0.0131
15756W        W18976   2.461   6.536  18.019  0.0076  0.0605  0.3931
15757W        W18977  17.013   6.137  14.076  0.0194 -0.2445 -0.1054
15758W        W18978   4.418   8.622  15.213  0.1774  0.1266 -0.1368
15759W        W18979   7.624  11.908  11.213  0.1673 -0.0018 -0.4735
15760W        W18980   5.428  11.982  13.869  0.2288  0.2386  0.0214
15761W        W18981   1.387   5.208   1.666  0.0250  0.1133 -0.1192
15762W        W18982   0.575   7.888  12.943 -0.0477  0.1487 -0.0611
15763W        W18983  16.882   5.065   1.740  0.1311 -0.1484  0.2582
15764W        W18984   7.257   1.740  17.994  0.2335  0.1459 -0.0830
15765W        W18985   5.876   5.182  13.353 -0.0540 -0.3732  0.0198
15766W        W18986  17.779  14.396  14.070  0.0594  0.1282  0.1645
15767W        W18987   3.522  16.109  11.653 -0.0295  0.1944  0.2006
15768W        W18988   6.003   3.411   3.012 -0.2643 -0.1000  0.0883
15769W        W18989  12.454   5.612  17.595 -0.1018  0.2644 -0.2997
15770W        W18990  10.220   5.913   5.809  0.1100  0.2219 -0.1664
15771W        W18991   3.857  10.962  16.022  0.1077  0.0209  0.2378
15772W        W18992  16.066  10.565   0.611 -0.1882 -0.1107 -0.1576
15773W        W18993   5.337  18.229  16.444 -0.1301 -0.3301  0.1329
15774W        W18994   9.419   8.310   6.131  0.0548  0.3486 -0.0363
15775W        W18995   3.303  16.209  12.188 -0.0019 -0.1661 -0.2211
15776W        W18996   1.666  11.473   0.164  0.1388  0.0218  0.1343
15777W        W18997   2.292  12.787  14.801 -0.2764 -0.0341 -0.1625
15778W        W18998   4.963   4.926   5.419 -0.0928 -0.3087  0.3198
15779W        W18999   2.160   2.896   7.516  0.1023 -0.1890  0.0494
15780W        W19000   5.650   8.535   0.642  0.2629 -0.0704 -0.1070
15781W        W19001   5.050   7.782   0.957 -0.2329  0.0975  0.1781
15782W        W19002   1.814  11.819  13.552  0.2613  0.0035 -0.1134
15783W        W19003   3.252  11.163  17.723 -0.2303 -0.1413  0.3371
15784W        W19004  12.104   3.061   5.682 -0.0113  0.0711 -0.0151
15785W        W19005   3.464   9.413   0.826 -0.3510 -0.2376  0.2040
15786W        W19006   6.011   5.742   1.517  0.0755 -0.1592 -0.3256
15787W        W19007  15.435   7.582   3.112  0.2225  0.0737 -0.1036
15788W        W19008  16.331   8.354  16.422 -0.1833  0.2717 -0.2019
15789W        W19009   4.468   8.111   4.487 -0.3159  0.1431  0.6167
15790W        W19010   3.056   4.919   9.169  0.2077  0.4165 -0.0435
15791W        W19011   8.122   9.365   9.421 -0.1420 -0.0619 -0.0027
15792W        W19012   8.191   8.763   2.684  0.1368 -0.0122  0.2677
15793W        W19013   5.986   4.076  13.185 -0.3058 -0.0608 -0.0231
15794W        W19014   6.432   9.977  11.362 -0.2303  0.0263  0.0786
15795W        W19015  11.071  11.116   3.302 -0.1268 -0.3077  0.2795
15796W        W19016   9.371  11.168   4.982  0.3927 -0.0979  0.2428
15797W        W19017  10.099  12.333   4.481 -0.3234  0.0953 -0.1570
15798W        W19018   1.814   0.979   3.040  0.3074  0.1970  0.0467
15799W        W19019   5.873  10.205  17.166 -0.0791  0.3609  0.6997
15800W        W19020   2.254  11.794   0.581 -0.4312 -0.1211  0.2863
15801W        W19021   1.171  17.653  17.592 -0.1067 -0.0028 -0.0093
15802W        W19022  10.722   2.331  14.489  0.0625  0.2697  0.1601
15803W        W19023  12.799  14.089   8.601 -0.0125  0.1683 -0.1458
15804W        W19024  10.557  12.698  12.965  0.1810  0.0029 -0.3922
15805W        W19025  10.963   8.912  17.002 -0.0351 -0.0427  0.0033
15806W        W19026   7.877  12.849   3.781 -0.1042 -0.2725  0.2299
15807W        W19027   3.677   9.756   1.683 -0.0380  0.0310 -0.0895
15808W        W19028   5.798  13.039   5.475 -0.1529 -0.2292 -0.1074
15809W        W19029  17.900  16.552  16.346  0.1132 -0.0949  0.0501
15810W        W19030  16.826  11.687   3.633  0.0168  0.1244  0.0681
15811W        W19031   6.230   9.409   3.020  0.2294  0.1272 -0.1494
15812W        W19032  14.634  10.786   4.170 -0.0725  0.1747  0.1262
15813W        W19033  11.361   0.849  15.797  0.1240 -0.1879 -0.2158
15814W        W19034   4.123   7.434   0.062  0.0202  0.1835 -0.2116
15815W        W19035   4.653  12.970   0.577  0.1127 -0.0503 -0.0385
15816W        W19036  10.659  17.500   7.864 -0.0769 -0.1556 -0.3130
15817W        W19037   6.122   9.912   5.977 -0.2045  0.1335 -0.0416
15818W        W19038   6.585  13.680   6.109 -0.3322  0.1295  0.0937
15819W        W19039   3.438  12.811  13.641 -0.0811  0.2532 -0.2330
15820W        W19040   9.542  12.450   9.734 -0.2550  0.1226 -0.2645
15821W        W19041  11.933  10.929  16.054 -0.1308  0.0336 -0.1794
15822W        W19042   5.948  10.762   0.067  0.0466  0.0549  0.0918
15823W        W19043   5.140  10.176  17.747  0.0685  0.2504  0.3349
15824W        W19044   8.407  12.184   6.234  0.0753  0.2927  0.4207
15825W        W19045   9.803   0.213  18.117  0.1467  0.2084 -0.0218
15826W        W19046   6.076  15.761   3.212 -0.0995  0.2800 -0.3328
15827W        W19047  14.975  16.759  12.175 -0.2634  0.0159 -0.3192
15828W        W19048   1.315   0.890  13.258  0.2039  0.2757 -0.0593
15829W        W19049   6.551  14.291   9.784 -0.1333  0.0664 -0.2988
15830W        W19050   4.288  14.434   4.920  0.0660 -0.3236 -0.3860
15831W        W19051  10.499  10.773   9.446 -0.0096 -0.3753  0.0152
15832W        W19052   3.333  14.744   5.174  0.1410 -0.1127 -0.1250
15833W        W19053   2.663  10.266  16.666 -0.3436 -0.2881  0.1491
15834W        W19054   4.186  15.596   0.485  0.0677 -0.1932  0.0384
15835W        W19055   1.193  14.878   0.284 -0.1307 -0.1384 -0.1821
15836W        W19056  12.951  12.028   5.022 -0.2251 -0.0511  0.0121
15837W        W19057   5.382   3.996   0.774 -0.0360 -0.1416 -0.0880
15838W        W19058   8.458   2.624   0.096 -0.3462 -0.2062 -0.0629
15839W        W19059   1.833   8.093   0.971  0.4596 -0.0722 -0.1428
15840W        W19060  15.382   3.849   2.670 -0.3656  0.0698  0.4206
15841W        W19061   6.674   6.147   5.353 -0.1018 -0.0108 -0.2382
15842W        W19062  17.546  16.180  13.032 -0.1375  0.1553  0.2078
15843W        W19063   2.779   9.254  12.906 -0.1325  0.1096 -0.2414
15844W        W19064   3.050   2.201   9.429  0.2753 -0.1975  0.1426
15845W        W19065   9.511  13.947   1.619  0.1305  0.4116  0.0602
15846W        W19066   8.926  16.258  16.951 -0.0824 -0.3562 -0.0445
15847W        W19067  17.300  16.626   4.870 -0.1381 -0.1107  0.2399
15848W        W19068   6.384  15.941   4.676 -0.2432  0.0291  0.4323
15849W        W19069   5.161  11.093   0.460 -0.0171 -0.0302 -0.1898
15850W        W19070   5.163  15.740   6.816 -0.0261  0.0022 -0.2612
15851W        W19071   7.936   0.971   3.736 -0.3624  0.2556 -0.0584
15852W        W19072  17.579  15.788  12.664 -0.0613 -0.1572 -0.1393
15853W        W19073   7.052  13.756   1.499 -0.2812 -0.0282 -0.0651
15854W        W19074   2.138  11.458   1.005  0.0681  0.2447  0.3885
15855W        W19075   1.040  16.673   4.047 -0.1280 -0.0087  0.1914
15856W        W19076   8.337  15.644  17.971  0.4091 -0.1318 -0.0354
15857W        W19077   5.234  15.110   0.170 -0.1676 -0.0031  0.1275
15858W        W19078  13.700  14.467   3.718  0.2330  0.1904 -0.2980
15859W        W19079   3.768  12.400  17.325 -0.2360 -0.0055  0.0150
15860W        W19080   7.260  11.636  17.515 -0.2804 -0.1125  0.1065
15861W        W19081   5.432  11.947   3.892  0.1492 -0.0732 -0.0364
15862W        W19082   7.552   2.158   0.924 -0.0414 -0.1885  0.1645
15863W        W19083   3.697  13.469  18.171 -0.1119  0.1153 -0.3414
15864W        W19084  17.013  16.120   2.514  0.0037 -0.0730  0.1739
15865W        W19085   5.829  17.758  17.544  0.0560 -0.0366  0.0442
15866W        W19086   4.984  12.020   2.544 -0.0057  0.0141 -0.2001
15867W        W19087   7.144  14.855   2.093  0.0519 -0.0669  0.0257
15868W        W19088   3.714  12.026   3.138  0.2698  0.0012 -0.0205
15869W        W19089   4.378   9.234   4.626  0.2074 -0.1500 -0.1882
15870W        W19090   0.494  12.727  14.288  0.4865 -0.0729  0.0950
15871W        W19091   9.553  12.302  11.222 -0.1501  0.1958  0.1797
15872W        W19092   2.483  15.109   5.396  0.0046 -0.0377  0.0472
15873W        W19093  12.416  13.304   2.195 -0.2293  0.4044  0.2012
15874W        W19094  11.688  16.332  17.821 -0.1496 -0.0131  0.3464
15875W        W19095   5.423  13.171   3.379  0.2540 -0.1255  0.0313
15876W        W19096   2.637  14.591   9.446 -0.0297 -0.0636  0.2440
15877W        W19097  11.539   7.753   2.524 -0.2028 -0.2387  0.1176
15878W        W19098   4.183   8.458  14.379 -0.2405 -0.2472  0.0140
15879W        W19099   4.703   6.199   4.036  0.3280  0.2786  0.0668
15880W        W19100  15.349   8.949  18.021  0.3267  0.1424 -0.0026
15881W        W19101  10.921   0.191   0.286 -0.1009  0.0230 -0.3365
15882W        W19102  17.680   0.174   0.860 -0.0288  0.1303  0.0316
15883W        W19103   4.976  10.145  15.775 -0.0071 -0.2866  0.0559
15884W        W19104   0.562  13.323   6.433  0.0586  0.2286 -0.1618
15885W        W19105   6.764  10.889   8.326 -0.1281 -0.0878 -0.0334
15886W        W19106   1.791  15.737   1.566  0.1531 -0.1464  0.1010
15887W        W19107  10.169  11.809   6.061  0.0553  0.0097  0.2688
15888W        W19108   6.662  16.673  17.482  0.2635  0.1004 -0.0798
15889W        W19109   3.874  10.356   9.813  0.1581  0.1313 -0.1719
15890W        W19110  11.388  11.287   4.167  0.2287 -0.1404 -0.0329
15891W        W19111   5.466   2.510  15.395 -0.0373  0.0087 -0.0599
15892W        W19112   9.978  11.549   8.886  0.3473 -0.1138  0.0007
15893W        W19113   4.777  10.896  17.671 -0.1947 -0.1977 -0.1203
15894W        W19114   5.576  13.858   4.096 -0.1681 -0.1103  0.0553
15895W        W19115  12.982  11.388   4.788  0.1855  0.0548  0.1744
15896W        W19116  16.435  10.185   0.614  0.0933  0.2508 -0.0684
15897W        W19117   0.173  15.057   8.204 -0.1638 -0.4129 -0.1630
15898W        W19118   4.929  17.094   6.789 -0.3092 -0.0419  0.2543
15899W        W19119  11.141  16.153   3.475  0.0608  0.0736 -0.1562
15900W        W19120  10.619   7.652  15.901  0.0286  0.0825 -0.1361
15901W        W19121   2.448  13.799   3.061  0.0490 -0.0959 -0.2693
15902W        W19122   7.756  12.459  16.421  0.0108 -0.1052  0.1255
15903W        W19123   5.080  15.571  11.286  0.2945  0.1255 -0.0531
15904W        W19124   0.853   6.839   0.766 -0.3828  0.0106  0.1590
15905W        W19125   8.297   8.573   0.922  0.1071 -0.0807 -0.3366
15906W        W19126   5.682  16.564   7.122  0.0147 -0.1118  0.4073
15907W        W19127   7.118   5.485  18.249  0.2241  0.0918 -0.1436
15908W        W19128  12.679  12.375   2.098 -0.3752  0.0518 -0.1592
15909W        W19129   2.828  17.685  15.436 -0.3476 -0.0013  0.3716
15910W        W19130   2.887  18.211  15.343 -0.0141  0.0288 -0.1462
15911W        W19131   3.907  14.789  16.879 -0.1035 -0.2611 -0.1094
15912W        W19132   3.669  17.583   0.118  0.0109  0.0142 -0.0126
15913W        W19133   2.889  11.883  10.749  0.3453  0.0755 -0.0639
15914W        W19134   9.433  15.132   0.123  0.0430  0.0649  0.3911
15915W        W19135   4.029  14.626   6.730  0.2442 -0.0810 -0.2248
15916W        W19136   8.505  11.016  17.449 -0.2578 -0.1111  0.0846
15917W        W19137   1.722  15.497   6.510  0.1019 -0.0214  0.1821
15918W        W19138  10.810  18.110   2.104 -0.0247 -0.0789 -0.2036
15919W        W19139   1.803  12.944  15.100 -0.0210 -0.2270  0.0827
15920W        W19140   4.059   8.809   2.152  0.1144  0.0439 -0.0538
15921W        W19141  14.119   3.525   8.996  0.0810  0.2284  0.0538
15922W        W19142   9.844  10.858   8.290 -0.3616  0.1608 -0.3183
15923W        W19143   6.615  17.165  16.558  0.1514 -0.1602  0.3414
15924W        W19144   8.846  14.358  14.479 -0.3177 -0.3216  0.1400
15925W        W19145   6.688  12.183   4.727  0.1675 -0.0034 -0.1980
15926W        W19146   0.023  15.132  11.173 -0.0303 -0.2628 -0.2160
15927W        W19147   3.222  17.486  15.030 -0.1960 -0.2654 -0.1145
15928W        W19148  12.348   7.101   5.764  0.1757 -0.1010  0.0768
15929W        W19149   5.624  10.463  14.150  0.0135  0.0105 -0.0092
15930W        W19150  11.044  13.358   3.550  0.0445  0.0308 -0.1229
15931W        W19151   5.426  15.777   1.158  0.4749  0.0918  0.1025
15932W        W19152   7.456  14.072   2.724  0.0008 -0.1534 -0.0460
15933W        W19153  11.185  14.071   2.801  0.0874 -0.0978 -0.0986
15934W        W19154   6.309   1.015   0.400  0.3342 -0.1590  0.1168
15935W        W19155   0.223  13.029  13.914  0.1874  0.0808  0.2317
15936W        W19156  11.199   8.696   1.159  0.0389  0.0643 -0.1645
15937W        W19157   5.827  11.223   2.881 -0.3553  0.3828 -0.0635
15938W        W19158  14.870   9.954   3.726  0.1307 -0.2745  0.3016
15939W        W19159   7.212  11.083   2.589 -0.0727 -0.3373 -0.1479
15940W        W19160  10.343  11.809   2.799  0.1398  0.2183  0.0382
15941W        W19161   3.309   4.550  16.204  0.1645  0.2001  0.1726
15942W        W19162   4.372  15.720   7.879  0.0383  0.0218  0.1864
15943W        W19163   8.167  12.208  16.986 -0.0279 -0.1925  0.0825
15944W        W19164   3.961  10.794   0.049  0.0343 -0.0522  0.2336
15945W        W19165   7.595  15.859   4.388 -0.1600 -0.1350 -0.0028
15946W        W19166   8.763  11.158  16.498  0.0114  0.0208 -0.1466
15947W        W19167  10.303   6.514   4.389  0.2242  0.1627 -0.0197
15948W        W19168  10.283  10.363  17.183  0.1586 -0.3626 -0.0436
15949W        W19169   6.606   3.915   2.908  0.0865 -0.1002 -0.1448
15950W        W19170   6.581   1.293   4.332 -0.2735 -0.3337  0.1273
15951W        W19171   1.891   3.130  17.553  0.0241  0.3543 -0.2017
15952W        W19172   2.223  12.814  17.974 -0.1032 -0.3019  0.0141
15953W        W19173  12.509  17.078  16.972  0.0692 -0.2097 -0.0512
15954W        W19174   7.723  10.150   4.452  0.0244  0.1286  0.2585
15955W        W19175   3.819  17.772   6.679  0.1882  0.1341 -0.0363
15956W        W19176  10.192  14.641  14.142  0.0631  0.0686  0.1105
15957W        W19177   8.731  11.904  11.179  0.0430 -0.4447  0.3158
15958W        W19178   3.931  12.165   8.808 -0.0537 -0.0994 -0.2163
15959W        W19179   1.403  12.509   7.880  0.0730 -0.1294 -0.2273
15960W        W19180   5.660  14.149  16.134 -0.0343  0.2089 -0.1164
15961W        W19181   5.542   1.333  13.774  0.0310  0.1062  0.1445
15962W        W19182   8.651  11.227  15.971 -0.4570  0.1763 -0.2415
15963W        W19183   4.778  15.661   8.095  0.2025  0.3450  0.1732
15964W        W19184   1.667  13.180  11.818  0.0932  0.1401 -0.1466
15965W        W19185   0.137   6.010  17.105 -0.1653  0.3738 -0.2025
15966W        W19186   7.501  13.512   6.955 -0.0096 -0.2491  0.2161
15967W        W19187   2.690  17.204  17.452 -0.0062  0.3079  0.2234
15968W        W19188   0.117   9.949   2.536  0.0932 -0.1012 -0.0944
15969W        W19189   5.045  12.134   0.990  0.0121 -0.1157 -0.1336
15970W        W19190   3.406  12.310   2.337 -0.0396 -0.0469 -0.2264
15971W        W19191   3.631  15.352   1.422 -0.0977 -0.0367 -0.1912
15972W        W19192   8.663   1.013  15.611 -0.0356  0.2183  0.0698
15973W        W19193   5.987  10.496   1.541 -0.1325 -0.1278 -0.2830
15974W        W19194   4.397  12.883   5.881 -0.1163 -0.0117 -0.0599
15975W        W19195   3.576   0.334   4.674 -0.1675 -0.1060 -0.0012
15976W        W19196   1.636  13.520  10.092  0.1459 -0.1500 -0.0380
15977W        W19197  11.234  18.003   1.737 -0.0979 -0.3025  0.1289
15978W        W19198   6.632  14.646   2.748  0.1047  0.1085  0.0377
15979W        W19199   2.156   6.678   1.210  0.1486 -0.0076  0.1230
15980W        W19200   3.941  12.917   5.621  0.0434  0.1753 -0.1611
15981W        W19201   3.330  12.624   0.482 -0.1126  0.2461 -0.0808
15982W        W19202   8.918   8.020   1.414  0.0902 -0.1020 -0.4737
15983W        W19203   3.528  11.812   2.200 -0.0153 -0.3423 -0.2551
15984W        W19204   5.530   4.383   2.530  0.0597 -0.1189  0.0717
15985W        W19205   2.131  10.913  16.749 -0.3670 -0.0453  0.0359
15986W        W19206  15.098  13.458   3.096 -0.1641  0.1817  0.0068
15987W        W19207   4.933   4.334   2.877 -0.1979  0.1605 -0.2973
15988W        W19208   5.211  12.341   2.806  0.1086 -0.0033 -0.0700
15989W        W19209  10.043  14.943  16.570 -0.0332 -0.0453 -0.2307
15990W        W19210   4.121  17.261   8.570 -0.2414 -0.1478  0.0307
15991W        W19211   0.132  17.916  13.962  0.1219  0.0180 -0.1499
15992W        W19212   9.739   0.236   6.258  0.3513  0.0062  0.0636
15993W        W19213  11.313   8.476  17.698  0.0634 -0.1541 -0.1863
15994W        W19214   6.522   6.558   1.566  0.2400 -0.0282 -0.0612
15995W        W19215   9.481   6.089   4.331 -0.0531 -0.0091  0.2788
15996W        W19216   7.328  10.953  13.497 -0.1569 -0.0279  0.0301
15997W        W19217   5.422   9.058   0.211 -0.1646 -0.3090 -0.0865
15998W        W19218   8.021   4.618  12.524 -0.2075 -0.1492  0.1840
15999W        W19219   4.161   1.063   1.110  0.0319 -0.1980  0.0482
16000W        W19220   6.673   8.545   4.267 -0.0245 -0.0856 -0.0478
16001W        W19221   5.780  12.858   6.433 -0.0996  0.3553 -0.0524
16002W        W19222   8.284  15.139   3.159 -0.0330  0.1839  0.2815
16003W        W19223   3.680  17.832  15.272  0.0048  0.0216  0.1096
16004W        W19224  17.031  12.346   1.341  0.0942 -0.1009 -0.0648
16005W        W19225   4.896  13.583  12.729 -0.1527  0.1748  0.1436
16006W        W19226   6.058  14.374  17.768 -0.2354  0.1969  0.0348
16007W        W19227   4.271  13.936  17.293 -0.0905  0.0035  0.1461
16008W        W19228   6.345  10.835   1.365 -0.0818 -0.2895 -0.0749
16009W        W19229   8.001  11.554   0.346 -0.0852  0.1316  0.0627
16010W        W19230   6.495  14.098  17.113 -0.0500 -0.2154  0.0920
16011W        W19231   6.220   8.018   3.153 -0.1767 -0.1916  0.0843
16012W        W19232   6.043   6.265   1.242 -0.4028 -0.0025 -0.0513
16013W        W19233   6.412  14.311   5.029 -0.1063 -0.1681 -0.2965
16014W        W19234  17.471  13.496   3.350 -0.1761  0.2835  0.0230
16015W        W19235   0.432  12.076   5.555 -0.1495 -0.0189 -0.0823
16016W        W19236   4.862   9.902  12.864 -0.2486 -0.3755 -0.1387
16017W        W19237   2.649  15.725   1.337  0.0135  0.0050  0.0855
16018W        W19238   9.140   1.262  15.889 -0.0162  0.3854  0.3461
16019W        W19239  14.666   8.229   4.335 -0.3595  0.0972  0.0864
16020W        W19240  11.725  11.556   3.517  0.0289  0.0185 -0.0227
16021W        W19241  10.566   0.348   9.642 -0.2174  0.2181 -0.0346
16022W        W19242  13.587   5.235   8.703 -0.0989 -0.1363 -0.0974
16023W        W19243   2.002  13.053   5.305 -0.1702  0.4065 -0.2235
16024W        W19244   8.166  10.542   3.308  0.0014  0.0806 -0.4303
16025W        W19245   6.451  12.172  17.706 -0.0845 -0.0516  0.0335
16026W        W19246  16.218  14.255   3.036 -0.2868  0.0500 -0.0897
16027W        W19247   4.885  14.176   8.479  0.1197  0.0607  0.1386
16028W        W19248  16.851  13.858   6.097  0.0300 -0.1389  0.3045
16029W        W19249  15.370   0.348  13.216 -0.2014 -0.0939  0.2277
16030W        W19250   7.917  11.816   1.782 -0.1726 -0.1848 -0.0195
16031W        W19251   0.901  14.084   5.511  0.1151 -0.2037 -0.0358
16032W        W19252   1.931  12.763  16.036 -0.3039 -0.0810  0.1855
16033W        W19253   3.445  14.810  17.711  0.0984 -0.2532 -0.1984
16034W        W19254   6.101  18.082  17.898 -0.2834 -0.1116 -0.0176
16035W        W19255   6.339   1.482   7.969  0.1232 -0.0104 -0.2549
16036W        W19256  17.066  15.331  14.108 -0.0049  0.1126 -0.1283
16037W        W19257   2.571   0.001  17.168 -0.0225 -0.1236  0.2653
16038W        W19258  13.097  11.343   6.118  0.2259  0.0490 -0.0659
16039W        W19259   4.876   2.917  16.434  0.1489  0.0182  0.1228
16040W        W19260   6.558   6.140   2.100  0.3654  0.0209 -0.1386
16041W        W19261   3.277   9.358   0.386  0.0369 -0.3482  0.2692
16042W        W19262   9.314  15.247   0.756  0.1260  0.0357  0.1793
16043W        W19263   4.050  13.297  16.192 -0.3292 -0.0651 -0.0827
16044W        W19264   8.277  13.473  10.448  0.1705 -0.0149  0.0619
16045W        W19265   7.917  12.326   9.991 -0.3995 -0.3935 -0.1629
16046W        W19266   4.226  17.000   0.703 -0.1247 -0.1712 -0.2732
16047W        W19267   2.378  13.389  14.543 -0.2015  0.0762  0.0766
16048W        W19268   9.975  11.493   2.758 -0.0501  0.0468  0.3181
16049W        W19269   3.847   0.837  16.929 -0.0254  0.3174  0.1060
16050W        W19270  14.014   9.621  16.285  0.3508 -0.2781  0.0127
16051W        W19271   5.519   8.239  12.564  0.1620  0.3692 -0.1502
16052W        W19272   7.969   7.273  17.195 -0.4072  0.1323 -0.2917
16053W        W19273   5.018  12.273   4.060 -0.0130  0.2579 -0.0563
16054W        W19274  17.345  16.048  17.637 -0.0051 -0.2210  0.1834
16055W        W19275   2.995  16.302  14.655 -0.0417  0.2029 -0.0401
16056W        W19276   8.448  13.011   3.885  0.1236  0.0542  0.2573
16057W        W19277   8.042   9.071   0.606 -0.2064  0.2993  0.0195
16058W        W19278  14.353  16.812  17.406 -0.1093  0.0398  0.0968
16059W        W19279  17.010  10.841   2.998 -0.3094 -0.2622  0.2358
16060W        W19280   3.220  17.891   3.587 -0.0018 -0.3761  0.0351
16061W        W19281   2.595  17.853  17.473 -0.1213 -0.0096 -0.1187
16062W        W19282   3.586  11.373   0.670  0.0909 -0.2250  0.0675
16063W        W19283  11.397  16.371   1.322 -0.0335  0.0463  0.1907
16064W        W19284   3.421  15.952   4.464  0.0017 -0.1567 -0.5863
16065W        W19285   5.247  13.155   4.342  0.3291 -0.0529  0.1587
16066W        W19286   5.085  14.454  17.464  0.1733  0.0004 -0.2873
16067W        W19287   1.075   0.221   3.497 -0.0668  0.0149 -0.2393
16068W        W19288   0.249  12.824   5.667 -0.2470  0.0473  0.0099
16069W        W19289  10.173  13.905  16.885 -0.1335 -0.2632 -0.6053
16070W        W19290  10.053   8.997  17.381 -0.0259  0.2982 -0.1399
16071W        W19291   3.433  17.165  14.636  0.1848 -0.0271 -0.1791
16072W        W19292  10.095  10.104   7.769  0.0173 -0.2842  0.2575
16073W        W19293   7.462  15.457  15.045 -0.1060  0.0213 -0.0880
16074W        W19294   2.008  12.484   3.168 -0.3717  0.2159 -0.1274
16075W        W19295   3.740   0.653   3.974 -0.3106  0.1652  0.0928
16076W        W19296  10.159   7.291   5.887 -0.1354  0.1917  0.1998
16077W        W19297   5.311   2.276  16.503 -0.3836 -0.1137 -0.1682
16078W        W19298   3.284  12.867   9.965 -0.0915  0.1002  0.1577
16079W        W19299   0.268   0.064   3.659  0.1915  0.1452 -0.0805
16080W        W19300   4.444  17.472   0.826 -0.0024 -0.0947 -0.1942
16081W        W19301   4.884  15.889   2.136  0.0104  0.0177 -0.1458
16082W        W19302  11.048   9.872   7.956 -0.0692  0.0441  0.3065
16083W        W19303   6.543  13.171   2.586 -0.0779 -0.0880 -0.2611
16084W        W19304   4.193   2.377  11.288  0.1530  0.1935 -0.1258
16085W        W19305   7.865  13.915   1.652  0.0336 -0.0877  0.2001
16086W        W19306   6.093  15.193   7.847  0.0192  0.0156  0.1195
16087W        W19307   3.854   8.374  17.111 -0.0481 -0.0587  0.1795
16088W        W19308   4.015  13.094  12.324  0.2326  0.0643 -0.2969
16089W        W19309   8.372  10.614  13.811  0.2520  0.3795  0.1340
16090W        W19310   4.195  12.798   0.790  0.1063 -0.5714  0.0881
16091W        W19311  17.540  10.150  11.478  0.0928 -0.0574  0.0457
16092W        W19312   4.958  11.467   0.112 -0.0085  0.0088 -0.1167
16093W        W19313   4.645  17.114  15.566  0.1278  0.1346 -0.1199
16094W        W19314   7.797  16.998  17.215 -0.0239  0.2848  0.2595
16095W        W19315   8.726   0.445   5.364 -0.2191 -0.1654  0.0247
16096W        W19316   6.648   8.780  14.278  0.0892  0.3277 -0.0302
16097W        W19317   8.176  13.150  14.252 -0.0119  0.1420  0.1935
16098W        W19318   8.452  15.452   2.210  0.4043 -0.0604  0.1379
16099W        W19319   6.532   8.645  16.457  0.0724  0.0684 -0.0400
16100W        W19320   2.054   2.466   5.755 -0.0672  0.1869 -0.0814
16101W        W19321  14.848  15.628  17.903 -0.0740 -0.0570  0.3075
16102W        W19322   0.991  12.970   8.987 -0.4964  0.0347  0.1822
16103W        W19323   5.429  12.923  10.885 -0.0972 -0.0123  0.0146
16104W        W19324   4.137   1.300  13.398  0.0418 -0.2377 -0.1047
16105W        W19325   5.159  12.841   2.603  0.0462 -0.1317 -0.1541
16106W        W19326  15.140  10.293   4.909  0.2478  0.0093 -0.0873
16107W        W19327  12.032  17.769   8.563  0.0548  0.1329  0.0859
16108W        W19328   7.906  10.981  17.080 -0.1555  0.0118  0.1386
16109W        W19329   9.424  14.665  17.729 -0.1571 -0.0498  0.2295
16110W        W19330   6.395  17.983   7.491 -0.1701 -0.1049 -0.0316
16111W        W19331  16.723  17.273   2.313 -0.0727  0.0397  0.0856
16112W        W19332   8.245  17.194   3.917 -0.2137 -0.2573 -0.1331
16113W        W19333   6.687  11.858   2.365 -0.2669 -0.2120 -0.0348
16114W        W19334   5.137  11.105   3.602 -0.0837  0.3163  0.0261
16115W        W19335   7.695   1.424   7.355  0.4792 -0.0398  0.0606
16116W        W19336   8.685  14.148   9.964 -0.1142 -0.1705 -0.2070
16117W        W19337   9.203  17.325  14.558  0.0311 -0.0290 -0.1386
16118W        W19338  14.653  13.974   8.559 -0.4465  0.0540 -0.1389
16119W        W19339   7.073   5.996   3.314 -0.3663  0.2620 -0.2301
16120W        W19340   2.800   9.854   2.440 -0.1098 -0.0181  0.1687
16121W        W19341   2.240  15.614   0.222 -0.0090 -0.1742 -0.1129
16122W        W19342  13.138   5.271   0.880  0.0035  0.0064  0.2949
16123W        W19343   1.554   9.895   5.792  0.1861  0.1346 -0.1531
16124W        W19344   3.676  15.314  17.669  0.0277  0.2976  0.0214
16125W        W19345  17.140  16.424   3.581 -0.1815  0.3437  0.2224
16126W        W19346   4.038  17.718  17.379 -0.0286  0.0135 -0.1146
16127W        W19347   1.097  15.402   2.402 -0.1332 -0.1740  0.1512
16128W        W19348   4.304  18.221  11.322  0.0470  0.2350  0.0259
16129W        W19349   8.218  16.335   0.828 -0.0566  0.0977  0.0605
16130W        W19350   4.395   1.357  16.443  0.0266 -0.1031  0.0846
16131W        W19351   4.693   2.008   9.796  0.4059 -0.1477 -0.1667
16132W        W19352   6.735   6.339   0.718  0.1833  0.1155 -0.2245
16133W        W19353   4.776   2.039   3.119  0.0938 -0.2941 -0.3495
16134W        W19354   9.408   6.448   0.992 -0.2517  0.2157 -0.0531
16135W        W19355   4.251  13.007   1.240  0.1127  0.1464 -0.2487
16136W        W19356   1.132  15.446   9.071  0.0118 -0.0553  0.1111
16137W        W19357   3.770  15.793   0.626  0.4257  0.0515  0.2969
16138W        W19358   5.330   8.649   2.289 -0.0491 -0.0606  0.1651
16139W        W19359   0.590  17.530   9.848 -0.3125 -0.0946  0.2142
16140W        W19360  14.644  13.549   4.900  0.0830 -0.0789  0.0468
16141W        W19361   2.555  12.427   4.036  0.0281 -0.1927 -0.0256
16142W        W19362   5.878  13.658  18.185 -0.3005  0.1936 -0.1644
16143W        W19363  12.837  14.177  13.590 -0.2206  0.0684  0.1334
16144W        W19364   7.627   8.759   6.504  0.2244 -0.1823 -0.0519
16145W        W19365   4.286  13.791   5.625  0.2227 -0.0923  0.0642
16146W        W19366   7.253   9.720  16.158  0.0336  0.2760  0.1067
16147W        W19367   7.156   0.605   0.838  0.1095  0.2350 -0.1332
16148W        W19368   6.846   5.237   1.019 -0.0032 -0.0997 -0.2362
16149W        W19369   7.274  10.325   1.119 -0.0293  0.0731 -0.1104
16150W        W19370   8.677  10.677   1.847  0.0104  0.2375 -0.1047
16151W        W19371   6.985  11.775   5.725 -0.0811 -0.1975  0.0652
16152W        W19372   3.841  17.259   3.438  0.1069 -0.0339 -0.0460
16153W        W19373   4.841  14.958   1.015  0.1035  0.1262 -0.0371
16154W        W19374  12.007   8.643   6.841  0.0338 -0.2716 -0.1976
16155W        W19375   8.689  12.436   8.903  0.1333  0.3226 -0.2371
16156W        W19376  12.484  10.140   3.489 -0.1339  0.1893  0.1507
16157W        W19377  12.228   9.886   0.200  0.0982 -0.0838 -0.1290
16158W        W19378   4.896  17.194  17.418  0.1088 -0.2341  0.0123
16159W        W19379  14.616  11.530   4.009 -0.2782 -0.1210 -0.2372
16160W        W19380   1.142   2.145   2.930  0.2466  0.3495  0.2145
16161W        W19381   4.158  13.924   1.229 -0.1264  0.3230  0.3296
16162W        W19382   1.782  11.075   2.513  0.0413 -0.0462 -0.0662
16163W        W19383   1.467  18.000   4.104  0.1221 -0.0200 -0.0349
16164W        W19384   3.089  13.643   2.318  0.1475  0.3365 -0.0486
16165W        W19385   5.124  16.256   5.224  0.1697 -0.1384 -0.0454
16166W        W19386   7.456   0.687   3.605  0.2299  0.0527 -0.1495
16167W        W19387   6.494  14.717   3.341  0.1357  0.1464 -0.1643
16168W        W19388   6.676  15.933  10.498  0.1563 -0.0074 -0.0762
16169W        W19389  16.550  14.670   2.598  0.2453  0.0423 -0.2279
16170W        W19390   6.813   6.422  10.875 -0.0437  0.2452  0.1071
16171W        W19391   7.804  16.859  13.731  0.1500  0.0671  0.1693
16172W        W19392   6.734  10.566   1.479 -0.1652 -0.2038  0.0172
16173W        W19393   6.863   0.179  16.662 -0.0473  0.0763 -0.0193
16174W        W19394   2.271  17.813   4.801 -0.0829  0.0487 -0.2151
16175W        W19395  16.825  13.077  13.453 -0.1318  0.1444 -0.2317
16176W        W19396   4.451  14.545  15.557  0.3813 -0.0199  0.2489
16177W        W19397  12.210  12.946   6.690 -0.3822 -0.0833  0.2478
16178W        W19398   5.337  12.151  12.804  0.0143  0.0765  0.0543
16179W        W19399  11.866  15.809   0.218  0.2282  0.2712 -0.0518
16180W        W19400   2.709  16.976  15.494  0.0670  0.0605 -0.0182
16181W        W19401  17.954  11.778  16.278 -0.0672  0.0724  0.1792
16182W        W19402   2.899  11.769   3.365 -0.3090  0.0573 -0.1481
16183W        W19403   5.445  17.055   8.217 -0.2355  0.0801 -0.0607
16184W        W19404   7.433  18.164  16.658 -0.1325  0.0253  0.1276
16185W        W19405  10.789  11.616   5.343  0.2856 -0.4309 -0.1543
16186W        W19406   3.304  15.798  13.824 -0.0661  0.0162 -0.1707
16187W        W19407   2.812  16.616  14.097 -0.1473  0.2447  0.0578
16188W        W19408   1.757  12.828  10.681  0.0378 -0.1178  0.1172
16189W        W19409  17.995   2.052   8.177  0.1109  0.2635 -0.0669
16190W        W19410   7.643  16.661   6.734 -0.1019 -0.0951  0.3353
16191W        W19411   5.753   3.457  12.444 -0.1221 -0.1483  0.0890
16192W        W19412   3.972   2.781   3.339 -0.0288  0.1525  0.1509
16193W        W19413   3.199   2.323   8.255 -0.2305 -0.1207  0.0670
16194W        W19414  10.750  11.719   2.528  0.0382 -0.1507 -0.0015
16195W        W19415   1.093   1.076   8.667  0.0882  0.0387  0.3554
16196W        W19416  10.110   9.333   2.135  0.0495 -0.1329  0.0669
16197W        W19417  11.441  12.554   2.827  0.1827 -0.4611  0.0477
16198W        W19418   7.929  10.012   1.865  0.1979 -0.2905  0.0367
16199W        W19419  17.203  16.136   6.572 -0.0131 -0.0851  0.0295
16200W        W19420   8.729   4.225   6.914  0.0738 -0.2275  0.1627
16201W        W19421   7.080   9.151   1.709  0.2101 -0.1362 -0.0570
16202W        W19422  11.819   0.150   1.144  0.1174 -0.1099  0.0825
16203W        W19423   2.945  11.904  10.209  0.4589  0.1163 -0.0421
16204W        W19424  10.106  12.685   9.787 -0.3218  0.2183 -0.3483
16205W        W19425   1.471  10.024   4.921 -0.0076  0.1313 -0.2212
16206W        W19426   5.578   1.704   6.841 -0.1819  0.0296  0.0817
16207W        W19427   1.632   9.792   1.750 -0.2455  0.0795  0.0604
16208W        W19428   2.840   6.234  16.183  0.1005  0.1217 -0.1397
16209W        W19429   5.642   6.508   1.398  0.6524 -0.1441  0.0435
16210W        W19430   3.089  10.763   9.625  0.0192 -0.2230  0.1992
16211W        W19431   1.358   1.952   5.399 -0.1833  0.2556  0.0915
16212W        W19432   0.942   4.911   6.083 -0.1603 -0.0232  0.3451
16213W        W19433  14.542   9.799  15.969  0.4367  0.1669 -0.0157
16214W        W19434   8.227   7.408   6.379 -0.1949 -0.0460 -0.2273
16215W        W19435   4.339   1.148   5.587 -0.4500  0.1719  0.2780
16216W        W19436   9.890  10.119   6.940  0.0260 -0.1335  0.1142
16217W        W19437   5.946   8.298   9.820 -0.1640 -0.1340  0.0277
16218W        W19438   8.702  15.000  17.590 -0.0573 -0.0010  0.5259
16219W        W19439   1.755  14.565  10.825 -0.2355 -0.2595  0.2582
16220W        W19440   8.383  11.148   3.161 -0.1301 -0.1911  0.0659
16221W        W19441  17.714  13.121   4.195  0.0775 -0.1696 -0.0690
16222W        W19442   9.025   0.903   8.428 -0.0055 -0.1277 -0.3052
16223W        W19443   8.327  14.411   7.033 -0.1016 -0.0751  0.1107
16224W        W19444  14.982   9.830   2.547 -0.2596  0.1454 -0.0586
16225W        W19445  17.869  15.566   5.597  0.2465 -0.1187  0.1424
16226W        W19446  16.487  12.484   4.931  0.2271  0.0601 -0.1887
16227W        W19447   5.162   9.918   9.092 -0.1296  0.0052 -0.1310
16228W        W19448   4.959  11.475   3.176 -0.0961 -0.7067  0.0564
16229W        W19449   7.331   9.453   3.319 -0.2617 -0.1017 -0.1902
16230W        W19450  17.036  16.811   7.676 -0.0246 -0.1182 -0.0541
16231W        W19451   7.413   7.569  17.900 -0.1640  0.2656  0.3733
16232W        W19452  10.758  13.766  17.414 -0.0378 -0.2126 -0.1883
16233W        W19453   8.732  10.162   7.011  0.3064 -0.2443  0.1011
16234W        W19454   5.534  16.938   1.243 -0.0170 -0.0051 -0.2807
16235W        W19455   6.889  12.187   7.913 -0.0395 -0.0742 -0.2238
16236W        W19456   4.558  15.942   4.937  0.2541  0.4635  0.3623
16237W        W19457   4.811  11.024   5.371  0.3079  0.1737 -0.1526
16238W        W19458   2.675  16.184   6.691 -0.1921  0.0660 -0.1001
16239W        W19459   0.142  11.324  10.905 -0.1780 -0.0655  0.1593
16240W        W19460   7.717  14.786   4.760 -0.0089 -0.2792 -0.0290
16241W        W19461   9.851  10.375   7.335 -0.2455  0.0872 -0.1588
16242W        W19462   4.214  17.742   3.539  0.0703 -0.1067 -0.1813
16243W        W19463   3.540  15.878   2.147 -0.1697  0.2471  0.1291
16244W        W19464   3.482  14.080  17.197  0.0459 -0.1643  0.6147
16245W        W19465   7.127   3.246   8.990 -0.1773 -0.1535 -0.0390
16246W        W19466  12.964   6.266   7.814  0.3772 -0.1593  0.2410
16247W        W19467   1.780  15.932   5.742 -0.2037  0.0509 -0.3067
16248W        W19468   9.861  13.169   2.336  0.2072 -0.0031 -0.2364
16249W        W19469  16.861  11.122   3.429 -0.0635  0.2790  0.5166
16250W        W19470   8.635  11.251   3.619 -0.0306  0.0463 -0.2290
16251W        W19471   6.544  12.947  11.613  0.3084  0.1659 -0.1516
16252W        W19472   2.373  14.261   8.013 -0.1633 -0.1178  0.1216
16253W        W19473   3.926  16.007   4.794  0.0281  0.0423 -0.0440
16254W        W19474   6.257  13.990   3.614  0.2916 -0.2860 -0.1088
16255W        W19475   5.916   9.981  15.807 -0.0413  0.3125 -0.0829
16256W        W19476   3.690   6.867   9.429 -0.1228  0.1340  0.1806
16257W        W19477   0.805   7.645   4.658  0.0227 -0.3035  0.0982
16258W        W19478  10.799  11.003   7.125  0.0302 -0.1829 -0.1228
16259W        W19479   7.625  13.213   2.483  0.3074  0.2103  0.0973
16260W        W19480   8.071   1.106   2.283  0.0729  0.1264 -0.0038
16261W        W19481   6.362  14.147   6.842  0.5171 -0.0154  0.0495
16262W        W19482   3.201  13.710   4.382  0.2739 -0.1242 -0.0081
16263W        W19483   1.655  14.742   5.432  0.1571  0.0023 -0.0235
16264W        W19484   4.852   9.085  14.349  0.0636 -0.1282 -0.0057
16265W        W19485   5.532  12.384  17.827 -0.1200  0.1960 -0.0096
16266W        W19486   0.871  17.304  17.385 -0.0746  0.0343  0.1302
16267W        W19487  15.530  13.864  15.275 -0.1631 -0.0359  0.0041
16268W        W19488   7.379   1.741   8.491  0.0961  0.0316 -0.1361
16269W        W19489   4.854   6.645   7.154  0.1221 -0.0775 -0.1144
16270W        W19490  15.972  13.954  15.595  0.0223 -0.0466  0.1087
16271W        W19491  14.013  14.414   5.386  0.0359  0.4243 -0.1237
16272W        W19492  18.007  12.159  13.523 -0.0006 -0.4671 -0.1920
16273W        W19493   7.256  18.014   3.291 -0.1173 -0.0635  0.0101
16274W        W19494   3.440  11.156   9.443  0.1524  0.1077  0.0868
16275W        W19495   5.745  17.222  17.276 -0.0115  0.0333  0.1426
16276W        W19496   6.505  14.279  16.285  0.0642 -0.3219  0.2683
16277W        W19497  16.767  16.351   4.618 -0.1993 -0.1444  0.1652
16278W        W19498  11.013  12.826   6.272  0.1125 -0.1822 -0.0753
16279W        W19499   6.787  14.107   3.721 -0.0390 -0.1541 -0.0234
16280W        W19500   5.172   2.344   4.356 -0.1716  0.0388 -0.0651
16281W        W19501   7.093  18.207   9.047 -0.0348 -0.1171  0.1835
16282W        W19502   7.806  14.914   2.931 -0.1387 -0.1873 -0.0133
16283W        W19503  14.718  15.198   5.045 -0.0521 -0.3372 -0.0990
16284W        W19504   6.452   8.554   7.023  0.3554 -0.1513 -0.1872
16285W        W19505   3.631  11.918   0.625 -0.0032  0.0059  0.0079
16286W        W19506   5.962  13.768  17.732  0.0345 -0.0183 -0.1087
16287W        W19507   0.168   1.029   6.307  0.0144  0.0533 -0.1485
16288W        W19508   5.685  16.207   3.553  0.1409  0.3317  0.0966
16289W        W19509   7.921  12.321   2.232 -0.1008  0.0381 -0.0956
16290W        W19510   1.926  15.089   9.529  0.0579 -0.3792 -0.0171
16291W        W19511  12.717  11.458   8.859  0.1135  0.0346 -0.0064
16292W        W19512   7.602   8.098   6.070  0.0935 -0.0417  0.2696
16293W        W19513  15.840  10.970   5.366 -0.0775 -0.0911 -0.0474
16294W        W19514   7.620   8.041   2.950  0.0418 -0.1474  0.2436
16295W        W19515   2.878  16.744  17.556 -0.1377 -0.0470  0.1933
16296W        W19516   6.674  15.864   5.844 -0.1972 -0.0521 -0.1426
16297W        W19517  11.958  15.073   6.842  0.2735  0.2856 -0.0035
16298W        W19518  11.395  11.644   4.460 -0.0240  0.0082  0.1008
16299W        W19519   5.583   7.119  10.419  0.3317 -0.0937  0.0187
16300W        W19520   3.426   9.821   0.340 -0.1072 -0.2278  0.2152
16301W        W19521   8.422  15.554   1.185  0.0573 -0.1003 -0.3027
16302W        W19522   9.844  11.049   4.912  0.2402  0.0701  0.1267
16303W        W19523   8.477  15.352   4.495  0.0462 -0.0574  0.1121
16304W        W19524   9.438   0.085   2.875  0.0717  0.4047 -0.2323
16305W        W19525   9.604   1.399   8.849 -0.1349 -0.2285 -0.0414
16306W        W19526   8.597   7.050   6.619 -0.1192 -0.1559  0.2334
16307W        W19527   6.936  11.181   5.722 -0.2312 -0.0318  0.0934
16308W        W19528  12.282   8.754   3.956  0.0085 -0.0726 -0.1544
16309W        W19529   5.450   9.898  18.058 -0.1586 -0.0332 -0.0831
16310W        W19530   2.862  11.806  11.741  0.0370 -0.6563  0.0701
16311W        W19531   7.370  11.404   5.791  0.0444  0.0354 -0.5098
16312W        W19532   5.677   8.610   8.444 -0.0200 -0.2947 -0.1255
16313W        W19533   4.396  15.087   1.238  0.0223  0.2001  0.3488
16314W        W19534  10.053  11.361   6.693  0.1637  0.0215  0.2557
16315W        W19535   5.140  10.044   4.223 -0.0611 -0.1171  0.0131
16316W        W19536   3.046  12.762   3.342  0.2527  0.0468  0.1396
16317W        W19537  17.106   5.650   1.720 -0.2091 -0.0012  0.1150
16318W        W19538   2.263   8.834   6.844  0.2375  0.0117 -0.0138
16319W        W19539   5.825  17.310   6.889  0.3086 -0.1556 -0.4178
16320W        W19540   7.879  11.249   3.049 -0.0297  0.3140  0.3857
16321W        W19541  17.579   1.849  12.597  0.0183  0.0774  0.2084
16322W        W19542  15.602  14.500   9.576 -0.0551 -0.0314  0.0715
16323W        W19543   2.574   2.765   4.967  0.0456  0.1678  0.1542
16324W        W19544   8.498   0.127   7.459  0.0068  0.0944 -0.4049
16325W        W19545   3.924   6.092   2.006  0.1376  0.1776 -0.2530
16326W        W19546   5.866   0.675   3.284  0.0775 -0.2382 -0.1021
16327W        W19547   3.105  15.606   1.818 -0.0079  0.0622  0.1379
16328W        W19548   6.469   9.543   3.451  0.0697  0.0708 -0.0585
16329W        W19549   6.493   8.094   4.405 -0.2807  0.2866 -0.0921
16330W        W19550   3.293  12.146   7.079  0.1479  0.1888  0.2666
16331W        W19551   6.487  12.808   8.453  0.0317 -0.0447  0.1735
16332W        W19552  10.426  12.188   7.762 -0.0917  0.2264 -0.1873
16333W        W19553   7.818   5.086   4.398  0.1041 -0.1639  0.1967
16334W        W19554  12.152   0.243  12.101  0.1107 -0.2141 -0.2577
16335W        W19555   3.956   4.001   3.278  0.0000 -0.0939  0.2592
16336W        W19556   3.837  10.017   8.928 -0.0471 -0.1186 -0.0353
16337W        W19557   8.335  15.703   8.642  0.2608  0.0024  0.1632
16338W        W19558   3.691   4.974   7.296  0.1233 -0.6224  0.3099
16339W        W19559   3.614   9.824  10.739  0.1228  0.0925  0.0358
16340W        W19560  17.729  18.239  14.272  0.0055 -0.0915 -0.1541
16341W        W19561  17.643   8.030   6.215  0.2402 -0.0298 -0.1080
16342W        W19562  16.668   6.188  12.629 -0.0750  0.0664  0.0328
16343W        W19563   8.777   2.564  17.999  0.1807  0.4443  0.2059
16344W        W19564   8.007  11.053   1.097 -0.0784 -0.3542  0.2617
16345W        W19565   1.984   9.474   5.045 -0.0945 -0.1100  0.2175
16346W        W19566   3.790   7.695   9.868  0.0689  0.1275  0.0037
16347W        W19567   4.740   9.533  17.858  0.2202  0.2456 -0.1218
16348W        W19568   8.116   8.956   3.247  0.1285 -0.0805  0.1788
16349W        W19569  11.353  10.019  10.105  0.1916  0.0949  0.1345
16350W        W19570   4.653   8.079   2.201  0.2231  0.1582 -0.0905
16351W        W19571   1.919   2.404   3.360 -0.0090  0.0682  0.0785
16352W        W19572   3.491  10.922  18.075 -0.1716 -0.3971 -0.0420
16353W        W19573   7.741  12.500   8.311  0.0973 -0.1971  0.4115
16354W        W19574   5.077   5.251   1.618  0.1075 -0.0672 -0.0837
16355W        W19575   8.971  16.197   4.675  0.1615 -0.0288 -0.0675
16356W        W19576   5.362  15.188  15.454  0.2284 -0.0619 -0.0892
16357W        W19577   8.201   8.307  10.577  0.0589 -0.0537 -0.1251
16358W        W19578   8.685   9.563   9.136 -0.0151 -0.2861  0.3597
16359W        W19579   1.265   4.795   2.719 -0.1687 -0.0035 -0.0867
16360W        W19580   9.258   8.249   7.843 -0.1505  0.1261  0.2466
16361W        W19581  13.053  11.860   4.507 -0.0952 -0.1118 -0.1766
16362W        W19582   7.041  12.335   4.280 -0.0222  0.1245  0.1080
16363W        W19583   1.488  16.004   7.106 -0.0394  0.1899 -0.1710
16364W        W19584   9.063   9.813  14.933  0.0043 -0.1295 -0.0371
16365W        W19585   5.873  12.000  10.894 -0.2796  0.1530  0.2105
16366W        W19586   5.366  11.553  15.110  0.2440 -0.0074  0.1650
16367W        W19587   4.234  14.411   7.646  0.0557 -0.1514  0.1067
16368W        W19588   4.315  12.132   8.460 -0.0046 -0.1148 -0.2647
16369W        W19589   9.533   8.441  17.859 -0.1660 -0.0357  0.0317
16370W        W19590  12.985   7.675   0.104  0.0462 -0.0784 -0.2793
16371W        W19591  16.721   9.732   4.360  0.0394 -0.2290 -0.0437
16372W        W19592   5.779   9.561   2.097  0.0406  0.1193  0.0469
16373W        W19593   4.644  10.173   3.626 -0.2891 -0.4472  0.2002
16374W        W19594   7.227  13.469  17.151 -0.2055 -0.0944  0.1898
16375W        W19595   0.162  17.025  11.587 -0.0402  0.1565 -0.1884
16376W        W19596   6.590  10.423   8.341  0.2026  0.0077  0.2688
16377W        W19597   3.254  17.055  12.932 -0.2640  0.0021 -0.2465
16378W        W19598   2.515  12.062   3.653 -0.0931  0.1212  0.1668
16379W        W19599   2.285   1.964   7.146 -0.0233  0.1783  0.1818
16380W        W19600   8.985  12.998  10.556 -0.0946  0.0778  0.1281
16381W        W19601   9.089  12.353   6.603  0.2907 -0.0975 -0.2701
16382W        W19602   7.282  14.442   3.949  0.1181 -0.0095 -0.0699
16383W        W19603  10.146  13.646   4.345  0.3037  0.1817  0.1822
16384W        W19604  16.831  10.179   5.379 -0.0788 -0.1610 -0.1068
16385W        W19605   2.015  11.743  11.276 -0.0936 -0.1844  0.0133
16386W        W19606   4.102  15.351  15.862  0.0852 -0.4478  0.0637
16387W        W19607   1.958  11.344  13.787 -0.3436  0.0249 -0.1371
16388W        W19608   6.284   8.372   7.452  0.1836 -0.2650 -0.1018
16389W        W19609   9.292   6.226   9.609  0.1306 -0.1711  0.1162
16390W        W19610   6.602  14.747   2.149  0.1582 -0.2742 -0.1546
16391W        W19611   9.952   8.877   5.068  0.2202  0.0843  0.0740
16392W        W19612   7.415  13.418   1.564  0.0844  0.0832 -0.1950
16393W        W19613   7.081   0.291   5.248 -0.0538 -0.0853 -0.1862
16394W        W19614   5.327  11.685   9.508  0.1204  0.2358 -0.3379
16395W        W19615  10.730   9.518   0.087 -0.0629 -0.0925  0.0781
16396W        W19616   4.823   9.755   6.779  0.2255 -0.0339  0.3320
16397W        W19617   9.464   7.989   1.389  0.2910 -0.0420 -0.2563
16398W        W19618   3.217   6.513  16.348  0.1665  0.1127  0.0099
16399W        W19619   4.049  16.740  17.372 -0.2154  0.1837 -0.0964
16400W        W19620   5.845  13.243   6.693 -0.1776  0.3567 -0.1436
16401W        W19621   5.890   6.543   0.319  0.0843  0.2913  0.0323
16402W        W19622   4.695  10.208  15.075 -0.1042  0.2812  0.2745
16403W        W19623   9.203  17.055   3.457 -0.2958 -0.2005  0.2153
16404W        W19624   4.551   7.616   2.948  0.1384 -0.4669 -0.1200
16405W        W19625   7.755   7.845   5.391 -0.0509  0.2613 -0.1316
16406W        W19626   7.274  17.014   8.153 -0.0027 -0.2890  0.1172
16407W        W19627  17.617  13.610   4.144  0.0750 -0.0072 -0.0488
16408W        W19628   9.020  15.186   5.373  0.2170 -0.1623 -0.1875
16409W        W19629   8.220   9.853   6.714  0.0973 -0.0568  0.3722
16410W        W19630   8.061   8.082   5.976 -0.1602  0.0951 -0.0425
16411W        W19631  10.849   7.085   8.390  0.1196 -0.0277 -0.4310
16412W        W19632  18.201   8.772   5.900  0.0639 -0.1511  0.0398
16413W        W19633   7.089  11.864  17.061 -0.0877  0.3554 -0.5459
16414W        W19634  10.577  10.291   1.853 -0.0753 -0.0446 -0.0155
16415W        W19635   3.862  16.671   2.185  0.1427  0.1774 -0.1565
16416W        W19636   1.105   0.008  13.671 -0.1284  0.0352 -0.1501
16417W        W19637   0.220   8.694  12.387 -0.5275 -0.1418 -0.0304
16418W        W19638   7.861   5.948   7.082  0.0081  0.2146  0.0213
16419W        W19639   4.643   0.083   0.581  0.2112 -0.1685 -0.1680
16420W        W19640   4.186   2.792  10.751 -0.0048  0.3158  0.0247
16421W        W19641   7.239  12.909   3.767 -0.4374  0.2439 -0.0743
16422W        W19642  15.903  17.202   8.477  0.1433  0.0654  0.0762
16423W        W19643   9.496  16.475  17.349 -0.0551 -0.0196  0.2148
16424W        W19644   5.854   9.374  11.571 -0.0477  0.5471 -0.2227
16425W        W19645   4.679   9.276   3.833 -0.1068  0.1819  0.2272
16426W        W19646   5.192  10.764   5.820 -0.1309  0.2144  0.2488
16427W        W19647   3.539   1.644   4.098 -0.0549  0.0103 -0.2468
16428W        W19648   2.408   8.251   2.233 -0.2570 -0.4010  0.2803
16429W        W19649   7.721   3.764  10.263 -0.1990  0.0976 -0.1488
16430W        W19650   8.459  13.901   5.322 -0.0194 -0.1762  0.0108
16431W        W19651  14.851  14.224   7.386 -0.1023 -0.0279 -0.3678
16432W        W19652  15.089  12.269   8.571  0.0921  0.0115  0.1364
16433W        W19653   4.129  13.880  16.335 -0.0036 -0.1202  0.2354
16434W        W19654   7.220  13.632   2.694  0.0365  0.0546  0.2414
16435W        W19655   0.346  12.797   7.303  0.2913  0.0883  0.0669
16436W        W19656   2.177   8.579  10.888 -0.2496 -0.0100 -0.1830
16437W        W19657  10.172   8.372   8.475 -0.0024 -0.2369  0.0174
16438W        W19658   0.366   9.959   6.923  0.1107  0.3051 -0.0719
16439W        W19659   4.086  15.412  11.425 -0.1985  0.0970  0.3211
16440W        W19660  14.544  12.883   0.452 -0.0129  0.1020  0.0747
16441W        W19661   2.697   4.347   0.715 -0.2453  0.1794  0.4161
16442W        W19662   2.211   8.694   7.713  0.1621  0.1148  0.1638
16443W        W19663   7.898  17.368   7.508  0.2447 -0.1635  0.0433
16444W        W19664   0.810  15.292   3.957  0.0647  0.1480  0.1609
16445W        W19665   9.848   6.154   7.227  0.1693  0.1550 -0.2311
16446W        W19666   4.095   5.852   4.524 -0.0575  0.1276  0.2680
16447W        W19667   9.918  13.310   2.869 -0.0184 -0.3645 -0.2678
16448W        W19668   5.137  15.677   2.956 -0.0786 -0.2625 -0.0865
16449W        W19669  11.194  13.850  14.173  0.1338 -0.0747  0.2604
16450W        W19670  18.096  14.063   1.173 -0.3187 -0.0533  0.0280
16451W        W19671   2.522  16.107   2.555 -0.0852  0.1489  0.2868
16452W        W19672   6.246  11.206   0.941 -0.0456 -0.0810  0.1969
16453W        W19673   5.809  13.088   9.160  0.0225 -0.1011  0.1557
16454W        W19674  11.160   1.884   6.698  0.1787  0.3302 -0.1251
16455W        W19675   7.337   5.589   3.037  0.2570  0.3256  0.2494
16456W        W19676  15.060  11.727   5.273  0.1665 -0.3732  0.0851
16457W        W19677   7.483  10.043   2.792  0.0920  0.0514 -0.0427
16458W        W19678   5.995  11.921   7.114 -0.0505  0.2608 -0.0706
16459W        W19679   8.684  14.202   7.284 -0.3438 -0.3873 -0.0690
16460W        W19680   6.053  11.840   8.290  0.0823  0.0181 -0.4460
16461W        W19681  14.075  10.096   5.463  0.0551 -0.1169 -0.4412
16462W        W19682   9.423  15.400   5.209  0.2291  0.2871  0.1026
16463W        W19683   3.332  17.913   3.009 -0.1191 -0.2876  0.2678
16464W        W19684   6.513   3.848  16.687 -0.1275  0.1722 -0.0309
16465W        W19685   5.343  11.395   4.927  0.0216  0.2715  0.0406
16466W        W19686   5.400   7.483   1.703  0.0722 -0.2202 -0.3870
16467W        W19687   3.225   9.395   7.747 -0.1372 -0.5052  0.3970
16468W        W19688   0.825   9.629   7.652  0.1151 -0.0384  0.1781
16469W        W19689   8.861   9.387   5.714 -0.3269 -0.3139 -0.1163
16470W        W19690   4.334  14.908   8.116 -0.1219  0.2067 -0.1991
16471W        W19691   9.055   6.671  11.373 -0.2298 -0.0147 -0.0087
16472W        W19692   6.212   6.284   7.731  0.0346 -0.2687  0.3205
16473W        W19693   5.924  14.676   6.730 -0.1536  0.0898 -0.0175
16474W        W19694   2.841  10.676   5.164 -0.0097  0.3475  0.0394
16475W        W19695   9.803  10.975   9.192 -0.1101  0.0875  0.3059
16476W        W19696   3.888  17.029   8.974  0.2453 -0.2986 -0.2101
16477W        W19697   2.975   2.255   3.317  0.1530 -0.1187 -0.1658
16478W        W19698   6.938  12.612   0.043  0.2749 -0.1342  0.1945
16479W        W19699   7.079  16.218   7.420  0.0648 -0.1538  0.3844
16480W        W19700   5.336  16.515   8.013 -0.0193  0.2086 -0.2416
16481W        W19701   9.332   6.127   5.300 -0.2182 -0.1187 -0.3616
16482W        W19702  10.179   9.958  15.817  0.3835  0.1875 -0.0662
16483W        W19703   6.234   1.732   6.661 -0.3289 -0.1316  0.3993
16484W        W19704   5.368  15.275  11.537 -0.0260  0.2989 -0.2667
16485W        W19705   1.073  12.641   5.682 -0.0898  0.2608 -0.3344
16486W        W19706   8.842   9.158  18.031 -0.1137 -0.0193  0.0444
16487W        W19707   9.145  12.630   2.015 -0.0196  0.1474 -0.1000
16488W        W19708   2.845  15.640  15.163  0.1297 -0.1776  0.1769
16489W        W19709   3.432   7.378  15.734  0.0351  0.2516  0.2258
16490W        W19710   4.849   5.639   3.888  0.0549  0.1191  0.1910
16491W        W19711   4.621  10.161   2.331  0.0431 -0.0990  0.1094
16492W        W19712   6.272  17.408  15.547 -0.2975  0.0646  0.1416
16493W        W19713   3.846  13.558   1.434 -0.2038 -0.1058  0.0778
16494W        W19714  10.849  11.391   9.031 -0.3380 -0.1309  0.1529
16495W        W19715  10.187   3.717   1.920 -0.0155  0.4178 -0.0923
16496W        W19716   3.221  11.372  12.851 -0.1044  0.1544  0.1215
16497W        W19717  11.313  11.152   4.647  0.3065 -0.0621  0.0316
16498W        W19718   2.436  16.347   5.147  0.0258 -0.0462  0.1473
16499W        W19719   4.820  12.850  18.032 -0.0528  0.0858  0.1545
16500W        W19720   4.419   6.913  16.776 -0.1640  0.1157  0.2413
16501W        W19721   1.966  16.644   3.410 -0.0460 -0.0803 -0.2703
16502W        W19722  18.233  14.542   3.334  0.4839  0.0411  0.1711
16503W        W19723  16.396  10.991   5.427 -0.0292 -0.3358  0.0396
16504W        W19724  10.380   9.279   9.488  0.0067  0.2189 -0.1886
16505W        W19725  17.483  11.195   1.414  0.1576 -0.1377  0.4490
16506W        W19726   9.734  14.249   2.506 -0.1390 -0.1788  0.2446
16507W        W19727   8.063   1.734   5.188 -0.0227 -0.2496  0.0201
16508W        W19728   8.997   7.928   5.393  0.0597 -0.1273  0.2788
16509W        W19729   9.256   4.267   6.844  0.2334 -0.1894 -0.1693
16510W        W19730  18.189  11.944   6.860  0.3571  0.0973 -0.0344
16511W        W19731   3.563   8.166  12.568  0.0031 -0.1774 -0.1348
16512W        W19732   4.449  13.313  10.955 -0.0927 -0.1258 -0.0801
16513W        W19733   4.925  13.281   6.457 -0.0881 -0.3967 -0.0630
16514W        W19734   6.676   0.554   8.733 -0.0235  0.1727  0.1699
16515W        W19735   3.692  14.007  11.184  0.0307 -0.2136 -0.4270
16516W        W19736   6.213  14.116   0.696  0.3400 -0.2004  0.0526
16517W        W19737  17.550   9.968   5.762  0.2127 -0.3265  0.1162
16518W        W19738   7.133  14.864   9.824  0.0695  0.0979 -0.2581
16519W        W19739   7.173   0.456   7.220 -0.0188 -0.4478 -0.0363
16520W        W19740   8.928  11.590   9.561 -0.0322  0.0512  0.1202
16521W        W19741   6.830   6.944   1.718  0.2423  0.0367 -0.0355
16522W        W19742   5.649  12.228  14.466  0.0526  0.3725 -0.4511
16523W        W19743   5.680  10.649   5.546 -0.1371 -0.0095  0.0668
16524W        W19744   8.452  14.189   1.208 -0.0922 -0.3145  0.1451
16525W        W19745   2.564  13.369   2.867 -0.0005  0.0994 -0.3857
16526W        W19746   6.342  11.118  16.389  0.1249 -0.0104 -0.0840
16527W        W19747   7.885  11.833   4.644  0.5362 -0.0182 -0.1272
16528W        W19748   2.389  10.199   5.447  0.2095  0.1605 -0.0428
16529W        W19749   8.945  12.517  16.579  0.1674 -0.4893  0.3773
16530W        W19750   9.700  11.992   6.658 -0.0572 -0.0099  0.3413
16531W        W19751   5.979  12.062   1.705 -0.0127  0.1332  0.0673
16532W        W19752  14.900  11.734  11.598 -0.0517  0.3588 -0.0815
16533W        W19753   0.378  13.574   3.957  0.0938 -0.0531  0.2479
16534W        W19754   7.558  13.514  18.098  0.1866  0.0011  0.0873
16535W        W19755   5.931   7.758  11.826  0.0869  0.1192 -0.0479
16536W        W19756   7.867   8.395   7.861 -0.2595 -0.2868  0.1070
16537W        W19757  15.026   2.751   4.800 -0.1784 -0.0913 -0.0343
16538W        W19758  16.009   1.128   3.452  0.5019  0.1527 -0.0564
16539W        W19759  10.017  18.203   3.894  0.2419 -0.2779 -0.1971
16540W        W19760   4.165   9.834   8.326  0.0513  0.0658  0.0224
16541W        W19761   0.051   9.911   8.963  0.1065 -0.0558 -0.1386
16542W        W19762   2.796  10.468   4.094 -0.1644  0.1867  0.4135
16543W        W19763   8.171  14.691   8.210  0.0171 -0.1921  0.2510
16544W        W19764   7.154  16.914   5.264 -0.2825 -0.1102 -0.0463
16545W        W19765   3.822  13.011  17.855 -0.2779 -0.0943 -0.1376
16546W        W19766  15.360   1.386   7.406 -0.2161  0.1183  0.3882
16547W        W19767   7.620   6.993   7.483  0.3383  0.1176  0.3239
16548W        W19768   7.860   1.666   8.225  0.1734 -0.3491  0.0937
16549W        W19769   8.801  11.067  12.318 -0.2174  0.1600  0.0303
16550W        W19770   2.136  15.933   6.208  0.1721  0.1809 -0.1158
16551W        W19771   9.693   9.045  10.377  0.0905  0.0075  0.5548
16552W        W19772  12.282   7.563   8.112  0.0295 -0.5089  0.0338
16553W        W19773   5.481  12.421   9.880 -0.0591  0.0762  0.1065
16554W        W19774   3.705   5.272   4.807 -0.0071  0.0850  0.0681
16555W        W19775  16.282  14.767  13.848 -0.0082 -0.2222  0.4214
16556W        W19776   9.147   7.025  12.641 -0.1519  0.0052  0.2595
16557W        W19777   1.716   2.336   6.348  0.1762  0.2768  0.1037
16558W        W19778   7.357   7.786   2.561  0.3768 -0.2921 -0.1562
16559W        W19779   6.706   8.842   9.805  0.0634  0.1038 -0.3081
16560W        W19780  11.268   6.853   7.268  0.0681  0.1023  0.1768
16561W        W19781  17.837  16.648   4.710 -0.0729 -0.0477 -0.1160
16562W        W19782   2.312  12.045   4.905  0.2948  0.3076 -0.0405
16563W        W19783   4.970  16.273   1.523  0.0883  0.1063  0.1874
16564W        W19784   6.369   9.750   4.703 -0.2529 -0.3696 -0.1101
16565W        W19785   7.232   0.988  11.205  0.1393 -0.0136 -0.0255
16566W        W19786   3.420   0.140   2.930 -0.0083  0.1020 -0.1503
16567W        W19787  13.841  12.790  12.717 -0.0077  0.3975 -0.1008
16568W        W19788  17.588  15.982   8.732  0.1006  0.1259 -0.0066
16569W        W19789  17.344  11.645  12.513 -0.1127  0.0068  0.1286
16570W        W19790   1.133  12.642   6.892  0.0983  0.0711  0.1882
16571W        W19791   3.661  12.895  14.194  0.0548 -0.1170 -0.0583
16572W        W19792   8.323   0.312   6.614  0.2380  0.2176 -0.2712
16573W        W19793  10.510  12.316   4.219  0.0078  0.0459  0.4683
16574W        W19794  17.807   0.694  13.989 -0.0782 -0.0030  0.2263
16575W        W19795   2.359   4.771   8.727 -0.4086  0.2085  0.1028
16576W        W19796   9.945   9.476  11.301  0.0342 -0.0576 -0.1728
16577W        W19797   3.805   9.037   9.196 -0.4518 -0.1638  0.1013
16578W        W19798  16.061   0.001  12.618 -0.1574 -0.0692  0.0830
16579W        W19799   6.532   9.467   1.100  0.1195 -0.1395  0.1866
16580W        W19800   3.260  11.299   4.710 -0.1337  0.0648  0.0454
16581W        W19801   1.521  12.888   9.209  0.4808 -0.0362 -0.1812
16582W        W19802   4.444   3.591  15.248  0.1392 -0.0060  0.1626
16583W        W19803  16.523   7.996  13.846 -0.2125 -0.0515 -0.0150
16584W        W19804  12.149   8.086   6.802 -0.0694  0.0915  0.3285
16585W        W19805   8.856  14.149   6.666  0.2601  0.1191  0.0392
16586W        W19806  14.544   6.223   3.421 -0.1206  0.0538 -0.0076
16587W        W19807  15.204  13.515   6.951 -0.0184  0.0424 -0.1624
16588W        W19808   5.883  17.295  17.717  0.3527 -0.0282 -0.0000
16589W        W19809   7.353  13.632   4.839  0.1693  0.0799  0.1994
16590W        W19810   1.073  15.293   7.321 -0.4213  0.4689 -0.1335
16591W        W19811   9.328  13.293   9.728 -0.1756  0.0228  0.1995
16592W        W19812   3.948  14.712   7.264 -0.2244 -0.1445  0.2746
16593W        W19813   3.189   8.861   5.332 -0.0397 -0.0384  0.1196
16594W        W19814   4.491  14.979   6.957  0.1200 -0.0208  0.1260
16595W        W19815   7.517  10.803   9.907 -0.0132 -0.2281 -0.0059
16596W        W19816   0.107  16.480   9.815  0.1197  0.0690 -0.2370
16597W        W19817   4.329  12.278  17.350 -0.1502  0.5100  0.0300
16598W        W19818   3.690  17.227   6.394  0.2027  0.1487 -0.1000
16599W        W19819   0.627   6.129  13.414 -0.1119 -0.2430  0.1457
16600W        W19820   5.008  11.243   9.631  0.0676 -0.1461 -0.2649
16601W        W19821   3.291  13.191  11.070  0.0588  0.1327  0.2280
16602W        W19822   5.965  11.837  16.298  0.2753 -0.0861 -0.0143
16603W        W19823   2.753  13.941   8.877 -0.2459 -0.0846 -0.3538
16604W        W19824   8.467  11.405   8.157 -0.3489  0.1306  0.0076
16605W        W19825   5.764  17.944   8.695  0.0263  0.1134 -0.0666
16606W        W19826   9.278   7.456  12.998 -0.0912 -0.0674 -0.0078
16607W        W19827   6.424  14.577  18.140  0.0823 -0.1509 -0.0688
16608W        W19828   9.194  14.334   9.788 -0.3700 -0.3480 -0.0904
16609W        W19829   8.153  16.286   6.147 -0.1404 -0.1127  0.1979
16610W        W19830   1.118   9.727  13.046  0.1852 -0.2642  0.2289
16611W        W19831  11.203  17.714   4.899  0.0705 -0.0225 -0.0781
16612W        W19832   2.630   7.164   7.188 -0.3065 -0.0542 -0.1531
16613W        W19833   7.889   0.231   6.084 -0.1138  0.1678 -0.0626
16614W        W19834   1.755  10.732   9.555 -0.0324 -0.1557  0.3279
16615W        W19835   0.582   9.599  15.232 -0.0868  0.1010 -0.0370
16616W        W19836   5.729  10.992   5.126  0.1127  0.1504 -0.3277
16617W        W19837  16.268   9.886   6.274 -0.0989  0.2428  0.1440
16618W        W19838   4.204  12.616   8.440 -0.0904 -0.2819  0.0770
16619W        W19839   9.715   4.299   6.739 -0.0344 -0.0125  0.0175
16620W        W19840   7.326  12.968   9.110  0.0425  0.2245  0.1530
16621W        W19841   8.962  12.611  12.588  0.0752  0.1455  0.2815
16622W        W19842   2.677   6.892   7.703 -0.0607  0.1786 -0.0038
16623W        W19843   4.014   3.752  10.886 -0.0030  0.1564 -0.2919
16624W        W19844   8.971  16.358  12.746  0.2018  0.0236  0.2187
16625W        W19845   9.617  14.520   6.991  0.0400 -0.0880 -0.0745
16626W        W19846   9.335  13.484   3.754  0.1199 -0.1124 -0.2082
16627W        W19847  16.065  13.275   7.083  0.1838 -0.2079  0.2052
16628W        W19848   5.476  16.800  15.059 -0.0361  0.1282 -0.2532
16629W        W19849   8.533  13.515   6.574  0.0729  0.2363  0.2303
16630W        W19850   5.348  17.177  14.379  0.3997  0.1956 -0.1702
16631W        W19851   7.137   8.358   2.706 -0.2443 -0.1079 -0.1313
16632W        W19852   8.737  12.982   5.714 -0.0346  0.1484  0.0325
16633W        W19853  11.785   8.269   4.788 -0.1164 -0.1279 -0.2384
16634W        W19854   8.186  12.551   9.172 -0.0660 -0.1065  0.1699
16635W        W19855  16.747  10.728   5.144 -0.1046  0.0920 -0.1054
16636W        W19856   5.579  11.273   6.917  0.2862  0.0175 -0.2485
16637W        W19857   9.394  13.334  11.519  0.4362  0.1826 -0.2300
16638W        W19858   6.477  11.565  14.352  0.1379  0.2525 -0.3772
16639W        W19859   1.319   3.771   5.947 -0.2231  0.4064 -0.1861
16640W        W19860   3.572  10.853   8.861  0.0132  0.1497  0.1617
16641W        W19861   3.680   4.652  10.707  0.2322 -0.0891 -0.0525
16642W        W19862   6.197   9.975  10.857 -0.2600 -0.1329  0.2468
16643W        W19863   6.048   6.705  10.487  0.1208 -0.1018 -0.0677
16644W        W19864   7.206  12.808   5.185 -0.5440  0.3542  0.1471
16645W        W19865  10.477  12.620   8.692  0.2562 -0.4314  0.1391
16646W        W19866  12.859  18.193  10.388  0.1325 -0.1762 -0.1197
16647W        W19867   9.531  12.929  18.206 -0.0367  0.0653  0.1588
16648W        W19868  11.357  17.003   8.115  0.1030 -0.3708 -0.0168
16649W        W19869   2.366   7.931   2.628 -0.0294 -0.2800 -0.0561
16650W        W19870  10.443   7.340   8.285 -0.1166  0.4170 -0.0840
16651W        W19871   8.778  16.545   5.549  0.1551  0.0159 -0.2533
16652W        W19872   4.057  11.150   3.275  0.0133  0.0766 -0.0537
16653W        W19873   5.600  12.789   9.455 -0.1371  0.0573 -0.0245
16654W        W19874   4.194   6.984  15.175 -0.3464 -0.0636 -0.0236
16655W        W19875   0.735  15.077   7.634  0.0477  0.0938  0.2278
16656W        W19876   2.595  17.015   9.187  0.0167 -0.2522  0.0625
16657W        W19877   4.607  12.752   8.951  0.0957  0.0855 -0.0820
16658W        W19878  11.992  13.409   8.090 -0.1226  0.0168 -0.2589
16659W        W19879   3.540   9.362  11.839  0.1506 -0.1388  0.3443
16660W        W19880   8.986   9.394   9.656 -0.0335 -0.0436  0.0739
16661W        W19881  10.003  11.780   7.876  0.0513 -0.1637  0.3261
16662W        W19882   8.462   7.807   4.814  0.1138 -0.3885  0.2030
16663W        W19883   5.488  15.304  14.948 -0.0818 -0.1750  0.0590
16664W        W19884   2.635  14.234  16.327  0.2672  0.0689  0.1922
16665W        W19885   5.801  10.170  11.831  0.3019  0.0195  0.0597
16666W        W19886   9.456  16.496  10.346 -0.1090 -0.2445  0.0293
16667W        W19887   4.387  10.491   4.530 -0.2358  0.0621 -0.0788
16668W        W19888   5.483   2.619   9.968  0.1805  0.1769  0.3218
16669W        W19889   5.653  14.741  13.857  0.3214  0.0425 -0.2547
16670W        W19890  10.595  13.134   5.324 -0.2234 -0.0293 -0.2130
16671W        W19891  11.059   9.972  11.929 -0.2446 -0.0625 -0.0652
16672W        W19892   5.469   6.193  11.107  0.0469 -0.1444 -0.4887
16673W        W19893   5.420   8.752  15.827 -0.0855 -0.1109  0.1468
16674W        W19894   3.874  11.258   8.629 -0.4539  0.1862  0.0517
16675W        W19895   1.869  12.457   8.041 -0.0252 -0.1889 -0.1286
16676W        W19896  10.064   5.065  10.240 -0.2099 -0.0799 -0.0126
16677W        W19897  18.233   3.014  17.161  0.1171  0.2403 -0.0137
16678W        W19898   2.192  14.188  10.773 -0.0623  0.0040  0.0710
16679W        W19899   7.636   1.398   5.361  0.0284  0.0986  0.0487
16680W        W19900   2.922   0.581  14.938 -0.2534  0.0390 -0.0398
16681W        W19901   7.645  13.847   8.224 -0.2903 -0.2957  0.0230
16682W        W19902   8.512   9.779  14.153  0.2657 -0.4363  0.0661
16683W        W19903   4.668   9.369  10.522 -0.1073 -0.0804  0.0355
16684W        W19904   5.604  14.913   8.959 -0.1802  0.0492  0.1242
16685W        W19905   2.051  13.456  12.657  0.1896 -0.1788  0.1230
16686W        W19906   8.754  17.080   3.313  0.0654 -0.1974  0.2057
16687W        W19907   4.304   6.545   8.278 -0.1552 -0.0762  0.1829
16688W        W19908   8.614  12.839   7.835 -0.1433  0.1330 -0.0256
16689W        W19909   4.957  16.201  14.146  0.1430 -0.1178  0.0863
16690W        W19910   8.435  15.908   3.200 -0.2022  0.1874  0.0758
16691W        W19911   3.345  16.734   4.535  0.0127 -0.0567 -0.2615
16692W        W19912  10.435   1.289  13.580  0.0418 -0.2115 -0.4628
16693W        W19913   2.555  12.993   3.817  0.0648  0.0513 -0.3919
16694W        W19914  14.299  13.288   8.946 -0.1019 -0.0949  0.0714
16695W        W19915   5.306  13.462  14.046  0.0545  0.0275 -0.1981
16696W        W19916   2.789  15.395  11.195  0.0340  0.1751 -0.0809
16697W        W19917   5.824   5.874  10.354 -0.1468 -0.1421 -0.0985
16698W        W19918   6.131   9.223  10.066  0.1518 -0.0784  0.2254
16699W        W19919   8.832  14.348   9.480 -0.4549  0.1495 -0.3216
16700W        W19920   5.159   0.454   4.682 -0.3765 -0.1695 -0.0811
16701W        W19921   1.770   5.859   4.361 -0.0597  0.4777  0.5163
16702W        W19922   0.989   3.923  12.261  0.0484  0.0061 -0.1879
16703W        W19923  15.901  11.853   8.947 -0.0109  0.1346  0.2753
16704W        W19924   6.425   3.775  11.649 -0.1403  0.0125 -0.1211
16705W        W19925   5.952   5.837   4.768 -0.0975  0.3136 -0.0192
16706W        W19926   7.274   2.808  11.831 -0.0193 -0.1898  0.0307
16707W        W19927   6.250  11.315  10.119 -0.1053  0.1811 -0.0618
16708W        W19928  12.078  14.647   5.329 -0.2062 -0.1280 -0.1071
16709W        W19929   6.080  14.674   6.271 -0.2665 -0.0274 -0.4387
16710W        W19930   7.526  14.713   6.690 -0.2796 -0.1005 -0.1321
16711W        W19931  11.531  11.656   1.028 -0.2514  0.1138  0.0997
16712W        W19932  14.698   7.728  15.137 -0.0892 -0.0374 -0.0460
16713W        W19933  10.048   5.352   7.802  0.0603  0.0207 -0.1525
16714W        W19934  13.596   1.144   5.519 -0.1039  0.3085  0.1266
16715W        W19935   9.658   9.841   7.707 -0.1114 -0.0707 -0.2665
16716W        W19936  14.830  15.717  16.747 -0.0176 -0.4243 -0.2116
16717W        W19937   2.279  15.125  13.530 -0.2135 -0.1933 -0.1767
16718W        W19938  10.414   9.845   9.831 -0.0726  0.0292 -0.1346
16719W        W19939   8.739  17.158   7.082 -0.0977  0.0503  0.1387
16720W        W19940   7.781  15.288   3.263 -0.1238  0.1617 -0.1309
16721W        W19941  10.955   9.740   8.433 -0.1626 -0.0305 -0.1306
16722W        W19942   8.727   1.965  10.551 -0.0921 -0.1582  0.1023
16723W        W19943   9.207   9.090  10.668  0.0030  0.2186  0.1431
16724W        W19944   0.200   4.149  10.068  0.2116 -0.1433  0.2306
16725W        W19945  12.441   2.543  11.062 -0.0396 -0.0309 -0.2493
16726W        W19946   5.039   3.565   6.493 -0.2056 -0.0701 -0.3489
16727W        W19947   4.985   8.301   7.450 -0.2588 -0.1212 -0.2721
16728W        W19948  17.199   8.811   6.635  0.2769  0.4328 -0.2822
16729W        W19949   4.224  14.853  11.346 -0.0179 -0.1082  0.0359
16730W        W19950   3.671   5.280  15.805 -0.2506 -0.0569 -0.0307
16731W        W19951   8.951  11.499   0.620 -0.2328 -0.2417  0.0497
16732W        W19952   9.032  10.623   9.757  0.1133 -0.1071  0.2154
16733W        W19953  11.580  15.095   9.814 -0.1782 -0.0838 -0.3296
16734W        W19954   8.625  11.548   8.749  0.1993  0.0069 -0.0041
16735W        W19955   8.361  14.764  10.191  0.0192 -0.2172  0.0562
16736W        W19956   4.051   9.107  13.791 -0.0007 -0.2787  0.1816
16737W        W19957   4.542  13.337   8.906  0.1469  0.1671 -0.0238
16738W        W19958   8.648   5.451   9.986 -0.0590 -0.1185 -0.1970
16739W        W19959   6.506  12.396  18.218  0.3844  0.1856  0.3574
16740W        W19960   4.928  16.445  15.678  0.0636 -0.0360 -0.0517
16741W        W19961   6.149  10.894  11.534 -0.0676  0.3410 -0.2421
16742W        W19962   8.853  11.714   6.013 -0.4454  0.1155 -0.0709
16743W        W19963   1.403  11.505   5.991 -0.0917 -0.0288 -0.1880
16744W        W19964   2.443  15.279   8.577 -0.2742 -0.4116 -0.0419
16745W        W19965   2.583  13.908   6.023  0.1711  0.1131 -0.1143
16746W        W19966  11.730  11.187   0.990  0.1213 -0.3084 -0.0485
16747W        W19967  12.328  11.486  11.737 -0.1343 -0.1340 -0.1739
16748W        W19968   7.337  13.137  12.588  0.0707  0.1071 -0.0473
16749W        W19969   1.707   6.172   8.770 -0.2202  0.1084  0.1168
16750W        W19970   3.780  18.213  10.015  0.0570  0.1132  0.2134
16751W        W19971  16.442  12.767  11.972 -0.1090 -0.0383  0.4775
16752W        W19972   9.386  13.183  10.287  0.0294  0.0119  0.0125
16753W        W19973   6.496  16.446   5.790 -0.4275  0.1279 -0.0481
16754W        W19974   1.802  16.631   7.586 -0.3627  0.1008 -0.0625
16755W        W19975  11.313  14.891  17.040  0.0910  0.0279 -0.1182
16756W        W19976   5.523  16.561  10.485 -0.0149  0.1918 -0.0086
16757W        W19977  17.827  12.937  10.000  0.1576  0.1493  0.0070
16758W        W19978   6.710   5.475  12.622 -0.0964 -0.1601  0.1169
16759W        W19979   0.547  11.423   8.979 -0.0634  0.0959  0.0363
16760W        W19980   0.989  14.271   8.653 -0.0808  0.2548 -0.1791
16761W        W19981   0.658   8.287  15.624  0.2917  0.0666 -0.0141
16762W        W19982   7.947  13.578  14.371  0.2639 -0.2805 -0.2590
16763W        W19983  15.676   9.825  13.461 -0.0368 -0.1752  0.1176
16764W        W19984   0.436   9.680   9.197  0.0905 -0.2414  0.0384
16765W        W19985   3.064   7.217   6.895  0.2139 -0.0386 -0.1677
16766W        W19986   2.817   8.763   8.907  0.0171  0.1824  0.2066
16767W        W19987  11.555  11.403   9.459  0.2251  0.0830 -0.1786
16768W        W19988   8.705  14.072   8.261 -0.1114 -0.5087 -0.0949
16769W        W19989   3.651   8.331   6.076  0.3257  0.0738 -0.1262
16770W        W19990  17.077  10.722   8.369  0.0163  0.0849 -0.1987
16771W        W19991   9.813  15.090  15.430  0.0162 -0.3734  0.0985
16772W        W19992   4.708   8.787   9.954  0.2242  0.1229  0.2991
16773W        W19993   4.919  11.764   4.123 -0.0557  0.0072  0.2615
16774W        W19994   3.802  14.620  13.585 -0.3325  0.0206 -0.2463
16775W        W19995   5.455   8.508   7.421  0.1356 -0.1719  0.0176
16776W        W19996   4.160  10.559  10.679  0.0194 -0.1733  0.1483
16777W        W19997   6.000  15.254   6.827 -0.2041 -0.0115  0.1793
16778W        W19998  11.515   1.108   5.825  0.3405 -0.0305 -0.0031
16779W        W19999  16.186  17.735   1.758 -0.0502  0.0815 -0.0151
16780W        W20000  11.750   1.311   7.633  0.1435 -0.0531  0.1328
16781W        W20001  17.912  12.307  14.001 -0.0137  0.0454  0.3251
16782W        W20002  10.254   6.698   2.708 -0.0204  0.0353  0.0997
16783W        W20003   4.278  14.152   6.279  0.0933  0.2397 -0.0081
16784W        W20004   4.380  10.414   9.571 -0.0889 -0.3097  0.0859
16785W        W20005   4.337  12.364   8.983 -0.3237 -0.0814 -0.0506
16786W        W20006   4.018  12.533   5.896 -0.1358  0.1477  0.0363
16787W        W20007   4.130  14.379  13.304  0.2869 -0.0400  0.0220
16788W        W20008   6.255  15.102   5.949 -0.0277  0.0560  0.0507
16789W        W20009   7.095   9.287  15.905 -0.1010 -0.0500  0.1878
16790W        W20010   0.902  14.101   9.957  0.0929 -0.0702 -0.1541
16791W        W20011   1.895   7.974  11.810 -0.3138  0.1948  0.0617
16792W        W20012   0.920  16.341  14.228 -0.0069 -0.0055 -0.2187
16793W        W20013   9.917  10.418  12.417 -0.2929  0.1297  0.1092
16794W        W20014   4.019  15.583   5.069  0.0119  0.0580  0.2067
16795W        W20015   9.486   8.955  14.325 -0.2946 -0.0482  0.0574
16796W        W20016   5.915   9.243   4.756  0.3484  0.0696  0.1140
16797W        W20017   7.941  13.548   9.989 -0.1974  0.0471 -0.3579
16798W        W20018   2.444  12.746   8.878 -0.0741 -0.5118  0.0455
16799W        W20019   5.163  12.742   7.208  0.0560 -0.0212 -0.2424
16800W        W20020   9.088  14.624  13.549  0.2034  0.2131 -0.2113
16801W        W20021   4.738   5.636  10.236 -0.2359  0.3175  0.1568
16802W        W20022   6.582   4.922   7.076 -0.2530  0.1328 -0.0856
16803W        W20023   7.986   6.308   2.609  0.0869  0.1765 -0.3102
16804W        W20024   3.481   1.158   6.038  0.0711 -0.4171 -0.1360
16805W        W20025   7.812   9.710  12.895 -0.0554 -0.0463  0.2028
16806W        W20026   2.881  14.938  18.212  0.0977  0.3867 -0.2798
16807W        W20027   6.389  11.428  17.221  0.0615  0.0802  0.0169
16808W        W20028   5.318   9.646   5.609  0.2571 -0.2385  0.0012
16809W        W20029   5.279   9.936   7.078  0.0862  0.0720  0.3489
16810W        W20030   9.837  13.488   9.614  0.2504 -0.1206  0.0626
16811W        W20031   3.903  15.830   8.123 -0.1329 -0.1486  0.0204
16812W        W20032   4.798   9.980   7.250 -0.0423 -0.1758 -0.1989
16813W        W20033  11.194  11.414   7.038  0.0479 -0.0476 -0.2191
16814W        W20034   2.732   3.749   9.766 -0.0457  0.0915 -0.0929
16815W        W20035  14.208  11.770   7.631 -0.1230 -0.0154  0.0379
16816W        W20036   3.294  11.067   5.179 -0.0194  0.1888  0.0775
16817W        W20037   4.755   5.097   7.352 -0.0758  0.0706 -0.1739
16818W        W20038  18.007  17.633   9.497  0.2107  0.1571  0.1101
16819W        W20039   1.354  14.988   7.587  0.0248 -0.1035 -0.1247
16820W        W20040  16.087  12.511   5.640 -0.0649 -0.3487  0.0188
16821W        W20041   1.669  13.962  15.096  0.1288 -0.0822  0.2481
16822W        W20042   4.180   1.432  11.313  0.1381  0.2248 -0.0341
16823W        W20043   8.099   8.855   7.460 -0.0151  0.1066 -0.2614
16824W        W20044   7.694   7.490   6.725  0.0033 -0.1828  0.0005
16825W        W20045   3.145  13.447   5.572 -0.2074 -0.2282 -0.1767
16826W        W20046   3.964  15.651   7.055 -0.0647 -0.0821 -0.1274
16827W        W20047  15.944  17.193  11.742 -0.1600  0.2037  0.3177
16828W        W20048  11.905  11.156   0.287  0.2155 -0.1246 -0.1183
16829W        W20049  15.757  11.652   3.040 -0.0740  0.3064 -0.1785
16830W        W20050  16.164  16.264   7.947 -0.1405  0.3593  0.1079
16831W        W20051   8.893  17.830   4.462 -0.0753 -0.4444  0.1441
16832W        W20052   7.714   5.528  12.218 -0.0139 -0.0954 -0.2663
16833W        W20053   3.819   9.180  14.686 -0.1093  0.1187 -0.1267
16834W        W20054   7.976   6.764  17.292 -0.0707  0.1121 -0.2500
16835W        W20055   1.167  16.015  16.693 -0.1850 -0.0340 -0.4786
16836W        W20056   8.381  11.783   9.668 -0.2617 -0.1561  0.0785
16837W        W20057   0.955  14.838   8.878  0.0140 -0.0321  0.0540
16838W        W20058  16.162   8.461  14.412  0.1024  0.1648 -0.0912
16839W        W20059   7.792   5.254   9.661 -0.1854 -0.0666 -0.2966
16840W        W20060   1.321  12.406   5.306  0.1449 -0.0680  0.1955
16841W        W20061   4.508   3.107  12.647 -0.2267 -0.0155  0.1210
16842W        W20062  16.255   2.777  13.640 -0.2493 -0.0273 -0.2233
16843W        W20063   9.401   8.710   5.811  0.2197 -0.0496  0.4522
16844W        W20064   4.327  16.526  10.545  0.0210 -0.3122 -0.2386
16845W        W20065  10.821  14.303   8.286  0.0711  0.4214 -0.0951
16846W        W20066   5.563  11.476  10.863 -0.2399 -0.1870  0.2019
16847W        W20067   1.657   6.861  10.958 -0.4299  0.3157  0.1025
16848W        W20068   4.839  15.201   9.699 -0.0565  0.1233 -0.2383
16849W        W20069   5.417  11.855  11.802  0.1456 -0.0395  0.1825
16850W        W20070   8.630  10.073  15.402  0.1081 -0.0869  0.0449
16851W        W20071   6.279  10.239   1.865  0.0333 -0.2287  0.2536
16852W        W20072   4.084  12.886   8.882 -0.1172  0.0715 -0.0303
16853W        W20073   3.433  17.042  10.804 -0.1432 -0.0985  0.0049
16854W        W20074   9.624   7.477   8.175 -0.1344  0.3747 -0.2490
16855W        W20075   2.806  14.435  15.895  0.3720  0.0381  0.0661
16856W        W20076  10.902  14.899   5.237  0.0008  0.1050 -0.0182
16857W        W20077  12.353  15.426   9.820 -0.0899  0.1386 -0.1604
16858W        W20078   1.145  11.992   2.209  0.1321  0.1010  0.0507
16859W        W20079  17.098  13.061  12.906  0.2682 -0.2230  0.1600
16860W        W20080  10.108  15.603   0.947 -0.0717 -0.1511 -0.0025
16861W        W20081   1.786   8.684   6.489 -0.0430 -0.0274 -0.2348
16862W        W20082   8.090   8.065  11.590  0.1195  0.0483  0.0567
16863W        W20083   0.347  18.264  10.913  0.0633  0.1539 -0.1535
16864W        W20084   5.332   6.569   7.249 -0.3361 -0.0671  0.3366
16865W        W20085  10.144  13.318   3.723 -0.0030 -0.2585 -0.0306
16866W        W20086   8.760   8.471  13.258  0.1330 -0.1261  0.0928
16867W        W20087   0.519  12.991  10.293  0.1068  0.0188 -0.2314
16868W        W20088  17.121  12.871  10.277 -0.4184  0.0898  0.0652
16869W        W20089   4.575   3.748   8.344  0.2737 -0.0498  0.0501
16870W        W20090   8.439  17.128   8.745 -0.1085  0.0571  0.1117
16871W        W20091   4.021   4.664   6.523 -0.0742 -0.4119  0.1010
16872W        W20092   7.377  13.634   7.866  0.0036  0.0559 -0.3067
16873W        W20093   4.809  13.861   2.454 -0.2984  0.1097  0.0327
16874W        W20094  10.924  11.016   9.397  0.0734 -0.0849 -0.0404
16875W        W20095  13.978  10.777  10.897 -0.1680 -0.3274  0.1326
16876W        W20096  10.806   9.401   9.740  0.1950  0.1042  0.1837
16877W        W20097   7.719   6.667  10.391  0.0288 -0.0568 -0.0613
16878W        W20098  11.914  10.432   4.063  0.2589 -0.2217 -0.0033
16879W        W20099   9.256  11.195   7.549  0.1462 -0.4201  0.0279
16880W        W20100  10.652  16.564   5.022  0.3343 -0.1088 -0.3502
16881W        W20101  16.121  17.920   9.200  0.0782 -0.0564  0.1499
16882W        W20102   3.013   8.192   8.212 -0.0749 -0.0982  0.1770
16883W        W20103   8.467   5.707  12.822  0.0219 -0.0811 -0.0201
16884W        W20104   5.887  16.728  13.381 -0.0359 -0.0453  0.0691
16885W        W20105   9.390  18.041  17.358 -0.0265  0.4320  0.2859
16886W        W20106   9.950  14.624  13.642 -0.1261 -0.1724 -0.3261
16887W        W20107   6.292   7.134   3.491 -0.1419  0.0288 -0.2745
16888W        W20108   8.399  15.948  13.441 -0.0898 -0.2164 -0.0508
16889W        W20109  11.675   9.646   4.959 -0.2116  0.3456 -0.2530
16890W        W20110   3.706  16.277  12.464 -0.3031 -0.1204 -0.0802
16891W        W20111  12.704   8.288   9.639 -0.0609  0.0259 -0.0481
16892W        W20112   8.457   6.521   3.289  0.1966  0.2977 -0.0774
16893W        W20113   3.070  14.144   3.963  0.0242  0.2131 -0.2303
16894W        W20114   6.425  14.855  14.469 -0.3348  0.0260 -0.1590
16895W        W20115   3.792   3.159  11.594  0.4193 -0.1236 -0.3752
16896W        W20116   9.874   7.510   5.009 -0.2045 -0.0275 -0.2855
16897W        W20117  10.206  10.473   8.151  0.1769 -0.1020  0.3431
16898W        W20118   5.321  11.336  11.692 -0.0909  0.0131 -0.1562
16899W        W20119   7.230  11.682   8.638  0.1832  0.1279 -0.3778
16900W        W20120  10.340  17.327  12.476  0.1854  0.1929 -0.1785
16901W        W20121   5.140  11.414   7.693  0.0138 -0.0803  0.0207
16902W        W20122   6.174  12.644  10.129  0.2143  0.0004  0.1289
16903W        W20123   3.984  16.010   6.307  0.0116 -0.0301  0.1491
16904W        W20124  11.124  10.677   7.849 -0.0396 -0.1218  0.0133
16905W        W20125   5.618  17.519  10.494  0.3292 -0.2323  0.1101
16906W        W20126   3.112  12.979   7.539  0.0999 -0.0415  0.0180
16907W        W20127  10.470  10.761  16.999 -0.0567  0.1075 -0.1524
16908W        W20128   5.583  13.959  13.340  0.0167 -0.1216  0.0587
16909W        W20129   5.288   6.896   8.946 -0.0372  0.0507 -0.0988
16910W        W20130   5.971  10.207   3.757 -0.1824  0.1058 -0.0379
16911W        W20131   0.343  13.455  12.010 -0.2521  0.0913 -0.0623
16912W        W20132   1.834  11.809  10.262  0.3840 -0.0378  0.0905
16913W        W20133  12.624  18.191   9.792  0.1200 -0.1900 -0.0609
16914W        W20134   8.169  12.887  10.404 -0.0175  0.2809 -0.0272
16915W        W20135   5.429  11.256   3.195 -0.0771  0.0647  0.1698
16916W        W20136   2.587  14.620  10.576  0.0499 -0.0341  0.2752
16917W        W20137   7.950  16.532   5.294  0.4414 -0.0727 -0.0820
16918W        W20138   4.971  12.428   4.925 -0.1018  0.1266  0.1230
16919W        W20139   0.489  16.009   7.414 -0.1265  0.1901 -0.0481
16920W        W20140   1.936  15.358  10.444 -0.1581 -0.3851 -0.2274
16921W        W20141   1.654  10.007  10.660  0.1403  0.0070 -0.0208
16922W        W20142   7.711   5.795   7.507 -0.1153 -0.0413  0.0446
16923W        W20143  12.460  11.005   9.242  0.0981 -0.0618  0.4178
16924W        W20144   9.187  11.546   7.229 -0.0506 -0.3012  0.1561
16925W        W20145   6.104   0.741   2.796  0.2006  0.1354 -0.0952
16926W        W20146   8.366   7.392  13.310  0.0226  0.0869  0.3350
16927W        W20147   6.576   1.075   8.275 -0.0938 -0.0485 -0.1582
16928W        W20148   2.273  14.274   4.406 -0.0656  0.5265 -0.4150
16929W        W20149   0.590  17.576   6.093 -0.0752 -0.0889 -0.2034
16930W        W20150   9.150  15.144   9.557 -0.1739 -0.1310  0.0917
16931W        W20151   9.983   8.068   7.492 -0.0518  0.2449  0.2523
16932W        W20152  15.823  11.086   7.124  0.1263  0.0652  0.1320
16933W        W20153   9.799  13.377   7.912  0.1164  0.0368  0.2601
16934W        W20154   2.786  17.999   8.706 -0.1333 -0.2512  0.0331
16935W        W20155   8.506   3.882  11.418 -0.0850  0.0495 -0.0338
16936W        W20156  16.541  14.584  10.121 -0.2948  0.3230  0.2575
16937W        W20157  17.569  11.689   9.551  0.5019 -0.0000 -0.1860
16938W        W20158   5.600  10.573  13.498  0.0279  0.2401 -0.3143
16939W        W20159  10.976  12.539  10.392  0.0969 -0.1220 -0.0300
16940W        W20160  18.022   0.224   3.496 -0.0522  0.2710  0.0818
16941W        W20161   7.585  18.248  14.386 -0.1061 -0.0449  0.1247
16942W        W20162   2.180   9.761  14.317  0.0205 -0.1851  0.0418
16943W        W20163   4.934  10.076  10.356  0.3445 -0.3897 -0.0169
16944W        W20164  16.878   0.531   8.926  0.1627  0.1516  0.0112
16945W        W20165   9.995  15.415   4.296 -0.2165 -0.1752 -0.2128
16946W        W20166   6.033  12.294  10.508  0.0011  0.0083  0.0853
16947W        W20167   6.921  13.560   9.839  0.0323  0.1905 -0.0647
16948W        W20168  13.871   8.996   9.962 -0.3255  0.0219  0.0138
16949W        W20169   2.022  14.990   8.625 -0.0268 -0.3084  0.1227
16950W        W20170  16.397  13.547   8.938 -0.2747  0.2689 -0.0701
16951W        W20171  12.621   0.172   7.848  0.0153 -0.0565 -0.2945
16952W        W20172   8.336   8.541   3.109  0.1054  0.0153  0.2321
16953W        W20173   8.806  16.559  15.524  0.1874  0.1682  0.0452
16954W        W20174  17.864  14.925  10.045 -0.0689 -0.0654  0.0020
16955W        W20175   3.680   0.974  13.031  0.1496  0.2547  0.0646
16956W        W20176   5.040   5.355  15.453 -0.1298 -0.2458 -0.2215
16957W        W20177   2.875  10.119  10.016  0.1448 -0.1677  0.2122
16958W        W20178  13.553  10.556  14.150  0.2234  0.0790 -0.0997
16959W        W20179   2.326  14.252   5.790  0.3249 -0.1910 -0.4734
16960W        W20180  11.511  17.540   9.811 -0.1609 -0.0434  0.3020
16961W        W20181   1.618  10.754  12.441  0.1473  0.1619  0.0922
16962W        W20182   3.521  10.559  12.613  0.0258 -0.0858  0.2619
16963W        W20183   5.794  13.322  10.846  0.2551 -0.0708 -0.2642
16964W        W20184  14.284  18.066  14.088 -0.0882 -0.1559  0.0873
16965W        W20185   4.294  16.568  11.638 -0.2849 -0.2369  0.0795
16966W        W20186  10.747   9.313   8.835 -0.1557  0.0313 -0.1485
16967W        W20187   6.866   2.143  13.895 -0.0685 -0.0197  0.1765
16968W        W20188   6.085  14.468  14.683 -0.2810 -0.0442  0.0444
16969W        W20189  10.049   9.791  10.808  0.2155 -0.2355 -0.1624
16970W        W20190   4.133  15.278   7.832  0.0629 -0.2252 -0.2639
16971W        W20191   6.556   7.996  17.871 -0.2035 -0.0010  0.1010
16972W        W20192  14.072   7.900  10.573 -0.1287  0.1042 -0.2997
16973W        W20193   4.419  10.566   0.057 -0.0045 -0.1334 -0.0138
16974W        W20194   1.180  15.573   7.742  0.4679 -0.1359 -0.0051
16975W        W20195   2.508  13.908  15.946 -0.0377  0.0569 -0.0735
16976W        W20196   4.737   5.273  13.240  0.0687  0.0920 -0.0998
16977W        W20197  16.940  16.327  10.429  0.0373  0.0083 -0.0658
16978W        W20198  10.183  17.401  14.804 -0.0079 -0.1746 -0.1420
16979W        W20199   7.340   2.743  14.967  0.0817 -0.0776 -0.1355
16980W        W20200  17.839   1.393  14.682  0.1844  0.1228 -0.1332
16981W        W20201   2.327   9.609   3.680 -0.2046  0.2960  0.0836
16982W        W20202   4.693  10.086  14.593 -0.1718 -0.0853  0.1655
16983W        W20203   5.253   8.157  10.543  0.2320 -0.0126 -0.1995
16984W        W20204   8.257  16.106   9.659  0.0797 -0.5766  0.2021
16985W        W20205   4.360  13.921  11.823  0.0842 -0.1762 -0.0158
16986W        W20206  11.548  10.144  13.910  0.1079 -0.1312 -0.1326
16987W        W20207  11.081  13.189  10.780 -0.0211 -0.2621 -0.3494
16988W        W20208   7.948  13.233  13.162  0.0185 -0.3504  0.2807
16989W        W20209   3.086  15.213  17.861  0.0804  0.0006 -0.0538
16990W        W20210   4.686  13.916   6.589  0.0767  0.2404  0.3747
16991W        W20211   1.197  11.873  11.880  0.0493 -0.1266 -0.2680
16992W        W20212   3.134  17.019   9.736 -0.0607  0.2185  0.3320
16993W        W20213   7.612  15.594  15.968 -0.3184  0.1120 -0.3537
16994W        W20214   0.896   0.454  10.287 -0.0934  0.0677  0.0811
16995W        W20215   4.659  11.265   6.827 -0.1293  0.2200 -0.2227
16996W        W20216   7.489  12.079  11.726  0.0438 -0.1368  0.0874
16997W        W20217   1.670  11.462   0.714  0.2169 -0.0322  0.2146
16998W        W20218   4.126  12.277  10.238 -0.1633 -0.1918  0.0895
16999W        W20219  10.215   7.200  11.113  0.1964  0.2064 -0.1469
17000W        W20220   8.104  10.007  13.629 -0.1188 -0.0817 -0.0970
17001W        W20221   7.486  11.837   2.093 -0.0622 -0.1403  0.1368
17002W        W20222   5.626  14.797  15.016  0.3150  0.0180 -0.0418
17003W        W20223   7.064  17.722  10.385  0.0835  0.0381 -0.0649
17004W        W20224   1.810  10.478  10.468  0.0212  0.2154  0.1492
17005W        W20225  11.222  12.621  12.470  0.0083  0.1978 -0.0383
17006W        W20226  12.074  10.871   6.830 -0.0199 -0.2425  0.1435
17007W        W20227  16.745   8.182   8.185  0.1792 -0.0743 -0.1864
17008W        W20228   8.108  11.818  15.261 -0.1144 -0.0356 -0.0167
17009W        W20229   7.156   3.726   8.820 -0.1565  0.0752 -0.3929
17010W        W20230   7.798   9.237   9.083 -0.0834  0.1473  0.0953
17011W        W20231   4.934  12.964  15.521 -0.0275 -0.1871 -0.1845
17012W        W20232   9.565  16.121   8.593 -0.0932  0.1280 -0.1057
17013W        W20233   1.135  13.554  11.379 -0.1568  0.3003 -0.1718
17014W        W20234  15.194  12.414  11.167 -0.0989 -0.1497 -0.1978
17015W        W20235   3.097   1.721   8.264  0.0013 -0.0630  0.1847
17016W        W20236   3.101  13.409  16.204 -0.0926 -0.2035  0.0401
17017W        W20237  10.730  14.491   9.732  0.0770  0.2805 -0.1313
17018W        W20238  16.871  14.831   5.752 -0.0135 -0.3337 -0.1705
17019W        W20239   0.961  12.206   0.898 -0.0208 -0.4088  0.0460
17020W        W20240   8.876  10.296   0.311  0.4183 -0.0186  0.2189
17021W        W20241   2.530   7.024   1.244  0.1254 -0.0568 -0.1015
17022W        W20242   8.178   9.718   8.465 -0.1018  0.0018 -0.0487
17023W        W20243   5.226   5.579  11.219 -0.0716  0.0756  0.1537
17024W        W20244   5.228  16.404  11.040 -0.1138  0.4202  0.0468
17025W        W20245   3.001  13.022  10.429 -0.0063  0.2143 -0.1777
17026W        W20246   5.848   8.865  13.520 -0.0010  0.1634  0.1609
17027W        W20247   0.488   3.492  11.742  0.1507 -0.0772  0.2048
17028W        W20248  14.839  17.080   4.974 -0.0034 -0.2984 -0.0195
17029W        W20249   5.985   9.408  12.080 -0.2488 -0.2126  0.0187
17030W        W20250  10.094   1.368   9.390 -0.0428  0.2897  0.0128
17031W        W20251  14.782   9.014  13.008  0.0357 -0.1961 -0.0458
17032W        W20252   5.566  11.148  12.114  0.1595  0.2041  0.0000
17033W        W20253   3.757  14.973  15.747 -0.1359 -0.0341  0.1019
17034W        W20254   4.429   9.548  16.198  0.1021  0.2123 -0.0836
17035W        W20255   8.605  10.634   8.468  0.2491 -0.0743 -0.1585
17036W        W20256   8.594  16.662  12.638 -0.0882  0.0379  0.4991
17037W        W20257   3.009  13.061  17.084  0.1339  0.2266  0.4358
17038W        W20258  11.898   9.984   8.733  0.2274  0.0535 -0.1035
17039W        W20259   7.861  12.911  12.325 -0.0894 -0.1914 -0.1498
17040W        W20260   0.103  13.249   0.468  0.3280  0.1167 -0.0559
17041W        W20261   7.908  12.484  14.763  0.1030 -0.1283  0.0196
17042W        W20262   0.895  14.191  13.003  0.3316  0.0142 -0.1016
17043W        W20263  17.923  13.855   9.699 -0.0736 -0.1805  0.0035
17044W        W20264   1.598   8.601  10.945 -0.0698 -0.3018  0.2390
17045W        W20265   8.371   4.562  17.252 -0.0848  0.0301  0.1226
17046W        W20266   5.720  15.778  13.785  0.1614 -0.0831  0.0159
17047W        W20267   6.657   6.256  14.792 -0.0813 -0.0873  0.0043
17048W        W20268   2.267   9.537  16.338 -0.1161  0.0436  0.2143
17049W        W20269   5.148   3.536   3.342 -0.0117  0.2552 -0.0636
17050W        W20270   1.558   6.116  13.152  0.0634 -0.0047 -0.1026
17051W        W20271   9.773  16.625  10.718  0.0653  0.0595  0.2670
17052W        W20272   6.186   8.090  13.004 -0.0161  0.1414  0.2546
17053W        W20273   4.785  14.338   9.837 -0.3916 -0.1687 -0.0163
17054W        W20274   9.307   9.418  14.720 -0.1066 -0.0114  0.0755
17055W        W20275   4.078  15.212   8.743 -0.0346 -0.3321 -0.0483
17056W        W20276   8.873   8.384  14.643  0.0416 -0.2903  0.2502
17057W        W20277   0.769  13.120   5.556  0.1772 -0.1531 -0.0270
17058W        W20278   7.314   6.553   7.570 -0.3861  0.2490  0.1793
17059W        W20279   7.973   6.312  15.427 -0.1517  0.1802  0.0615
17060W        W20280   4.457  15.963   9.460 -0.2233  0.1052 -0.0292
17061W        W20281   2.000   3.400  12.711 -0.0168  0.3003  0.1943
17062W        W20282   4.993  12.117   9.688 -0.1141  0.1767  0.4103
17063W        W20283   4.995  12.567  12.962  0.2045  0.0529  0.2116
17064W        W20284   6.980   9.619   9.407  0.1459  0.2051 -0.1220
17065W        W20285   2.015  13.991  16.252 -0.0321  0.1209  0.0295
17066W        W20286   2.896  17.038   1.034 -0.1448 -0.0130  0.1753
17067W        W20287   4.803   3.709   7.075 -0.0522 -0.0457  0.1601
17068W        W20288  17.492  10.046  12.226 -0.0492  0.2134  0.1229
17069W        W20289   6.455  13.155  12.068 -0.0684  0.0224 -0.2871
17070W        W20290   8.473  16.868  15.828  0.0084  0.1758 -0.3539
17071W        W20291   6.508  15.746   4.171  0.4422  0.4048  0.2198
17072W        W20292   2.164   7.979   9.222 -0.3663  0.2377 -0.0526
17073W        W20293   4.267  16.373  16.055  0.2422 -0.0724 -0.0074
17074W        W20294  10.580  10.308   8.884 -0.1492  0.0195  0.1471
17075W        W20295   6.796  10.970  18.123  0.0583 -0.1435 -0.2271
17076W        W20296   5.660  17.945  12.109  0.1194  0.2127 -0.1395
17077W        W20297   9.203  13.139  14.792  0.1049  0.1933 -0.0628
17078W        W20298   9.749  15.381  10.618  0.4134  0.0500  0.2324
17079W        W20299   4.387   5.721  13.137 -0.3458  0.0732 -0.0692
17080W        W20300   1.335  11.267  12.586  0.2398 -0.3562  0.1823
17081W        W20301   9.455  14.416  10.368 -0.0268  0.1004  0.2421
17082W        W20302   9.960   8.971   3.387 -0.0024 -0.1338  0.0283
17083W        W20303   4.283  12.779  10.922  0.1021 -0.2241 -0.1445
17084W        W20304  17.578   7.309  11.814 -0.0463  0.0110 -0.0486
17085W        W20305   8.127   0.307   8.816 -0.0176  0.1993 -0.1229
17086W        W20306   7.969   2.737   0.280  0.2267  0.2596  0.0496
17087W        W20307   3.409  15.438   8.271  0.0748 -0.0444 -0.1373
17088W        W20308   3.032   2.586  12.536  0.1269  0.2630  0.0733
17089W        W20309   8.318  13.126  15.368  0.0368  0.2980 -0.0168
17090W        W20310   6.492  16.677  11.632  0.1030  0.1469  0.0886
17091W        W20311   3.613   8.532  10.701  0.0530  0.2814 -0.3502
17092W        W20312   7.147  12.122  17.782  0.3285 -0.1025 -0.0973
17093W        W20313   4.694  13.885   9.588  0.0870  0.1047  0.0750
17094W        W20314   7.745   5.803  11.802 -0.3565  0.0269 -0.2564
17095W        W20315   7.290   9.327   3.806 -0.1926 -0.0167 -0.1912
17096W        W20316   5.968  11.313  11.147 -0.3151  0.1911  0.1234
17097W        W20317   0.483  15.213  15.237  0.1574 -0.1380  0.3366
17098W        W20318   4.784  14.831  13.109  0.2392 -0.2107 -0.0913
17099W        W20319   3.655  10.196  10.341  0.1147 -0.0022  0.1831
17100W        W20320   5.788   0.215  10.795 -0.3607  0.1202  0.0771
17101W        W20321   5.553  15.800  14.736  0.0373 -0.0523 -0.1529
17102W        W20322  13.002  10.527  14.208 -0.3639 -0.2121 -0.0045
17103W        W20323  11.957   7.636  15.033  0.0296  0.2590 -0.2063
17104W        W20324  11.677  10.107   9.194 -0.0471  0.0640  0.0939
17105W        W20325  12.187  16.767   5.163  0.3362  0.4215 -0.1015
17106W        W20326   4.302  11.258  16.909  0.0658  0.0745  0.0186
17107W        W20327   3.827  12.648  16.809 -0.0348  0.0179  0.3589
17108W        W20328   3.554  10.946  17.187  0.1070 -0.0994 -0.2496
17109W        W20329   7.584  11.785  13.154 -0.1627  0.4333  0.1222
17110W        W20330   5.181  11.959  16.836 -0.1686 -0.1623 -0.3024
17111W        W20331   2.818   8.312   8.777  0.3692 -0.0701  0.3588
17112W        W20332   1.451   9.927   2.927  0.0262 -0.2934 -0.0005
17113W        W20333   3.474  17.714  14.619  0.0134  0.0356  0.1282
17114W        W20334  10.357  17.071   5.716 -0.1817  0.0725 -0.2610
17115W        W20335   3.842   4.237  13.318 -0.0451 -0.0196 -0.2142
17116W        W20336   5.114  10.272  14.250 -0.1555  0.2027  0.0606
17117W        W20337   7.718   6.171  10.554 -0.2826 -0.1708 -0.0688
17118W        W20338   7.805  12.014  14.882  0.0586  0.0908 -0.0515
17119W        W20339   5.999   8.865   3.161  0.0865 -0.2494  0.1884
17120W        W20340   7.141  14.906   8.713 -0.0095 -0.1175  0.0777
17121W        W20341   2.452   8.654  14.724  0.1265  0.0325 -0.0933
17122W        W20342   6.695  17.457  15.172  0.0270 -0.2138  0.1446
17123W        W20343  10.088   9.449   9.833 -0.1174 -0.0140 -0.2433
17124W        W20344   3.187  12.341  15.747 -0.2781  0.3158  0.0726
17125W        W20345  10.700  12.703  10.758  0.1014  0.2048  0.1800
17126W        W20346   4.808  15.749  17.714 -0.1552 -0.1565 -0.1353
17127W        W20347   8.077   3.993   9.299  0.2285  0.0081 -0.3124
17128W        W20348   7.397   8.595  14.498 -0.0441  0.2547  0.4339
17129W        W20349   5.106   7.670  10.916 -0.3628 -0.0581  0.0183
17130W        W20350   3.153  10.894   9.127  0.1130 -0.1343 -0.2343
17131W        W20351   3.975  12.417  11.153 -0.1069 -0.1010 -0.0133
17132W        W20352  17.366   9.160  12.015 -0.4652 -0.2149 -0.0683
17133W        W20353   7.276   9.300  10.890  0.4344 -0.1337  0.2088
17134W        W20354   5.397  13.622  10.764  0.2288  0.0600 -0.1770
17135W        W20355   0.612   6.806  15.645  0.5118  0.5642  0.1735
17136W        W20356  17.110   6.016   9.807  0.0040 -0.1157 -0.1921
17137W        W20357   8.077   4.910   8.107 -0.0396 -0.0543  0.6074
17138W        W20358   7.739   3.650  12.207  0.0421 -0.0484  0.2778
17139W        W20359   3.700   2.391   6.752 -0.2509  0.0609 -0.1763
17140W        W20360   0.295   9.213  14.768 -0.2087 -0.0261 -0.0110
17141W        W20361  15.560  17.438  11.833  0.3098 -0.0178  0.0018
17142W        W20362   2.161  12.448  12.876 -0.0250  0.5103  0.1881
17143W        W20363  12.748   0.872   7.471  0.2817  0.1743 -0.1280
17144W        W20364   0.826   1.995  11.744  0.1529  0.2159  0.1705
17145W        W20365   0.048   8.703  12.822 -0.0334  0.1873 -0.1564
17146W        W20366  11.206  10.555  10.519 -0.1327  0.3039  0.4025
17147W        W20367   2.243  10.197  11.512 -0.4167 -0.0773  0.1075
17148W        W20368   2.866   7.846  11.670  0.0869  0.0581  0.2036
17149W        W20369   6.861   4.412  13.913  0.0016 -0.0423 -0.3323
17150W        W20370  10.632  13.125  12.701  0.4713  0.0263  0.2457
17151W        W20371   5.478  14.000  14.840 -0.3999  0.2391  0.1392
17152W        W20372   7.385  11.477   3.985 -0.0765 -0.3643 -0.0775
17153W        W20373   6.237  11.687   9.169  0.0257  0.1857 -0.0496
17154W        W20374  17.960   6.935   1.625 -0.0035 -0.0612 -0.1489
17155W        W20375   6.290  15.245  11.558  0.0073  0.1872 -0.1631
17156W        W20376   7.048  15.286  12.198 -0.3896  0.2049 -0.3402
17157W        W20377   6.413   6.733   3.082  0.0974  0.2059 -0.2323
17158W        W20378   7.318   9.689  15.184 -0.1238  0.0796  0.2006
17159W        W20379  18.138  14.501   9.100 -0.1579 -0.2098 -0.1419
17160W        W20380  16.194   9.456  11.158  0.0250 -0.1746  0.0288
17161W        W20381  11.214  12.168   9.428  0.1462 -0.2092  0.2602
17162W        W20382   0.284  10.923  17.434 -0.1330 -0.0154 -0.1098
17163W        W20383   3.542  16.429  13.532  0.0277  0.2694 -0.1340
17164W        W20384  10.637  14.843  14.135 -0.0560 -0.3033 -0.2024
17165W        W20385   2.122  13.038  11.535  0.0480  0.0746  0.4758
17166W        W20386  12.297  11.922  17.674 -0.1189  0.0715  0.1499
17167W        W20387  14.404   8.276  10.536 -0.1881 -0.2170  0.0337
17168W        W20388  13.504  12.483   9.369 -0.2466  0.2291 -0.3693
17169W        W20389   8.896   9.453  14.327 -0.1277  0.0196 -0.1996
17170W        W20390  11.090   7.984   8.359 -0.2882  0.0192 -0.2976
17171W        W20391   4.009  11.520  17.782 -0.1145  0.0254 -0.1834
17172W        W20392  11.944  11.997  13.440 -0.3957 -0.0302 -0.0423
17173W        W20393   5.090   8.376  17.906  0.2770 -0.1698  0.0715
17174W        W20394   9.214  12.741  17.857 -0.1409  0.0332 -0.0626
17175W        W20395   6.146  12.144  12.253 -0.2105  0.0340  0.3529
17176W        W20396   4.525  16.560  17.586  0.0413  0.2318 -0.0839
17177W        W20397  11.061  12.358   6.077  0.1156 -0.3654  0.1974
17178W        W20398   2.143  11.559  14.381 -0.0716  0.0609 -0.2292
17179W        W20399   9.581  11.721   8.145  0.3045  0.2735  0.0162
17180W        W20400   4.064  16.301  14.717 -0.0798 -0.3703  0.0560
17181W        W20401  14.469  15.925  11.141 -0.1902 -0.0556  0.4976
17182W        W20402   8.820   8.851  10.912  0.2120 -0.0843  0.0595
17183W        W20403   7.860  17.279  10.320  0.1346 -0.1417 -0.0605
17184W        W20404   7.396  11.596  10.035 -0.0105 -0.1094  0.3646
17185W        W20405  10.140  12.960  10.854  0.0840  0.1933  0.1282
17186W        W20406  12.418  12.417  15.132  0.1011 -0.0492  0.0270
17187W        W20407   8.765   7.996  12.367 -0.0110 -0.1240 -0.0838
17188W        W20408   3.704  11.020   1.215 -0.3215 -0.0398  0.2340
17189W        W20409   2.257  15.721  12.057 -0.2078 -0.1555 -0.0085
17190W        W20410   7.597  12.613   7.864 -0.0236  0.1353 -0.0486
17191W        W20411   7.568   5.969  12.497  0.2432 -0.1138  0.3319
17192W        W20412   0.213   0.711  15.170  0.2567  0.0424 -0.0758
17193W        W20413   8.642   1.010  12.640 -0.4281 -0.0245 -0.0337
17194W        W20414  12.588  10.122   6.983  0.2899  0.1891  0.1552
17195W        W20415   5.040   2.757  10.223  0.1489  0.0557  0.0649
17196W        W20416  10.527  11.852  13.558 -0.1927  0.0058  0.2771
17197W        W20417   2.797  11.904  12.698  0.0330 -0.0463  0.3545
17198W        W20418   8.864  16.248  13.503  0.0057 -0.0076  0.1973
17199W        W20419   6.328  16.803  10.740 -0.0409  0.0494 -0.0572
17200W        W20420   7.401   8.330   9.825 -0.1209 -0.1896  0.0703
17201W        W20421   3.538   6.254   2.222  0.0629  0.2961 -0.4336
17202W        W20422   2.270  16.648  16.268 -0.1761 -0.2153 -0.0421
17203W        W20423  18.171   9.958  14.278  0.1761  0.1466 -0.3329
17204W        W20424   9.004  13.281   7.063  0.0350  0.0983  0.4368
17205W        W20425   7.804  17.270  12.161  0.1418  0.0389  0.0571
17206W        W20426  10.754  10.369   0.750  0.1048 -0.4206 -0.3400
17207W        W20427   1.231  12.506   9.167  0.1537 -0.0439  0.4666
17208W        W20428   3.629  12.319   6.087  0.1887 -0.1523  0.2377
17209W        W20429   6.388  10.004  13.566 -0.0179 -0.1567  0.0580
17210W        W20430   5.181  15.400   6.460 -0.3997 -0.1704 -0.1770
17211W        W20431   4.050   7.685  11.877 -0.2309  0.3402  0.1386
17212W        W20432  10.961  17.283  10.762 -0.6553  0.1295  0.0513
17213W        W20433   4.529  18.018   3.261 -0.1455 -0.0360  0.0105
17214W        W20434   5.154   7.038   9.929 -0.0148  0.0555  0.0166
17215W        W20435   7.166   8.497   5.148  0.1356 -0.2921 -0.3955
17216W        W20436   6.464   9.696   7.777  0.3874  0.0128 -0.1023
17217W        W20437   1.549  12.326  16.269 -0.0212 -0.0456  0.0651
17218W        W20438   3.030   8.069   9.653 -0.1100  0.2541  0.1900
17219W        W20439   1.476  12.273   0.825  0.3650  0.0392  0.0260
17220W        W20440   9.049  13.023   7.530  0.0939  0.1641  0.3422
17221W        W20441   6.476   0.988   3.533 -0.2203  0.0562 -0.1286
17222W        W20442   0.046  10.718  11.379 -0.3028 -0.0340 -0.0508
17223W        W20443   1.129   9.521  12.586 -0.2509  0.0121  0.0632
17224W        W20444   0.319   1.180  11.695 -0.0645  0.3854 -0.0550
17225W        W20445  14.273  13.565  17.599  0.3519  0.1130 -0.0813
17226W        W20446   3.441   7.934  11.647  0.2858 -0.3083 -0.0895
17227W        W20447   2.422  16.097   8.903 -0.2752  0.0412  0.0866
17228W        W20448   9.880   1.717  12.762 -0.0777  0.1288 -0.3841
17229W        W20449   5.261   7.226  10.829 -0.0137  0.2407  0.1363
17230W        W20450   5.355   3.658  10.678  0.1569 -0.1021 -0.3064
17231W        W20451   3.058   5.084  11.251 -0.1267  0.0616  0.0011
17232W        W20452   4.822  15.526   9.374  0.0424 -0.2374  0.0464
17233W        W20453   1.859   9.203  16.730  0.2404  0.0143 -0.1159
17234W        W20454  11.924  14.644  10.092  0.2338 -0.0020  0.1046
17235W        W20455  11.794   5.931  14.414  0.0092 -0.2160 -0.0097
17236W        W20456   3.868  11.037  10.907 -0.0636 -0.0892  0.1741
17237W        W20457   0.565  17.807  12.434 -0.1370  0.2115 -0.2710
17238W        W20458   9.014   2.721   4.844  0.3464  0.0039  0.0139
17239W        W20459   8.785   4.135   1.073  0.0860 -0.1101 -0.1797
17240W        W20460   6.675   3.324  11.174 -0.0125 -0.0293 -0.1219
17241W        W20461  17.066   2.089  12.519 -0.3152  0.0876  0.1099
17242W        W20462   3.844   3.744   7.453  0.1243 -0.3338 -0.0330
17243W        W20463   2.074  17.780  11.538 -0.0108 -0.0403 -0.1201
17244W        W20464   2.463  17.863   6.967  0.1694  0.2014 -0.0595
17245W        W20465  12.825  15.183  10.155 -0.0495  0.1454  0.2951
17246W        W20466   9.319   4.492   9.099 -0.3156  0.1479  0.0920
17247W        W20467   7.898   7.807   2.563 -0.1895  0.1300  0.1446
17248W        W20468   1.082   4.761  18.094  0.1642  0.0452 -0.2985
17249W        W20469   6.256  10.389  12.637 -0.0859  0.0979 -0.0282
17250W        W20470   9.109   6.918   5.376 -0.0438 -0.3312 -0.0545
17251W        W20471  10.147  15.864  11.251 -0.3495  0.0662 -0.1653
17252W        W20472   3.554   1.977   8.126  0.2225 -0.2133 -0.0581
17253W        W20473  16.372   7.050   7.757 -0.0849 -0.0089 -0.2261
17254W        W20474   0.309   8.509  11.012 -0.1383  0.2198  0.1071
17255W        W20475  12.573   2.813  15.661  0.0259  0.3096 -0.0307
17256W        W20476   3.479   8.095   0.146  0.1173 -0.3274  0.2952
17257W        W20477   5.958  13.676  14.997 -0.0635 -0.0477  0.1288
17258W        W20478   7.670   8.820  11.730 -0.0493 -0.3342 -0.1911
17259W        W20479   7.709   1.329  18.253 -0.1379 -0.0370 -0.0311
17260W        W20480  12.089   1.636   7.835 -0.1096 -0.0156  0.0370
17261W        W20481   5.018   5.239   4.571  0.0097  0.0610 -0.1005
17262W        W20482   5.065   7.707   5.338  0.1041 -0.2599  0.1610
17263W        W20483   2.726  14.180  16.800  0.2288  0.1170 -0.5668
17264W        W20484   0.904  15.001  10.274 -0.0906 -0.0970 -0.0657
17265W        W20485   5.188  10.637  16.778  0.1093 -0.0821 -0.1179
17266W        W20486  12.800  17.256  16.084  0.0694 -0.2677 -0.2589
17267W        W20487   8.973  13.498  10.175 -0.1562 -0.0764  0.0143
17268W        W20488   5.592  11.091  15.128  0.1571  0.1619 -0.1249
17269W        W20489   8.597   7.185   7.700  0.0967 -0.2644  0.1062
17270W        W20490   3.237  11.754  14.211 -0.1120 -0.1710  0.0176
17271W        W20491   7.903   9.497  12.426  0.1307 -0.3678 -0.1288
17272W        W20492   6.771  15.541  13.966 -0.1588  0.0088  0.1006
17273W        W20493   8.970  12.856   8.737  0.0038 -0.0687  0.0283
17274W        W20494   7.386  15.260   6.732  0.2012 -0.2118  0.0465
17275W        W20495  10.298   8.353  14.737 -0.3781 -0.0634 -0.0661
17276W        W20496  18.015  14.728  10.956 -0.0557  0.0603 -0.0397
17277W        W20497   6.025  17.760  11.297 -0.4122 -0.0708 -0.0189
17278W        W20498   5.239   0.125  10.910 -0.1154  0.1590  0.1234
17279W        W20499  15.341  18.079  10.404 -0.0030  0.0177  0.0664
17280W        W20500   9.180   6.819  10.294  0.1854  0.0543  0.3763
17281W        W20501   4.268   9.952  15.188 -0.2393  0.0155 -0.0194
17282W        W20502   6.275  11.684  15.480  0.0445  0.0006 -0.1267
17283W        W20503   5.004  13.592   9.267  0.0751 -0.3626 -0.0080
17284W        W20504   7.053   1.892  12.727  0.1259 -0.2346 -0.3440
17285W        W20505   4.495   7.363   8.300  0.4048  0.0646  0.1153
17286W        W20506   7.324  12.439  15.540  0.2012  0.0360 -0.1504
17287W        W20507  12.169  14.607   4.791 -0.2908  0.1160 -0.0012
17288W        W20508   7.558  14.551  12.924  0.1286  0.0300  0.1803
17289W        W20509   7.423  14.170  10.389 -0.2622 -0.0153  0.0344
17290W        W20510   6.691  17.269  10.208 -0.2297  0.1258 -0.3290
17291W        W20511  14.790   9.536   2.986  0.3981  0.1893  0.1130
17292W        W20512  18.178   1.465   7.485 -0.1747  0.1966  0.0958
17293W        W20513   5.346   9.311  11.628  0.0084  0.3472  0.1260
17294W        W20514   5.960   8.981   8.621 -0.0129 -0.0371 -0.0120
17295W        W20515   1.096   7.932  12.859 -0.2304  0.1996 -0.0977
17296W        W20516   3.495  12.540  11.314 -0.0281  0.1923 -0.0104
17297W        W20517   1.790  11.608   2.700  0.0121  0.0439  0.0736
17298W        W20518   5.101  12.642   4.331 -0.2011  0.0115  0.2528
17299W        W20519   6.732  11.117  10.888 -0.1433  0.0243  0.0699
17300W        W20520   6.314  10.356  12.067  0.1938 -0.0093 -0.0451
17301W        W20521   8.994   6.347   3.438  0.1094 -0.3546 -0.2234
17302W        W20522   8.278  12.659   8.176 -0.1497 -0.2962  0.0873
17303W        W20523   7.224  15.368   9.967  0.2305  0.1827  0.3452
17304W        W20524  11.026  10.345   8.757 -0.0763 -0.2518 -0.0194
17305W        W20525  11.921  11.329   4.065 -0.3551  0.2230 -0.0846
17306W        W20526  17.141   3.771   8.781  0.3889 -0.1033 -0.2763
17307W        W20527   5.122   3.639  17.622  0.0729  0.0966  0.2361
17308W        W20528   3.428  14.115  14.993  0.1269 -0.0687  0.2949
17309W        W20529  10.396   7.811   9.883  0.1372  0.1581  0.3757
17310W        W20530   5.972   0.576   9.778  0.0985 -0.1122  0.0574
17311W        W20531   4.607  14.375  17.331 -0.1013  0.2475 -0.1817
17312W        W20532  16.820  15.514  12.572 -0.0464 -0.1068  0.0082
17313W        W20533   4.887  17.826   6.019  0.0320  0.0908 -0.1468
17314W        W20534   5.176  14.751  12.389 -0.0059  0.2207 -0.0379
17315W        W20535  17.578   7.476  17.230 -0.3387 -0.0856  0.1218
17316W        W20536   6.379  17.915  16.187 -0.1340  0.0932  0.0391
17317W        W20537   2.685  11.457   8.000 -0.1577  0.0550 -0.0009
17318W        W20538   7.674  10.449   8.155 -0.0930 -0.1805 -0.2794
17319W        W20539   6.383  12.670  12.468  0.2490  0.1476  0.1793
17320W        W20540   9.488   1.853  11.075  0.2362 -0.2511  0.1678
17321W        W20541   4.624   9.833   1.442 -0.0976  0.1600 -0.0511
17322W        W20542   2.471  10.013  17.119 -0.2832 -0.0167  0.0722
17323W        W20543   7.423  11.942  14.212  0.1775 -0.0363  0.0071
17324W        W20544  10.198   4.418   9.299 -0.0282 -0.0262 -0.2957
17325W        W20545   5.893  16.531   5.640 -0.2120  0.0064 -0.1713
17326W        W20546   1.400  11.294  11.677 -0.0497 -0.0909 -0.2811
17327W        W20547  12.709  16.152  13.053  0.4504 -0.0002 -0.1478
17328W        W20548   7.581   4.052   9.390 -0.2146  0.0195  0.0807
17329W        W20549  13.320  12.715  16.924 -0.1238  0.0947 -0.0588
17330W        W20550   8.241  10.418  12.382  0.0564  0.1349 -0.0429
17331W        W20551   8.206  14.206  13.085  0.2315  0.1444 -0.1628
17332W        W20552  12.792   6.911   0.556  0.2169 -0.2309  0.0406
17333W        W20553   0.432   8.944   4.078 -0.1789 -0.2358 -0.2321
17334W        W20554   7.004   6.507   1.456 -0.0041  0.1653 -0.0098
17335W        W20555   7.196  12.070  12.216  0.0549 -0.1122  0.1634
17336W        W20556   2.523   0.609  12.046  0.1088 -0.3006 -0.1406
17337W        W20557  10.722   9.949  14.583  0.0205  0.0490 -0.1206
17338W        W20558  10.542  15.142  15.732 -0.2821  0.3140  0.0175
17339W        W20559  13.138  11.421   8.495 -0.2057 -0.0891 -0.1170
17340W        W20560  15.708  16.542  10.699 -0.2580 -0.0579  0.0698
17341W        W20561   3.048  14.739  12.469 -0.2476  0.0146  0.1535
17342W        W20562  10.499  16.012  14.292 -0.0975  0.2150 -0.0365
17343W        W20563  10.502   6.115   7.732 -0.0037  0.0213 -0.0673
17344W        W20564  10.882  10.119   2.908  0.1615  0.0817 -0.0970
17345W        W20565   6.112  17.048  12.420 -0.0399  0.0936 -0.2522
17346W        W20566   1.000  15.915  12.343  0.0833  0.0069 -0.3004
17347W        W20567  11.861  17.649  17.196  0.1765 -0.2196 -0.0088
17348W        W20568   6.297  10.107   7.516 -0.0964 -0.3187  0.0737
17349W        W20569   7.148   9.091  12.460  0.0829  0.0074  0.0582
17350W        W20570  10.519   4.949   7.019  0.1044 -0.0228  0.1426
17351W        W20571  15.964  17.259  15.638  0.1622 -0.0166 -0.3147
17352W        W20572   5.281  14.843  14.557 -0.2420  0.1726  0.1925
17353W        W20573   8.815   7.485   4.634 -0.1269 -0.0444 -0.1163
17354W        W20574  12.912  17.118  17.347 -0.5242  0.1561 -0.0091
17355W        W20575   3.659  14.122  16.427  0.1059  0.1503 -0.0695
17356W        W20576   6.494  12.748   1.792 -0.3077 -0.0563 -0.0736
17357W        W20577   5.214  14.724   5.107 -0.1827 -0.0731 -0.0668
17358W        W20578  10.234  17.029  14.072  0.2397 -0.0004 -0.2154
17359W        W20579   3.361  15.281  13.822 -0.0611 -0.1237 -0.1076
17360W        W20580  12.881  13.788  16.863 -0.0360  0.0325 -0.0668
17361W        W20581   0.908   1.899  15.033 -0.1355 -0.2558 -0.2528
17362W        W20582   8.701   0.267  13.212  0.0351  0.0779  0.0593
17363W        W20583   0.708  10.817   1.492 -0.2395  0.1317 -0.1622
17364W        W20584   1.801   0.001  11.785  0.0732 -0.2146  0.2403
17365W        W20585   4.545  15.726  15.938  0.1146 -0.0960  0.1133
17366W        W20586   7.061  13.226  11.397  0.3698  0.0486 -0.1448
17367W        W20587   5.488  15.243   2.925 -0.1095 -0.0823 -0.1946
17368W        W20588   5.241  13.063  16.870 -0.3236 -0.0223 -0.1733
17369W        W20589   3.017  16.057  15.485  0.0520 -0.2850 -0.1458
17370W        W20590   8.796  12.976  15.509 -0.1929 -0.1377  0.0513
17371W        W20591   4.162  18.226   7.344 -0.2474 -0.0622  0.2438
17372W        W20592   6.198  10.105   2.964  0.0397  0.1789  0.2025
17373W        W20593  12.399  10.523  13.120  0.1971  0.1256 -0.1183
17374W        W20594  12.677   1.173  14.177  0.1859  0.2638 -0.1929
17375W        W20595   2.715  16.105  15.077  0.0176 -0.3358  0.0041
17376W        W20596   2.507   9.692  18.053  0.2606  0.1135  0.1714
17377W        W20597   6.885  15.196  13.610 -0.0955 -0.0826 -0.3018
17378W        W20598   6.853   8.069  14.904  0.0899  0.2823 -0.2399
17379W        W20599   7.148  10.478   4.839  0.1599 -0.1707  0.1514
17380W        W20600   3.794   5.959  14.634 -0.2279 -0.0295  0.0142
17381W        W20601   1.436  13.446   2.855  0.0620  0.4275  0.0973
17382W        W20602   1.239  13.223  13.997 -0.3382  0.0304 -0.4430
17383W        W20603   6.780  12.822   0.603  0.2894 -0.0347  0.0158
17384W        W20604   8.118   7.860  10.171 -0.2355  0.1285  0.2155
17385W        W20605   1.452  15.735  16.370  0.0689  0.0086 -0.1306
17386W        W20606  17.811  17.404   2.595  0.0509 -0.0711 -0.2616
17387W        W20607   1.684  12.088   1.419 -0.1345 -0.1638 -0.0446
17388W        W20608   7.628   9.972   9.858  0.1228 -0.3481  0.1360
17389W        W20609   7.244  11.576  13.448  0.0464  0.1020  0.0587
17390W        W20610  15.285  12.832  17.956 -0.3019 -0.2165 -0.3314
17391W        W20611   3.491  16.360   1.937  0.0422  0.0378  0.0461
17392W        W20612   2.942   6.139   1.056  0.2084  0.1701 -0.3500
17393W        W20613   9.968  16.691  12.170  0.3956  0.0930  0.1511
17394W        W20614   5.919   8.907  17.592  0.1260  0.2514  0.0904
17395W        W20615   7.896  11.688   5.163 -0.0678  0.1877  0.0155
17396W        W20616   6.528  16.144  13.510  0.0504  0.0351  0.1821
17397W        W20617   0.779   3.126  16.547  0.2544 -0.0251  0.2806
17398W        W20618   1.625  14.183  12.102 -0.2472 -0.2576 -0.0610
17399W        W20619   3.873  12.698  12.908  0.0408 -0.0131 -0.1409
17400W        W20620   0.210  12.951  12.265  0.0074 -0.1806  0.0258
17401W        W20621   1.402   0.832  14.487  0.1158  0.1858  0.1361
17402W        W20622   2.260  16.908  13.483  0.1494 -0.1212  0.1150
17403W        W20623  13.823   1.079   1.681 -0.1511  0.0631  0.2415
17404W        W20624  10.528  11.254  14.649 -0.1205 -0.1832 -0.1530
17405W        W20625   6.135  11.678  12.422 -0.2710 -0.0148  0.0320
17406W        W20626   7.734  14.586  10.344  0.5755 -0.0346 -0.1785
17407W        W20627  13.462  11.524   2.860 -0.0311 -0.1606  0.0936
17408W        W20628   7.132  14.403   8.533  0.1329 -0.3242  0.1485
17409W        W20629   7.734   5.323   7.613 -0.0854 -0.2738 -0.0994
17410W        W20630   8.486   7.066  16.680  0.0420 -0.0570  0.1102
17411W        W20631   0.734   1.639  13.286  0.1920 -0.3309  0.4114
17412W        W20632   7.107  10.790  11.576 -0.1936 -0.3208 -0.0312
17413W        W20633   5.209   7.169   4.513  0.0313  0.1025  0.0052
17414W        W20634  15.857   0.682  15.792 -0.3781 -0.0791  0.1361
17415W        W20635   3.540  13.130  16.186  0.0667 -0.2133  0.0762
17416W        W20636   6.510  14.155  15.481  0.1059 -0.0893 -0.2292
17417W        W20637   3.206   6.382   5.259  0.1461  0.3380 -0.2671
17418W        W20638  16.803   5.254  15.293 -0.2280  0.0862  0.2465
17419W        W20639  16.457  16.170  11.225  0.1272  0.0081 -0.0985
17420W        W20640   6.084  10.072  14.758  0.1639  0.0232 -0.0669
17421W        W20641  17.338  17.126   9.988 -0.0508  0.1017  0.4190
17422W        W20642  12.246  15.505  12.805  0.0592  0.0946 -0.0332
17423W        W20643   5.120   8.816  14.665 -0.0516  0.5510 -0.1294
17424W        W20644   7.207   5.716   8.953  0.1975 -0.2668  0.3670
17425W        W20645   1.874   9.615  16.031  0.1425 -0.0950  0.0942
17426W        W20646   6.345   8.988   4.891  0.1062  0.0964 -0.1516
17427W        W20647   7.988   8.421  16.641  0.1085 -0.0106 -0.0276
17428W        W20648   6.202  18.015   3.976  0.2554  0.5200  0.2753
17429W        W20649   0.625  12.645   2.075  0.1894 -0.2138 -0.0148
17430W        W20650   1.622  16.041  15.920 -0.1378 -0.1748  0.3173
17431W        W20651   4.734   6.513   0.946  0.3681  0.0934 -0.3749
17432W        W20652  12.537  11.367   3.989  0.1349 -0.2689  0.0514
17433W        W20653   8.768  16.495  17.978  0.1234  0.1224 -0.1622
17434W        W20654   0.896  16.006   5.662 -0.0111 -0.2486 -0.3146
17435W        W20655  13.650   1.539   2.179  0.0825  0.0620 -0.1860
17436W        W20656   0.641   9.544   1.829  0.1550  0.0690  0.0302
17437W        W20657   4.678  10.276  12.160  0.0411 -0.0468 -0.1557
17438W        W20658   5.425   1.818  16.646  0.0876 -0.1139  0.1561
17439W        W20659   4.412   8.701  16.497 -0.2198  0.1393  0.1665
17440W        W20660   3.979   1.828   0.436 -0.1692  0.1711 -0.0632
17441W        W20661   1.940   9.832  12.446 -0.3262  0.3048 -0.0215
17442W        W20662   3.059  13.890  17.036 -0.1187 -0.3101  0.1665
17443W        W20663  10.653  12.579  17.683 -0.2807 -0.0177 -0.1688
17444W        W20664   5.352  17.453  12.753  0.2539 -0.0851 -0.2408
17445W        W20665   4.406  11.616   1.978 -0.2767 -0.2203  0.0418
17446W        W20666  13.267   8.437  15.317  0.1181 -0.3344 -0.1453
17447W        W20667  12.513   8.429  12.139 -0.1617  0.2206  0.1229
17448W        W20668   4.134  16.190  11.407  0.0276  0.0113  0.0514
17449W        W20669  17.796  11.239  14.671 -0.0750  0.1035  0.0052
17450W        W20670   2.714  12.903  18.034  0.0402  0.2306  0.1628
17451W        W20671   9.394   9.059   9.431 -0.1169 -0.1174  0.0061
17452W        W20672  16.005   9.935   8.902 -0.1059  0.1791  0.0008
17453W        W20673   7.193  14.693  14.263 -0.0195  0.1925 -0.0816
17454W        W20674   3.672   9.901   9.763 -0.0938 -0.0823  0.0522
17455W        W20675   6.349   7.670   9.945  0.1631  0.2682  0.0236
17456W        W20676   1.480  14.146  16.198 -0.1820 -0.0477  0.2797
17457W        W20677   7.877  16.042   8.005 -0.0695 -0.0720  0.0904
17458W        W20678   4.085  16.260  13.462 -0.0100  0.0421 -0.1745
17459W        W20679  11.199  13.205  11.545  0.1769 -0.1111 -0.1893
17460W        W20680   6.338  12.212  12.764 -0.4276  0.1523  0.1237
17461W        W20681  15.848  18.113   2.810  0.1244  0.1389  0.1218
17462W        W20682   5.620  17.364  15.114 -0.1504  0.0671 -0.0441
17463W        W20683   9.579   4.645   0.727  0.1476 -0.0556 -0.0795
17464W        W20684  11.601  15.312  14.102 -0.0827  0.2736  0.0180
17465W        W20685   8.626   0.966   0.493 -0.2011  0.0871 -0.1308
17466W        W20686   5.748   3.611   7.710 -0.2437  0.2549 -0.1735
17467W        W20687   5.907  10.130  13.330  0.0934 -0.2216 -0.1741
17468W        W20688   9.774  13.659  16.158  0.2476  0.3164 -0.0658
17469W        W20689   7.012  13.142   7.885  0.0667 -0.3475 -0.2052
17470W        W20690   2.758  12.073  14.759  0.1114  0.2139  0.1615
17471W        W20691  11.628  12.866  15.436  0.1111  0.1005 -0.4260
17472W        W20692  13.217  12.852   5.511  0.1681  0.2254 -0.0659
17473W        W20693  10.549  16.516  17.134  0.1959  0.4192 -0.0080
17474W        W20694  10.016  14.434  15.163  0.0475 -0.2357 -0.0811
17475W        W20695   2.555  11.075   1.062 -0.0051 -0.1066 -0.2620
17476W        W20696   5.844  13.274  13.782  0.4158 -0.1239 -0.1744
17477W        W20697  10.791  17.334  12.101  0.1304  0.1893  0.1499
17478W        W20698  15.582  14.760  14.576 -0.2585  0.3675  0.2948
17479W        W20699   4.768  13.029   1.195 -0.0136 -0.1188  0.1691
17480W        W20700   4.443  12.268  11.170 -0.0945  0.0546 -0.0674
17481W        W20701   9.123   9.093  12.813  0.3209  0.0657  0.0690
17482W        W20702   1.062   6.604   2.197 -0.0025 -0.0930 -0.0244
17483W        W20703   9.310  10.589  17.477  0.4434 -0.4956  0.0827
17484W        W20704  17.532   0.125  10.611 -0.0500  0.3012  0.1093
17485W        W20705   6.722   9.705   8.650 -0.1239  0.0249 -0.1329
17486W        W20706   7.223   7.835  13.968 -0.0135  0.0417 -0.1089
17487W        W20707   5.506  10.640  16.385 -0.0773 -0.1150  0.0771
17488W        W20708   9.692  11.545   3.320 -0.1491  0.6473 -0.0315
17489W        W20709  10.680   9.753   5.555 -0.0184 -0.1900 -0.2273
17490W        W20710  15.464  10.313   3.062 -0.0489 -0.0526 -0.1233
17491W        W20711   8.081   7.390  14.502  0.0014 -0.2188  0.0265
17492W        W20712   2.065  17.349  15.164  0.0797  0.1793 -0.1202
17493W        W20713   4.531   9.823   7.657 -0.0123 -0.0729 -0.3204
17494W        W20714   7.370  13.290   0.240 -0.3065  0.1222  0.1277
17495W        W20715   4.194  15.016  15.487  0.2320  0.0187  0.1656
17496W        W20716   6.127  12.221   3.046 -0.0712 -0.0564 -0.0973
17497W        W20717  12.602  11.432   1.081  0.1220  0.1316 -0.2977
17498W        W20718   9.316  14.688  14.354  0.0325  0.1234  0.0279
17499W        W20719   8.192  11.971  11.283 -0.1483 -0.0011  0.0116
17500W        W20720   3.694  18.106  14.322 -0.0503 -0.2470  0.0446
17501W        W20721   7.129  15.834  15.149 -0.4668 -0.0250  0.1842
17502W        W20722   7.440   8.446  12.681  0.3776 -0.1856  0.2751
17503W        W20723  16.484  16.157  12.131 -0.1841  0.0873 -0.2777
17504W        W20724   1.353  13.583   4.720  0.0302  0.2706 -0.1808
17505W        W20725   6.846  14.789  15.509 -0.2531  0.0756  0.0117
17506W        W20726   8.591  11.768   7.833 -0.1941 -0.2119  0.0314
17507W        W20727   9.787   8.854  16.611 -0.0023  0.1666  0.2422
17508W        W20728   1.459   4.383   9.591  0.1978 -0.0767  0.0493
17509W        W20729   1.823  12.486  14.808  0.0493 -0.0496 -0.0223
17510W        W20730   7.399   7.686   4.338  0.0482  0.1484  0.0566
17511W        W20731  15.149   5.456   8.327 -0.0186  0.1867 -0.1641
17512W        W20732  17.018  12.289  16.160  0.2539  0.1293  0.1376
17513W        W20733   0.506  15.234  11.209 -0.0305  0.0429 -0.4096
17514W        W20734   9.958  14.469   3.004  0.0459 -0.2784  0.0449
17515W        W20735   3.467  14.917   7.409 -0.0502 -0.0918 -0.1106
17516W        W20736   8.521  17.060  17.752 -0.2403  0.0878  0.0988
17517W        W20737   4.706  12.596  17.312 -0.0018  0.4832 -0.1260
17518W        W20738   1.189  17.489  14.018  0.1123 -0.0434 -0.0602
17519W        W20739   7.543   8.264  15.661  0.3674  0.1289  0.2846
17520W        W20740   5.755  13.713  11.674 -0.1163 -0.0499  0.0050
17521W        W20741  10.766   8.189  10.499 -0.3895  0.2611  0.0879
17522W        W20742   9.005  13.439  15.780 -0.0153 -0.1659 -0.0205
17523W        W20743   5.857  14.140  10.313  0.0599  0.1538 -0.1750
17524W        W20744   2.825  17.646  13.971  0.2429  0.0845  0.1104
17525W        W20745   3.788  10.019   1.225 -0.0319 -0.0222 -0.1564
17526W        W20746   0.291  10.738  10.703  0.2642  0.0003 -0.0238
17527W        W20747   5.971  12.686   0.307  0.0142  0.1647 -0.1494
17528W        W20748   6.632   9.099   5.321  0.3534  0.2098 -0.1949
17529W        W20749   8.989   6.013   9.282  0.0841 -0.1552 -0.3409
17530W        W20750   3.046  16.551  15.211  0.0393 -0.2319 -0.1058
17531W        W20751   1.685   6.859   1.155  0.1820  0.0616  0.1004
17532W        W20752   2.904   8.713  14.542  0.0445 -0.1547  0.1243
17533W        W20753   4.776   2.944   1.383  0.2571 -0.0228 -0.1358
17534W        W20754   5.586  11.215   0.185  0.4212 -0.0336 -0.1289
17535W        W20755  18.213  12.224  10.409  0.3997  0.0322  0.0163
17536W        W20756   2.906   8.154   0.008  0.0503  0.3203  0.0306
17537W        W20757  17.447  14.700   4.085 -0.0078 -0.0452  0.2078
17538W        W20758   5.463  15.122  17.582  0.1187  0.1727 -0.2175
17539W        W20759   2.462   7.386   0.196  0.0924 -0.3310 -0.1924
17540W        W20760   6.754   6.754  11.822 -0.3708  0.2371 -0.0388
17541W        W20761   6.203   5.414   4.925  0.1051 -0.3363  0.0334
17542W        W20762   7.786  14.877  14.738 -0.1636  0.0648 -0.0995
17543W        W20763  15.921  14.743   8.063 -0.1962 -0.0666 -0.2949
17544W        W20764   8.105  13.287  16.760  0.0043 -0.1074  0.0255
17545W        W20765  12.967   7.429  12.591 -0.0987  0.0650 -0.1733
17546W        W20766   6.945   8.814  17.946  0.3767  0.1793  0.0515
17547W        W20767   6.114  13.715   6.103  0.2967 -0.0909  0.0007
17548W        W20768  10.672  12.460  15.170 -0.0046 -0.1362  0.0513
17549W        W20769   7.210  13.547  11.847  0.1213 -0.2223  0.1670
17550W        W20770   9.779  13.857  15.373  0.3000  0.2197  0.3978
17551W        W20771  16.109  14.679  12.265  0.1523 -0.0440 -0.1426
17552W        W20772   2.300  10.195   8.297 -0.2472  0.0309 -0.1054
17553W        W20773   9.018  14.908  13.026 -0.3032  0.3902  0.0514
17554W        W20774   1.160   1.365  16.604 -0.0329 -0.1644 -0.2226
17555W        W20775   6.580  14.293   9.222 -0.0962 -0.0364  0.0704
17556W        W20776   3.234  13.277  15.351  0.0961  0.0985  0.2332
17557W        W20777   1.173  12.681   1.063 -0.0676 -0.1487 -0.2734
17558W        W20778   7.181  13.032  15.766  0.0230 -0.0442 -0.0677
17559W        W20779   5.575  15.444   0.756 -0.2033  0.0500  0.1116
17560W        W20780   4.076  12.550  14.285 -0.0294  0.0155 -0.1040
17561W        W20781   6.754   1.362  14.081  0.0900 -0.1060 -0.3795
17562W        W20782  17.590  14.621  11.311 -0.0871 -0.1331 -0.0530
17563W        W20783   5.461  16.422  17.609  0.1934  0.3345 -0.2431
17564W        W20784   7.520  12.427  14.460  0.0256 -0.3105 -0.2761
17565W        W20785  13.633  16.365   1.940 -0.3700  0.1890 -0.0308
17566W        W20786   4.750   9.140   8.973  0.1573 -0.1337  0.0041
17567W        W20787  16.622  15.056   0.605  0.0134  0.2567 -0.1736
17568W        W20788   2.253   8.391   8.190  0.0034 -0.2275 -0.0657
17569W        W20789   6.738  13.032  12.502 -0.2383 -0.1355 -0.1916
17570W        W20790   0.045  16.227   9.347 -0.1824 -0.1212  0.1788
17571W        W20791   2.721  15.389  12.178  0.1956  0.0171  0.2773
17572W        W20792   4.037   2.089  13.782  0.0387 -0.0761 -0.0286
17573W        W20793   4.501  15.714  17.296  0.1402 -0.1274 -0.0948
17574W        W20794  12.581  14.418  11.168 -0.0574  0.3744 -0.0561
17575W        W20795  16.209  11.164   5.845  0.2707  0.2327  0.0566
17576W        W20796   7.868  13.305   0.213 -0.0696  0.2837  0.0949
17577W        W20797   7.689  14.855   1.985  0.1885 -0.0229  0.1370
17578W        W20798   5.931   9.771  17.808  0.1884 -0.2042  0.1225
17579W        W20799   7.755  18.205  16.193  0.2614 -0.0156 -0.1547
17580W        W20800   6.552   2.480  14.975  0.2754 -0.0651 -0.0833
17581W        W20801  17.740  12.677  13.385 -0.0410  0.0099  0.0180
17582W        W20802   4.758  11.685  17.993 -0.1062 -0.0913 -0.0476
17583W        W20803  17.976  15.371  10.364  0.0285  0.1397 -0.2847
17584W        W20804   2.703  15.616   2.250  0.1040 -0.2003 -0.0976
17585W        W20805   9.423   4.071   9.884  0.0924  0.1167  0.1085
17586W        W20806  16.440   9.595  15.503  0.2501  0.0634  0.3956
17587W        W20807   2.640  13.967  14.344 -0.0863 -0.0423 -0.3134
17588W        W20808   6.770  10.481  18.101 -0.1025  0.1155  0.0056
17589W        W20809   4.673   3.120  16.818  0.1235  0.0929  0.1793
17590W        W20810   6.536  10.240   4.714 -0.1648 -0.1994 -0.1509
17591W        W20811   0.338  17.297   0.573 -0.0307 -0.0526 -0.3300
17592W        W20812  17.974  10.097   3.525  0.0530 -0.1594 -0.2369
17593W        W20813   4.507  14.787   8.917  0.3146 -0.2471 -0.0157
17594W        W20814  15.629  13.796   4.870 -0.2958  0.0991 -0.2537
17595W        W20815  17.503   1.590  16.438  0.0412 -0.2185  0.2279
17596W        W20816   1.278  13.598   5.254 -0.3723 -0.0939  0.1152
17597W        W20817  10.704   8.411   2.416  0.0066  0.2021  0.3765
17598W        W20818   4.198  16.502  12.208  0.0987 -0.0896  0.3811
17599W        W20819   5.370   0.598   8.350  0.1239 -0.0842 -0.3349
17600W        W20820   8.741  13.219  14.467 -0.0792 -0.1244  0.2240
17601W        W20821   2.086  10.115   0.531 -0.0995  0.0704  0.0100
17602W        W20822   1.044   0.701  15.687  0.0177 -0.1948  0.1367
17603W        W20823   5.050   8.320   1.008  0.0234 -0.0803  0.1236
17604W        W20824   5.904   9.377   1.200 -0.1019  0.1400  0.1413
17605W        W20825  17.488  12.599  16.364 -0.3170 -0.0783  0.0426
17606W        W20826   7.427  13.818  16.122  0.1447  0.1027  0.1445
17607W        W20827  17.937  17.564  17.668  0.1631 -0.0414 -0.1460
17608W        W20828  16.779  16.516   6.035 -0.3145  0.2147 -0.0160
17609W        W20829   0.836  15.944  11.219  0.0102  0.0015  0.1604
17610W        W20830   2.648  12.226  13.908  0.1083  0.0615 -0.0811
17611W        W20831   8.724   3.378  14.776 -0.0063  0.1156 -0.1769
17612W        W20832  12.947  14.997  16.642  0.2688 -0.0164  0.0301
17613W        W20833   8.929   6.991  17.048  0.1347  0.1304  0.1739
17614W        W20834   2.549  10.608   1.243  0.0525  0.1880  0.2030
17615W        W20835   4.699  16.280  12.294 -0.1145 -0.0675  0.2980
17616W        W20836   1.108   2.967   4.775 -0.0934  0.0298  0.3343
17617W        W20837   4.393  13.323  14.114  0.0167  0.0182  0.1187
17618W        W20838   6.558  11.550  16.229 -0.1250  0.2134  0.5672
17619W        W20839   6.166  12.089   2.531  0.0864  0.0964  0.3285
17620W        W20840  18.256   8.928   8.121  0.3936 -0.0925 -0.0613
17621W        W20841   4.381  14.809  16.478 -0.0498  0.0826 -0.3056
17622W        W20842   7.915   8.518  17.443 -0.2658  0.1860 -0.2076
17623W        W20843   3.384   5.619  17.911 -0.0110  0.1218  0.0693
17624W        W20844   5.046   1.034   5.571 -0.1945  0.0129 -0.0201
17625W        W20845   7.759   9.617  14.902  0.2425 -0.4327  0.0876
17626W        W20846   1.090  12.297  16.054 -0.3083 -0.1213 -0.1560
17627W        W20847  12.761  15.938   2.114 -0.0770 -0.0075 -0.2420
17628W        W20848   5.392  11.455  17.253  0.0880 -0.2813  0.2061
17629W        W20849   2.618  15.897   9.419 -0.1283  0.1089  0.0458
17630W        W20850   5.015  16.811  11.004 -0.1759 -0.0653 -0.2389
17631W        W20851   3.782   4.431   0.810 -0.0190  0.0477 -0.2944
17632W        W20852  15.800  17.645   3.114  0.2950 -0.1377 -0.0853
17633W        W20853  11.185   8.117  15.155 -0.1486  0.1139  0.1855
17634W        W20854   9.123   8.627  15.743 -0.1517  0.0888 -0.3111
17635W        W20855   6.394  14.969  16.204 -0.0276  0.0087 -0.0229
17636W        W20856   5.584  11.554   0.603 -0.0271  0.1024 -0.2963
17637W        W20857  16.629  17.539  14.318 -0.0548  0.4150  0.0346
17638W        W20858  16.992  17.077  16.179 -0.1162  0.0198 -0.2431
17639W        W20859  14.050  11.278  10.807 -0.0734  0.1761  0.0684
17640W        W20860   8.076  13.349   3.768  0.1874  0.0317 -0.1585
17641W        W20861  17.462   9.503  17.288 -0.3139 -0.2812  0.0866
17642W        W20862  17.383   8.592  15.145  0.1438 -0.2918  0.0367
17643W        W20863   5.897  15.740  13.086 -0.1568 -0.3248 -0.0528
17644W        W20864   3.777  16.965  13.758 -0.1615 -0.0076 -0.3152
17645W        W20865   3.977   7.841  14.901  0.1268  0.2224  0.1471
17646W        W20866   4.049  14.071  16.827  0.1927 -0.3359 -0.1761
17647W        W20867  12.604  10.667  14.997 -0.0553 -0.3860 -0.2597
17648W        W20868   8.525  15.667   9.527 -0.0545  0.2462  0.0985
17649W        W20869   9.890  15.758   2.305 -0.1198 -0.0272 -0.0909
17650W        W20870  14.663  13.975   1.774 -0.3225 -0.1015  0.2855
17651W        W20871   8.607  10.754   3.363 -0.2531  0.0832 -0.2393
17652W        W20872  17.889  11.948   2.725  0.0469 -0.2127 -0.1872
17653W        W20873  16.993   4.167  16.862  0.0307 -0.1678  0.0102
17654W        W20874   9.952   9.717  13.619 -0.0196 -0.0765 -0.2840
17655W        W20875   3.638  15.970  14.762  0.1233  0.1398 -0.3472
17656W        W20876  14.861  16.360   3.630  0.4099 -0.0738  0.1452
17657W        W20877   1.095  15.741   2.825 -0.1676 -0.0715  0.1144
17658W        W20878   1.627   0.666  14.052  0.1664  0.2385  0.0055
17659W        W20879   5.575  10.940  17.977 -0.0367  0.1666 -0.1098
17660W        W20880   6.879  16.071  14.777  0.0666 -0.2941  0.2863
17661W        W20881   2.620   9.551  15.954  0.0356  0.0288  0.2068
17662W        W20882   1.135   0.966   0.252  0.1989 -0.2028  0.0396
17663W        W20883   5.421  17.113  16.757  0.1464 -0.1789 -0.2258
17664W        W20884   2.548  17.017  17.013 -0.0067 -0.2741  0.0992
17665W        W20885   4.299  11.850  14.865 -0.2956  0.2165  0.0227
17666W        W20886   1.790   9.106  15.154 -0.1680  0.1204  0.3716
17667W        W20887   5.454   0.089   9.428 -0.0800  0.0555 -0.1068
17668W        W20888   2.781  10.405  17.192  0.0288  0.1617 -0.2954
17669W        W20889  18.021   9.906  15.239  0.0041  0.0363 -0.0720
17670W        W20890   3.462   8.710  12.661  0.0644 -0.1088 -0.0106
17671W        W20891   0.979  15.956  11.847  0.0452 -0.4410 -0.0578
17672W        W20892  13.445   8.804  17.824 -0.2776  0.1364 -0.0279
17673W        W20893   5.755   5.063  14.687  0.0579 -0.1679 -0.2237
17674W        W20894   8.871  15.671  12.602 -0.0437 -0.3750 -0.2269
17675W        W20895   6.775  13.051  16.077 -0.2345 -0.0356 -0.0951
17676W        W20896  10.382   0.725  17.861  0.0937 -0.2169 -0.2101
17677W        W20897  13.865  12.220   1.584 -0.2442 -0.0266 -0.1581
17678W        W20898   3.443   3.897   5.537  0.1082 -0.0422 -0.1029
17679W        W20899  14.406   6.439   4.020 -0.1627 -0.1179  0.0973
17680W        W20900   3.093   9.491   2.734 -0.0353 -0.0783 -0.0865
17681W        W20901   4.114  10.591  13.471  0.2514  0.2133 -0.0775
17682W        W20902   2.987  12.298  13.045 -0.4254 -0.3372  0.0924
17683W        W20903   0.294  15.365  15.673 -0.1296  0.3703 -0.2067
17684W        W20904   3.303  10.003  17.522 -0.0960 -0.2563  0.0960
17685W        W20905   8.002  15.189  15.373  0.2736  0.1674 -0.3148
17686W        W20906  12.459   5.942  12.141  0.2403  0.2895  0.2487
17687W        W20907   1.251   1.629  14.667  0.0932  0.2376  0.0863
17688W        W20908   3.414  15.065  15.351 -0.0971 -0.0531  0.1844
17689W        W20909   4.666   1.859  14.484 -0.1562  0.1216  0.0940
17690W        W20910   3.596  12.186  14.345  0.4660  0.1207 -0.0698
17691W        W20911   1.988  14.943   1.097  0.1220 -0.1662  0.1989
17692W        W20912   2.523  16.431   3.784  0.1339 -0.0764  0.3814
17693W        W20913   0.254  12.111  13.733 -0.2476 -0.3306  0.0525
17694W        W20914   4.690   0.640   3.470 -0.0616 -0.2746  0.0481
17695W        W20915   5.791   0.912  15.799 -0.3673  0.1311  0.2712
17696W        W20916   8.853   1.199  13.712 -0.1780  0.0787 -0.1514
17697W        W20917   4.877  12.652  13.932  0.0996  0.1948 -0.2159
17698W        W20918   8.603   0.539  10.659  0.1542  0.3125  0.0973
17699W        W20919  10.379  14.252  13.856 -0.2344 -0.1065  0.1994
17700W        W20920   0.483  14.098  15.453 -0.2496  0.3069 -0.1791
17701W        W20921   4.214  15.096  14.813 -0.0520  0.1321 -0.0782
17702W        W20922   2.289   9.277  14.289  0.1547  0.0529  0.0351
17703W        W20923   8.029   6.593   7.707 -0.0143 -0.3007 -0.3051
17704W        W20924  10.443  13.271  13.869 -0.1382  0.0353 -0.2000
17705W        W20925  17.236  17.147  13.319 -0.0443 -0.0302 -0.0642
17706W        W20926   6.061  10.751   6.354  0.3543  0.4547 -0.0518
17707W        W20927   4.580  15.224  11.355  0.1667  0.2619  0.0666
17708W        W20928   2.921  14.930   9.224  0.2727  0.3026  0.2460
17709W        W20929   7.070  16.785  12.004  0.1812  0.0413  0.1067
17710W        W20930   6.287  12.920  16.346 -0.0323  0.1665 -0.0128
17711W        W20931  13.670  10.231  17.829 -0.0649  0.0763  0.1969
17712W        W20932   1.330  13.867   6.177  0.1033  0.4372 -0.1588
17713W        W20933   8.019  11.977  16.542  0.0199  0.0412 -0.1121
17714W        W20934   5.610  10.944  17.160 -0.1374 -0.1118 -0.1445
17715W        W20935   8.915  10.730   1.045  0.0511  0.1484  0.0170
17716W        W20936  15.379  13.098   5.358  0.0433 -0.2072 -0.0442
17717W        W20937   1.054   0.388  12.792 -0.0275 -0.0798  0.2171
17718W        W20938   6.147   9.284   2.176  0.1651 -0.0938 -0.0948
17719W        W20939   6.245   9.542  18.082  0.0189  0.1669  0.0010
17720W        W20940   8.997  12.262  17.806 -0.0750  0.2154 -0.0702
17721W        W20941   3.993  14.385  17.294 -0.1261 -0.2247  0.1358
17722W        W20942   0.478  17.068  11.074 -0.0750  0.1161  0.0305
17723W        W20943   2.463  14.672  18.191  0.0978  0.1667  0.0545
17724W        W20944  17.551  16.558  17.628 -0.1006 -0.0203  0.0833
17725W        W20945   4.533  16.237  15.489 -0.1148 -0.2603  0.3000
17726W        W20946   8.943   7.976  14.289  0.1228 -0.1463  0.0872
17727W        W20947   9.371  10.953  18.116  0.2804 -0.3318 -0.1261
17728W        W20948   8.867  14.471   3.636  0.1259 -0.0940  0.1874
17729W        W20949   4.499  14.293   1.251 -0.1318 -0.1783  0.0532
17730W        W20950   6.407  15.634   1.114 -0.1850  0.3563  0.2157
17731W        W20951  11.025  11.679   3.931 -0.0305 -0.0517  0.1418
17732W        W20952  18.095   6.373   1.677 -0.0018  0.2674 -0.2310
17733W        W20953  12.847  16.394  13.514  0.3146 -0.1432  0.0378
17734W        W20954   8.778  16.594  13.155  0.1745  0.4155 -0.0456
17735W        W20955   4.184   1.150  17.403 -0.3015 -0.2583 -0.2416
17736W        W20956  16.689  14.830  11.990 -0.0220  0.2002 -0.0823
17737W        W20957   6.495  12.022  16.525  0.0251  0.4172 -0.0823
17738W        W20958   3.959  15.315  18.143 -0.3628  0.1060  0.3835
17739W        W20959   4.389  12.469  13.907 -0.2104  0.2634  0.0353
17740W        W20960   5.462  11.663  10.409 -0.0291 -0.0004  0.3489
17741W        W20961   3.108  14.667   3.648 -0.0394  0.2378  0.2138
17742W        W20962   0.206   2.082   6.778 -0.0305  0.1828 -0.0050
17743W        W20963   4.185  12.377  16.458  0.0471 -0.0957  0.3537
17744W        W20964   6.747   3.550   2.021  0.0017 -0.0078  0.2018
17745W        W20965   7.177  16.951  15.881 -0.1746 -0.1108 -0.2040
17746W        W20966   7.540  16.864  14.339  0.0281 -0.0320 -0.2141
17747W        W20967  15.496  12.811  11.579  0.0553  0.1522 -0.2481
17748W        W20968   8.698   1.163  17.438  0.0795  0.3632  0.0381
17749W        W20969   3.857   0.820  15.281  0.0129 -0.0582  0.1875
17750W        W20970   1.772  17.736  13.095 -0.0741 -0.0075 -0.3142
17751W        W20971  10.585   7.406  12.615  0.2249  0.0730  0.0683
17752W        W20972  11.950  16.945  16.579 -0.4522 -0.0245 -0.3381
17753W        W20973   6.644  17.993  14.103  0.3751 -0.3049  0.2013
17754W        W20974   4.164  16.130  15.131 -0.1672 -0.1255 -0.2023
17755W        W20975   6.086  15.174  18.098  0.1798  0.2133 -0.0655
17756W        W20976  12.489   1.817   3.490 -0.0696  0.1744 -0.1681
17757W        W20977   4.718   7.754   9.094  0.0524 -0.3471  0.0573
17758W        W20978   7.485   6.527   3.211 -0.3377  0.0881 -0.0462
17759W        W20979   5.805   1.129   2.928 -0.5122  0.1145 -0.2805
17760W        W20980   6.393   3.229   9.848 -0.1112 -0.0475 -0.1648
17761W        W20981   5.413   0.186   2.616 -0.3154 -0.1864 -0.1591
17762W        W20982   6.817  10.770   9.067  0.1165 -0.1673  0.2014
17763W        W20983   3.027  14.295  15.287 -0.4984  0.1915 -0.0896
17764W        W20984   8.513  17.139   2.551  0.1746  0.2712  0.0894
17765W        W20985  18.134  14.045   6.157 -0.1540 -0.0204 -0.1692
17766W        W20986   8.150  14.497  10.610  0.3679 -0.1509 -0.1309
17767W        W20987   3.721   4.090   7.098 -0.0762 -0.1067  0.0068
17768W        W20988   9.195  12.782   9.609  0.0386 -0.3384  0.2273
17769W        W20989   3.775  17.097  16.568 -0.2980 -0.2197 -0.6200
17770W        W20990  15.780  17.544  14.439 -0.1793 -0.1989  0.1473
17771W        W20991  17.735   1.102  16.329 -0.1045 -0.1493  0.0558
17772W        W20992   9.047   8.651   0.483  0.1323  0.0174 -0.2996
17773W        W20993  11.155  11.722  15.315  0.0685 -0.1010 -0.0322
17774W        W20994   6.006  14.843  16.682  0.1305  0.0756 -0.1369
17775W        W20995   3.394  16.734  10.054  0.0154  0.2325  0.0413
17776W        W20996   0.149   0.944  13.619  0.3727  0.0917 -0.2467
17777W        W20997   4.854   8.920   2.398 -0.3173 -0.0628  0.2580
17778W        W20998   4.369  17.299  14.494  0.2874 -0.1232  0.3340
17779W        W20999  13.078  11.086   0.198 -0.0686 -0.1461  0.2498
17780W        W21000   7.937  17.553  16.291  0.4113  0.0348 -0.0099
17781W        W21001   4.360  15.622  18.217  0.1649  0.1171 -0.0756
17782W        W21002   5.280  13.376   3.919  0.2781  0.4035 -0.3055
17783W        W21003  10.655  14.493  14.509  0.1014 -0.0329  0.2101
17784W        W21004   8.614  16.793   8.296  0.5058 -0.2720  0.0004
17785W        W21005   2.855   0.269  11.470 -0.2250  0.1500  0.5648
17786W        W21006   3.533   2.263   1.536  0.1346  0.2685 -0.2644
17787W        W21007   7.594  17.243  13.171 -0.1994  0.0352  0.0706
17788W        W21008  12.488   3.535   6.420 -0.2388 -0.0449  0.3761
17789W        W21009   7.562  17.480   1.612  0.0326  0.1942 -0.3109
17790W        W21010  12.812   2.788   2.116 -0.0541  0.3415  0.1510
17791W        W21011   5.675   2.603  14.781 -0.1702  0.1243 -0.3244
17792W        W21012   2.789  12.892   2.852 -0.0491  0.2680  0.2206
17793W        W21013   6.134   6.833   1.243 -0.2023  0.1800  0.2394
17794W        W21014   6.286  16.932   3.480 -0.0673  0.0548 -0.0615
17795W        W21015   5.520  11.757   5.771 -0.0138 -0.0711  0.3232
17796W        W21016   7.339   4.601   4.536  0.0813 -0.1494 -0.0839
17797W        W21017  16.580  15.882   2.250 -0.0448 -0.1976  0.3315
17798W        W21018   4.787   0.010   1.399  0.0196  0.2912  0.1457
17799W        W21019   5.229   1.648   5.443 -0.0789  0.0473 -0.1845
17800W        W21020   5.017   1.943   5.788  0.0777 -0.1212 -0.0799
17801W        W21021   9.499  13.543   6.351 -0.2200  0.1717  0.1211
17802W        W21022   3.407  17.994   5.597 -0.1544 -0.0839 -0.2331
17803W        W21023   3.148   0.909   6.814 -0.1115  0.0701 -0.0617
17804W        W21024   4.473   5.280   2.052 -0.0766  0.2135 -0.0059
17805W        W21025   3.257  17.709   1.420  0.1823  0.0093 -0.1148
17806W        W21026   9.034  15.878  11.143  0.0665 -0.0001  0.1320
17807W        W21027   1.911  10.728   4.160 -0.0666  0.3811 -0.2147
17808W        W21028   0.028  14.334  11.138 -0.2710 -0.2616  0.0867
17809W        W21029   1.349  13.082   3.305  0.0027  0.3407  0.1133
17810W        W21030   4.076  15.138   5.456  0.0079 -0.1763 -0.3231
17811W        W21031   1.475  12.964   0.239 -0.1168  0.1088 -0.3432
17812W        W21032   3.468  15.955  17.657  0.1319 -0.3073 -0.3467
17813W        W21033  11.044   3.647   3.985 -0.1015 -0.1796 -0.2862
17814W        W21034   6.403   3.855  14.448  0.2084  0.2149 -0.1890
17815W        W21035   9.014   3.193   3.010 -0.0755  0.0739 -0.1002
17816W        W21036   4.003   6.128  18.109 -0.1569  0.0623  0.0150
17817W        W21037   4.889   0.218   2.817  0.0758  0.1028 -0.1436
17818W        W21038   6.869  15.604   5.464 -0.3234  0.1526  0.1796
17819W        W21039  11.360  14.229   2.321  0.0311  0.3429 -0.0092
17820W        W21040  12.656  11.040   5.558  0.0703  0.1192 -0.0635
17821W        W21041   7.424  12.988   1.310  0.0111  0.0134  0.0753
17822W        W21042   2.655  15.596   6.508  0.2042  0.3167 -0.2427
17823W        W21043   1.504   5.656  16.631  0.0664 -0.0314  0.1845
17824W        W21044   5.020  11.485   4.566 -0.2981 -0.0833 -0.0515
17825W        W21045  17.838  15.841  17.095  0.1542  0.1046  0.2306
17826W        W21046   1.770   9.593   9.102  0.0319 -0.2167 -0.0113
17827W        W21047   3.800   8.103   8.907  0.1474 -0.0868 -0.2084
17828W        W21048   1.586  13.561   3.331 -0.3887  0.2000  0.2081
17829W        W21049   4.153  18.225  13.982 -0.2138  0.2929  0.2460
17830W        W21050   5.627  14.212  17.507 -0.0799  0.0073 -0.1343
17831W        W21051   8.052   3.263  12.048 -0.0396 -0.1484  0.1221
17832W        W21052   9.712  12.486   0.681 -0.0907 -0.0457 -0.0736
17833W        W21053   4.817   0.764  12.073 -0.2357 -0.0744  0.0073
17834W        W21054   7.728  14.709  16.969 -0.2130  0.1556  0.0500
17835W        W21055   9.707  11.737  17.326 -0.1692 -0.1517  0.2037
17836W        W21056   1.577  13.896   2.834 -0.3782 -0.0378  0.0653
17837W        W21057   7.899  12.308   0.958 -0.3310 -0.2907  0.1559
17838W        W21058   6.382  11.913  15.921  0.1247 -0.1290 -0.1053
17839W        W21059   4.384   1.640  14.876 -0.0024 -0.6998 -0.0737
17840W        W21060   4.540  13.404   5.775  0.1045  0.0267 -0.0189
17841W        W21061   8.600  18.219  13.552  0.1191 -0.3498  0.3170
17842W        W21062   5.441   9.675   2.488  0.1169  0.2136 -0.3154
17843W        W21063   7.083  12.080  16.540  0.0823 -0.0146 -0.3669
17844W        W21064   6.832   0.152   0.191 -0.1062 -0.1145  0.0523
17845W        W21065  17.659  12.848  15.152 -0.1014  0.2351  0.3753
17846W        W21066   2.066  17.579  10.197  0.0065 -0.1843 -0.0808
17847W        W21067   1.111   6.079   3.260  0.3339 -0.2549  0.3209
17848W        W21068   8.309   0.966  16.243 -0.3258 -0.1555  0.1578
17849W        W21069   5.578  14.534   5.559  0.1201  0.0193  0.0099
17850W        W21070   5.979   1.550   0.937 -0.2268 -0.0548 -0.0158
17851W        W21071   5.042  14.061   3.351 -0.0144  0.0862 -0.2167
17852W        W21072  14.594  12.210  17.551  0.0841 -0.4040  0.1691
17853W        W21073   9.778   0.431   2.820  0.2137  0.0781  0.0678
17854W        W21074   1.341   2.585  18.030 -0.0016 -0.4054  0.0179
17855W        W21075   8.079  15.215   1.566 -0.0456  0.0712 -0.0195
17856W        W21076  10.613  11.657   2.029 -0.2255  0.3136 -0.1646
17857W        W21077  12.659  16.867   2.098  0.1683  0.3667 -0.2003
17858W        W21078   2.331   8.045   1.168 -0.4903  0.0790  0.0782
17859W        W21079   3.106   8.481   7.283  0.1366 -0.0394  0.1691
17860W        W21080   3.818  15.790   1.148  0.0358 -0.0492 -0.0635
17861W        W21081  10.208  16.834   1.491  0.0502  0.1783  0.5455
17862W        W21082   4.042   3.519   3.120 -0.1342 -0.2788  0.0749
17863W        W21083  10.282  17.538  16.505 -0.2677 -0.0866 -0.0334
17864W        W21084   9.236   5.521   9.303 -0.0419  0.3434  0.0391
17865W        W21085  11.921   8.332   0.455 -0.1507 -0.0266  0.1373
17866W        W21086   6.471  12.947  12.886  0.1259 -0.0320  0.2310
17867W        W21087   7.464  10.646  12.490 -0.0817  0.2571 -0.2532
17868W        W21088   0.607  12.041   2.189 -0.1827 -0.0175 -0.0463
17869W        W21089   6.031   5.137   5.790 -0.1579  0.0481  0.2234
17870W        W21090   8.188  14.579   2.803 -0.4972  0.0888 -0.1863
17871W        W21091   4.083   0.278   2.237 -0.0280  0.2636  0.1143
17872W        W21092  16.509  11.839   1.717  0.1541  0.0983 -0.1456
17873W        W21093   1.603   0.123  10.232 -0.1340  0.0287  0.2452
17874W        W21094   4.240  17.216  15.291 -0.0760 -0.3574 -0.1868
17875W        W21095   4.759  15.319   3.205  0.0318  0.0547  0.1199
17876W        W21096  10.282  17.404   2.402  0.2603 -0.1040 -0.1591
17877W        W21097   2.241   0.101  16.721 -0.3391  0.1246 -0.2015
17878W        W21098   0.241  10.379   4.781  0.0693  0.2125  0.0957
17879W        W21099   7.425  18.161   6.534 -0.1904  0.0270 -0.4466
17880W        W21100  12.646   0.463   0.771 -0.1267  0.2632 -0.1654
17881W        W21101   2.143  11.734   4.527 -0.1437 -0.1160 -0.1932
17882W        W21102   3.558  12.812   5.368  0.0814  0.1216 -0.3182
17883W        W21103   1.880   4.464  17.527  0.2694 -0.5476  0.0300
17884W        W21104   2.752   1.085   1.232  0.3879 -0.0749 -0.0226
17885W        W21105  12.797  16.235  18.008  0.2192 -0.0285 -0.0117
17886W        W21106   7.353   8.458   3.406  0.1054  0.1983 -0.2181
17887W        W21107  17.254  14.352  14.462 -0.0281 -0.3502  0.0073
17888W        W21108  18.094   2.661   4.958 -0.0789 -0.1572  0.1821
17889W        W21109  12.246   1.742   0.343  0.0629  0.0848  0.3715
17890W        W21110  17.591  12.810   3.408  0.0984  0.0370 -0.0764
17891W        W21111  11.219   7.984   6.565  0.1659  0.2487  0.6745
17892W        W21112  17.766   2.370  13.835  0.0664 -0.3771 -0.3854
17893W        W21113   9.452  18.201  13.915  0.0902  0.0746  0.0828
17894W        W21114   1.949   8.282  16.066 -0.0355 -0.3537  0.3761
17895W        W21115  10.466  11.886  17.884  0.0688  0.0648  0.0137
17896W        W21116  11.023  12.423  17.433  0.3714 -0.3071 -0.0351
17897W        W21117   5.786   0.648  16.787 -0.2786 -0.1541 -0.3407
17898W        W21118   2.815  15.605  17.005  0.0454 -0.0948 -0.0695
17899W        W21119   4.061  14.387   8.148 -0.2270  0.2557  0.1186
17900W        W21120   4.798  16.785  14.003  0.2833 -0.0349 -0.0499
17901W        W21121  12.346   8.291  14.355  0.1210  0.1136 -0.0627
17902W        W21122   7.499  17.794  11.285  0.2250 -0.0700 -0.0137
17903W        W21123   7.001  15.450  14.846  0.0681  0.0328 -0.1808
17904W        W21124   1.687  16.360   9.304  0.0430  0.0401  0.0019
17905W        W21125   4.563  18.237   6.115 -0.0503 -0.1344 -0.1296
17906W        W21126   1.152   1.477   0.314 -0.1991 -0.1190 -0.3919
17907W        W21127   5.880  12.868  17.315  0.1311  0.1196  0.0985
17908W        W21128   4.445  11.335   9.355  0.3398  0.2470 -0.2162
17909W        W21129   3.378   4.015   3.934  0.0563  0.0445 -0.1414
17910W        W21130   1.845  15.770  17.570 -0.2545 -0.2484  0.0350
17911W        W21131   7.035  15.904   8.524  0.2618 -0.1059  0.3166
17912W        W21132   4.838  13.458   4.102  0.0310  0.1130  0.1670
17913W        W21133   4.969  11.740   8.224 -0.2325 -0.3318  0.1843
17914W        W21134  17.229  13.517   1.558  0.0925 -0.1248  0.1223
17915W        W21135   5.805  10.365   0.619  0.2683  0.3053  0.0645
17916W        W21136   5.163   1.600   0.849  0.2240  0.0854 -0.0223
17917W        W21137   6.836   2.093   9.223 -0.2557 -0.4925 -0.0277
17918W        W21138   9.765  16.448   4.067 -0.1946 -0.2549  0.1842
17919W        W21139   5.518   0.924   0.776 -0.1018 -0.1397 -0.2284
17920W        W21140   5.339   0.225  18.155 -0.0019 -0.0610  0.4607
17921W        W21141   5.631  13.655  16.245 -0.2787 -0.2958 -0.0628
17922W        W21142   9.586  14.159  16.152 -0.1500 -0.0601 -0.0108
17923W        W21143   7.553  14.007  12.311  0.1480 -0.1528 -0.2004
17924W        W21144   4.983  10.584   3.566 -0.1239 -0.1926  0.1241
17925W        W21145   6.926  12.210  15.238  0.1320 -0.0860  0.2234
17926W        W21146   8.254  13.824   7.936 -0.2514  0.1281 -0.0599
17927W        W21147   5.797   4.134  18.036  0.3375  0.2463  0.1797
17928W        W21148   4.246  14.003   9.754 -0.0935 -0.2172  0.0734
17929W        W21149   6.521  13.631   1.348  0.1455  0.0937  0.1410
17930W        W21150   6.624  15.499  17.124 -0.2046  0.2379  0.0914
17931W        W21151   0.564  15.210   7.168 -0.1115 -0.1124  0.2468
17932W        W21152   6.068  11.890  18.025 -0.1273  0.0275  0.0322
17933W        W21153   4.027  11.280   0.011 -0.3132 -0.1339  0.1216
17934W        W21154   5.315  15.140  17.114 -0.2534 -0.1732  0.3402
17935W        W21155  16.112  16.216  18.009  0.2028  0.0841  0.1366
17936W        W21156  11.481  12.265  14.207  0.2009 -0.3752  0.1236
17937W        W21157  12.019  16.209  14.060 -0.2939 -0.1744 -0.6552
17938W        W21158   3.092  13.883  16.499  0.1813  0.1136 -0.0593
17939W        W21159   5.121  12.882   0.178  0.1066  0.1628 -0.1354
17940W        W21160   3.287   0.793  14.146  0.0719  0.2536 -0.0877
17941W        W21161   4.333  14.010   4.568 -0.2303 -0.0802 -0.1747
17942W        W21162   7.871   2.428   2.963 -0.0428  0.1958  0.1114
17943W        W21163   2.256  17.476  17.658  0.3761  0.1669  0.1786
17944W        W21164   7.643  12.977   0.559  0.1112  0.0862 -0.2239
17945W        W21165   4.376  15.760   6.639  0.2342 -0.1047 -0.0870
17946W        W21166  12.102  17.268  12.226  0.0354  0.2770 -0.1455
17947W        W21167  11.182  12.766   0.399  0.0890  0.3741  0.0045
17948W        W21168  16.731   1.401  13.613 -0.1611 -0.2033  0.0292
17949W        W21169   6.618   5.124   8.439  0.0805  0.0581  0.1141
17950W        W21170  14.335   0.969   0.557 -0.3032 -0.2151  0.1559
17951W        W21171   3.816  11.897   6.385  0.0968 -0.0429 -0.1547
17952W        W21172   1.359   0.790   3.291  0.1531  0.2157 -0.1491
17953W        W21173   2.143   4.677   3.970 -0.1542 -0.0302 -0.2521
17954W        W21174   4.616  17.822   4.612 -0.0693 -0.2988  0.0566
17955W        W21175  11.797   1.420   4.763  0.1862  0.0684  0.0215
17956W        W21176   1.013  14.690   7.289 -0.1796  0.1768  0.0115
17957W        W21177  13.856   3.414  17.931 -0.1090 -0.1634 -0.0101
17958W        W21178   5.137  16.619   7.078 -0.1147  0.2648  0.0622
17959W        W21179   4.281  17.056  11.857  0.5177  0.2828  0.1487
17960W        W21180   7.845  12.161   6.934 -0.1212 -0.2456  0.0010
17961W        W21181   5.192  15.713   2.430 -0.0432 -0.0105 -0.0198
17962W        W21182  17.803   0.954  10.446  0.1610  0.3118 -0.1191
17963W        W21183   3.042   0.286  17.090 -0.2305 -0.1688  0.1174
17964W        W21184  11.032  12.303  10.866  0.0318 -0.1132  0.2972
17965W        W21185   6.388  12.775   1.313 -0.1040 -0.0954  0.1649
17966W        W21186   2.649  12.655   6.026  0.0963  0.4730  0.1865
17967W        W21187  12.870  15.039   6.999  0.0230  0.1861 -0.0900
17968W        W21188   6.318   4.543   4.372 -0.2292 -0.1400  0.0570
17969W        W21189   4.040  11.782   0.937 -0.0761  0.0120 -0.1061
17970W        W21190   8.565  13.713   0.939  0.1054 -0.0111  0.2603
17971W        W21191   1.968   0.691  15.212 -0.0920 -0.0781  0.1410
17972W        W21192   2.949   1.015  14.651  0.2711 -0.0916 -0.0040
17973W        W21193   7.429   3.445  17.208  0.0981 -0.0273 -0.6583
17974W        W21194   0.428   3.057  18.175 -0.2006 -0.0260  0.0056
17975W        W21195   1.113  10.398  15.093 -0.0376  0.0495 -0.0637
17976W        W21196  12.742   1.319   4.259 -0.0331  0.2440  0.3051
17977W        W21197  13.552  12.281   3.889 -0.3563  0.1017  0.0021
17978W        W21198  12.097  16.381   3.356 -0.0812  0.0151  0.2412
17979W        W21199   7.918   0.989   6.128  0.1245 -0.1913 -0.3252
17980W        W21200   7.793  10.904  13.822 -0.0912 -0.2724  0.4010
17981W        W21201   5.265  12.525  11.087  0.2774 -0.1961 -0.0613
17982W        W21202   3.076  17.062  17.111  0.0448  0.2990  0.0510
17983W        W21203   6.446  15.015   1.670 -0.0038  0.0474  0.0164
17984W        W21204   3.483  15.722   4.933 -0.2303 -0.0858  0.2680
17985W        W21205   7.473   5.138  16.159  0.1959  0.1588  0.1169
17986W        W21206  12.184   0.081   6.130 -0.2048  0.0581  0.0772
17987W        W21207   1.432   0.678   8.887  0.3067 -0.0119  0.2719
17988W        W21208  10.148  14.711   3.595  0.1044  0.0436  0.1048
17989W        W21209   4.050  12.039  14.085  0.2102  0.0229 -0.0792
17990W        W21210   0.760   9.441   5.347  0.1570  0.0915 -0.1557
17991W        W21211   9.333  16.071  17.031  0.2461  0.0411  0.2360
17992W        W21212   5.664  17.982  15.628 -0.1056  0.0796 -0.0762
17993W        W21213   0.306  16.089  17.424  0.2468  0.0109 -0.2253
17994W        W21214   0.282  13.737  15.124  0.0631 -0.0017 -0.1603
17995W        W21215   9.188   3.800   1.028 -0.1676  0.1403 -0.0196
17996W        W21216   6.753   2.664   0.656  0.0108 -0.0251 -0.1388
17997W        W21217   3.463  12.755   8.311 -0.0072 -0.3190  0.2473
17998W        W21218   5.347  15.743   8.113 -0.2355 -0.0460 -0.3278
17999W        W21219   4.372   4.431   3.214 -0.3602 -0.1241  0.0158
18000W        W21220   5.026   2.335  15.334  0.2772  0.0717 -0.1722
18001W        W21221   7.912  13.013  18.051  0.4563  0.0038  0.1181
18002W        W21222  10.518   3.687   5.802 -0.0092 -0.0413  0.0797
18003W        W21223  17.584  14.836   5.014  0.2476  0.0792  0.1512
18004W        W21224   5.837   0.584   2.392  0.0832 -0.0506 -0.1139
18005W        W21225   2.432  13.793   1.700 -0.0166  0.1176 -0.0823
18006W        W21226   9.074   2.135  16.815 -0.0820 -0.2844 -0.0877
18007W        W21227  10.227  17.237  11.858 -0.2790  0.0985 -0.1790
18008W        W21228   2.539   0.183   3.704  0.0362  0.0265  0.0693
18009W        W21229   7.648   1.143   0.508 -0.2544 -0.1665 -0.2414
18010W        W21230   2.919   1.933  15.188  0.3520 -0.1385  0.1795
18011W        W21231  13.223  17.235   1.560  0.1284  0.0530 -0.0646
18012W        W21232   0.663  10.366   3.968  0.1461 -0.3103 -0.0529
18013W        W21233   1.606  17.181  12.023 -0.0280  0.0765  0.2069
18014W        W21234   6.429  16.846  17.103  0.0599  0.0637  0.1179
18015W        W21235   4.812   4.529   7.422 -0.2588  0.0220 -0.0611
18016W        W21236  16.885  16.276   2.009 -0.0598 -0.1960 -0.3120
18017W        W21237   5.434  14.087   0.795 -0.1017 -0.0468  0.1841
18018W        W21238   7.595  16.075  12.138  0.0734 -0.1083  0.2256
18019W        W21239  17.641  16.042  15.212 -0.2869  0.1664  0.0571
18020W        W21240   7.549  17.594   1.119  0.2869 -0.1408  0.1868
18021W        W21241  12.891  12.021   3.191 -0.0469  0.1075  0.3094
18022W        W21242   5.484   0.130   7.033  0.0549 -0.0797  0.3159
18023W        W21243  16.779  17.046  15.134  0.0137  0.0525  0.0350
18024W        W21244   2.791  15.356   5.045 -0.1395 -0.2366 -0.3131
18025W        W21245   6.337  18.267  16.527 -0.0603 -0.0338 -0.3101
18026W        W21246   7.529  14.918   4.155  0.1884  0.4110  0.1032
18027W        W21247   7.670  16.985  18.137  0.1175 -0.3746 -0.0174
18028W        W21248   9.071   0.307   0.431 -0.0561  0.1416  0.3431
18029W        W21249   1.143   0.519   5.595 -0.1307 -0.0940  0.2419
18030W        W21250   2.531   1.687  14.931 -0.1583  0.1771 -0.3173
18031W        W21251   6.506   9.111   2.404  0.0680  0.2226 -0.2653
18032W        W21252   4.775   1.124   3.721  0.0370  0.1147 -0.2073
18033W        W21253   7.779  17.408   4.053 -0.1662 -0.2101 -0.1214
18034W        W21254   7.848  15.201   4.489  0.2018 -0.1421 -0.1702
18035W        W21255   5.535  13.580   0.673  0.2435  0.0060 -0.1815
18036W        W21256   4.479  14.039  14.753  0.0645  0.0237 -0.0956
18037W        W21257   8.880  17.387  10.183  0.2300 -0.1018 -0.2619
18038W        W21258  10.491  17.661   1.350 -0.0291  0.1702 -0.3228
18039W        W21259   8.819  10.505   6.138  0.1676  0.2670  0.1631
18040W        W21260   8.739  14.814  14.447 -0.0710 -0.0115  0.0092
18041W        W21261  17.520  13.510   0.022 -0.1293 -0.1977  0.0502
18042W        W21262   8.686  14.583   1.834  0.0596  0.1284  0.1590
18043W        W21263   5.972  13.994  14.551  0.0749 -0.1256  0.2909
18044W        W21264   3.949   6.681   9.906 -0.3725  0.1095 -0.4866
18045W        W21265   4.674   3.463   3.524 -0.0766 -0.1350 -0.0165
18046W        W21266   6.302  17.766  12.801  0.0638  0.0014 -0.2147
18047W        W21267   4.171  12.198   4.596  0.1037  0.2867 -0.1165
18048W        W21268  11.398  13.329   5.488  0.0547 -0.4695  0.0361
18049W        W21269   6.005   2.576  11.323  0.0519 -0.0949  0.0571
18050W        W21270  12.784  13.868  14.766 -0.5193  0.0159 -0.2031
18051W        W21271   6.617   0.448   6.864 -0.3534 -0.1888 -0.0131
18052W        W21272  17.862  15.446  12.391 -0.5651 -0.4649  0.3238
18053W        W21273  12.934  14.678   0.848  0.0701 -0.1142 -0.0401
18054W        W21274   8.404  13.523   6.043  0.0159  0.5158 -0.0760
18055W        W21275   2.920   0.260   2.812  0.2689  0.0202 -0.1467
18056W        W21276  11.926  12.495  18.032 -0.1249 -0.2390  0.1033
18057W        W21277   4.007   2.350  16.389  0.2283 -0.2097  0.0809
18058W        W21278  10.898   1.792   0.965  0.1436 -0.1786  0.1120
18059W        W21279   1.631   0.490   2.978  0.2411 -0.4697  0.0609
18060W        W21280   5.941  17.861  15.195 -0.1748 -0.1652  0.2360
18061W        W21281   5.273   1.745   2.407 -0.2368  0.0941 -0.1178
18062W        W21282   7.511   1.937  13.011 -0.0421  0.0925 -0.1591
18063W        W21283   5.787  13.913   0.407 -0.2678 -0.0174  0.0789
18064W        W21284   3.890  11.875   3.629 -0.0824 -0.2053 -0.1489
18065W        W21285   3.055  15.538   6.104  0.0132 -0.0753 -0.1271
18066W        W21286  13.938   4.101  14.918  0.2711 -0.2193 -0.3051
18067W        W21287   0.397  12.924   3.273 -0.2174  0.1431  0.5162
18068W        W21288  18.048  10.100   9.346 -0.4142 -0.2102 -0.3028
18069W        W21289   7.561  16.581  10.844 -0.1276  0.2049 -0.1284
18070W        W21290  11.699  18.013   9.559 -0.0119 -0.1004 -0.0318
18071W        W21291  11.888  13.291   2.525 -0.0965 -0.3209  0.3245
18072W        W21292   2.237  15.528   5.245  0.2051  0.1707 -0.0464
18073W        W21293   5.693  13.455   4.880  0.4339 -0.2616 -0.0103
18074W        W21294   1.810  16.367   6.106  0.3490  0.1963 -0.3687
18075W        W21295   3.200  16.848  15.580 -0.0682 -0.0176  0.3561
18076W        W21296   6.346   0.121  12.922  0.0005  0.0696 -0.0805
18077W        W21297   2.805  13.973   0.265  0.0298 -0.1735 -0.1325
18078W        W21298   1.561   2.919  17.055 -0.3200  0.2729  0.0413
18079W        W21299   3.813   9.113  12.718  0.2294  0.0992  0.3038
18080W        W21300   0.802  11.682   1.766 -0.1663  0.2890  0.0698
18081W        W21301   4.196  13.692   6.694  0.2060 -0.0049  0.2135
18082W        W21302   2.489  16.304  14.682  0.0908  0.1657  0.3228
18083W        W21303   0.104  12.326   4.067 -0.2051 -0.1273 -0.0246
18084W        W21304   7.108  15.743   5.985 -0.0382 -0.1597  0.0691
18085W        W21305  11.622  12.492   0.455  0.0452  0.0281  0.1551
18086W        W21306   3.500  13.414   6.117 -0.0540  0.1303 -0.1086
18087W        W21307   2.889   0.801   1.705 -0.1747  0.1279 -0.0732
18088W        W21308   2.981   2.024  17.936 -0.1832 -0.0580 -0.0271
18089W        W21309   1.437  13.548   3.958  0.0305 -0.0383 -0.2010
18090W        W21310   5.296  17.511  13.508 -0.3517 -0.0772 -0.1096
18091W        W21311  15.535   0.093  16.466  0.4182  0.1773 -0.1485
18092W        W21312  16.065   0.313  17.448 -0.0443  0.2982  0.1620
18093W        W21313   8.948   2.601  16.988  0.1730 -0.1505  0.0032
18094W        W21314  12.569  16.381   1.931 -0.3054  0.1663  0.0682
18095W        W21315   7.381  16.079  14.149  0.0646  0.0889  0.2298
18096W        W21316   0.980   1.960   3.979  0.1123 -0.2273  0.1552
18097W        W21317   8.683  14.326   2.669 -0.0651 -0.1525 -0.0786
18098W        W21318   5.266  12.309   3.593  0.2831  0.2798  0.0077
18099W        W21319   3.787  10.267   5.245 -0.1919 -0.0770 -0.2321
18100W        W21320   3.439   0.714   1.776 -0.2309  0.0443  0.0880
18101W        W21321   9.453  14.309  17.257  0.4456 -0.2897  0.1666
18102W        W21322   1.841  12.518  17.787  0.1706 -0.1711 -0.1398
18103W        W21323   9.671  13.304  14.947  0.1093 -0.2299 -0.0936
18104W        W21324   4.274  16.878   4.650  0.2070  0.0143  0.3803
18105W        W21325   4.462   1.313   0.700 -0.1227 -0.1006 -0.0845
18106W        W21326   7.364  17.981   4.907 -0.0357 -0.0532 -0.1785
18107W        W21327   0.694  17.411   4.382  0.1657 -0.0691 -0.0289
18108W        W21328   6.683   2.565  15.789  0.1233  0.0920 -0.0252
18109W        W21329   9.928  14.210  17.160 -0.0274  0.1233 -0.1276
18110W        W21330   4.768  17.614  14.634  0.0676 -0.0679  0.1192
18111W        W21331   9.038  16.634   3.298  0.1266 -0.3826  0.1960
18112W        W21332   7.648   2.110  12.505  0.1640  0.1635 -0.0895
18113W        W21333   6.153   5.663   5.821 -0.1404 -0.1601  0.1064
18114W        W21334   0.771  13.438  11.762  0.0330  0.1205  0.0257
18115W        W21335   4.145   0.895  13.105 -0.4229 -0.1175 -0.1419
18116W        W21336   1.539  17.109  16.809 -0.3557  0.2882 -0.1026
18117W        W21337  11.453  14.116  17.107 -0.2700  0.0881  0.1805
18118W        W21338  10.473   7.333   1.917 -0.0724  0.0073 -0.5146
18119W        W21339   8.163   6.240   0.920 -0.1416 -0.0564  0.0500
18120W        W21340   1.201  17.931   9.363  0.2655  0.0801  0.0107
18121W        W21341   1.944  16.110  11.924 -0.0516  0.0758  0.0518
18122W        W21342   4.649   1.653   1.044 -0.3799 -0.2333  0.2669
18123W        W21343  13.090   5.910  11.042  0.4234  0.1320 -0.0725
18124W        W21344   3.860   0.465  13.142 -0.0347 -0.4006  0.1324
18125W        W21345   7.381  15.248   7.884 -0.3022 -0.2033  0.1012
18126W        W21346   6.998   3.088   1.838 -0.0161 -0.0268 -0.2817
18127W        W21347   8.489   0.044   5.151 -0.1148 -0.1683 -0.0849
18128W        W21348   4.861  12.135  17.194 -0.2831 -0.0234 -0.1674
18129W        W21349   2.688  12.624  17.118 -0.1746 -0.3835  0.2252
18130W        W21350  11.795   0.864  16.030  0.1659  0.0135 -0.3251
18131W        W21351   9.552   5.143  12.587 -0.2544 -0.1710 -0.2391
18132W        W21352   8.194  17.086  13.533 -0.0268  0.2714  0.0149
18133W        W21353   6.706  15.074   2.990  0.1417 -0.2944 -0.4044
18134W        W21354   2.534  10.760   3.593 -0.3826  0.1707 -0.1594
18135W        W21355   3.552  13.650  16.246  0.1400 -0.0327 -0.0885
18136W        W21356   5.941  14.971   9.353 -0.0093  0.0610  0.1607
18137W        W21357   3.113  17.332   2.007  0.0230  0.2068  0.0185
18138W        W21358   4.618   7.824  17.125  0.2295 -0.1471 -0.0766
18139W        W21359   7.190  16.002   1.245  0.0530 -0.1254 -0.2236
18140W        W21360   5.943   1.319  12.825  0.1635 -0.3544  0.3677
18141W        W21361   3.983   0.918   6.240  0.0305 -0.2482 -0.2264
18142W        W21362   4.323   4.733   6.981  0.1116  0.3149 -0.0576
18143W        W21363   8.510  18.033   2.984  0.1103 -0.0721  0.2421
18144W        W21364  17.974   2.284   1.571  0.1566  0.1691  0.0657
18145W        W21365   7.985  17.743   2.705  0.0644  0.1098 -0.0930
18146W        W21366   5.825   7.023   7.508 -0.0915 -0.0577  0.0331
18147W        W21367   8.916  13.460  14.067 -0.1874 -0.1726 -0.3686
18148W        W21368  16.428  15.707  15.147  0.1245 -0.0224 -0.0172
18149W        W21369   4.058  13.172  11.220  0.0994  0.0452 -0.1746
18150W        W21370  13.200  15.828  16.977 -0.2435  0.0091 -0.3279
18151W        W21371   1.107  14.395   2.270 -0.2601 -0.3406 -0.1445
18152W        W21372   5.981   1.696  12.407 -0.0170 -0.0367  0.0040
18153W        W21373   7.713  15.669   9.182  0.0130  0.1186 -0.2804
18154W        W21374   0.038  15.376   5.744  0.3236 -0.1899  0.1868
18155W        W21375   0.664  15.149   1.807  0.1764 -0.1509 -0.0125
18156W        W21376   5.085  14.269  11.519  0.0426  0.0033 -0.1254
18157W        W21377   3.633  15.931   6.631  0.0065  0.1958  0.2061
18158W        W21378   1.826   8.042   3.462 -0.0768 -0.1425  0.0146
18159W        W21379   9.629  12.437   6.388 -0.2406 -0.0138  0.2217
18160W        W21380   3.981  15.200   2.766  0.1675  0.0356  0.1829
18161W        W21381   4.434   0.456   9.096  0.2393  0.0213  0.1627
18162W        W21382   1.508   3.711   6.395  0.0651  0.1281 -0.3200
18163W        W21383   4.739  15.639   7.555 -0.0519  0.1840 -0.0728
18164W        W21384   0.750  16.516   4.445 -0.0706 -0.1531 -0.1742
18165W        W21385   2.857  15.134   2.214 -0.5495 -0.0631  0.2415
18166W        W21386   5.225   6.018   4.199  0.2648  0.0307 -0.3391
18167W        W21387   4.486  12.067   5.791  0.2207  0.0680 -0.2080
18168W        W21388   6.057  10.481   5.951  0.0229 -0.0421 -0.0614
18169W        W21389   0.344  16.745   9.281 -0.1101  0.1106  0.3774
18170W        W21390  18.266   3.661  14.104 -0.0260  0.2378  0.0570
18171W        W21391   3.654   0.704   6.969 -0.0053 -0.0215 -0.1092
18172W        W21392   7.181   4.433  10.828  0.0845  0.0335  0.1248
18173W        W21393   4.119  13.728   0.653 -0.0122  0.2225  0.2709
18174W        W21394   0.989  13.884   8.953  0.0915  0.2047  0.1405
18175W        W21395  14.973  17.823  18.006 -0.1216  0.0836 -0.1462
18176W        W21396  17.981  17.868   2.376  0.2222 -0.0466 -0.0703
18177W        W21397  14.135  15.007   4.859  0.0364 -0.1890 -0.0523
18178W        W21398   1.118  14.610   7.782 -0.1630 -0.3167 -0.1762
18179W        W21399   5.026   8.792   4.621 -0.0288 -0.4020 -0.0730
18180W        W21400   5.687   2.158  13.214 -0.0111  0.0936  0.3110
18181W        W21401   7.001  14.653   3.092 -0.1079 -0.1650  0.0151
18182W        W21402  15.357   0.624  16.538 -0.1433  0.1231  0.3041
18183W        W21403   6.955   6.435   2.952  0.1612 -0.1881  0.1594
18184W        W21404   8.010   0.072   3.201 -0.0300  0.0629  0.0545
18185W        W21405   5.415  16.365   5.687  0.1259 -0.0135 -0.0553
18186W        W21406   6.818   0.054   7.259 -0.1230  0.0328 -0.0855
18187W        W21407   5.050   6.596  14.004  0.0572  0.2691  0.1109
18188W        W21408   7.108  11.913   4.632  0.0189  0.0643 -0.1672
18189W        W21409   0.462  18.109  17.783 -0.1023  0.1530  0.0142
18190W        W21410  12.209   4.544   6.879 -0.1324  0.4999 -0.0305
18191W        W21411  13.879   4.343   4.488  0.0861 -0.0809 -0.1042
18192W        W21412   0.668  12.246   1.283  0.2235 -0.1896 -0.1645
18193W        W21413   3.621  16.457   3.764  0.0264  0.2577  0.1199
18194W        W21414   7.074   9.199   5.475  0.0694  0.3775 -0.0974
18195W        W21415   8.050   1.850  15.615 -0.3973  0.0144 -0.0897
18196W        W21416   5.813  15.487  16.208 -0.1688  0.1005 -0.1254
18197W        W21417   6.867   2.792  10.931 -0.1476 -0.0674  0.1824
18198W        W21418   7.292  17.392   4.569 -0.0165  0.1702  0.3326
18199W        W21419   1.864  12.754  12.007 -0.2183  0.1836 -0.0966
18200W        W21420   3.361   4.233   4.870 -0.2913 -0.0333 -0.0195
18201W        W21421   6.749  14.054  12.592 -0.0619 -0.1049 -0.2987
18202W        W21422   8.312   4.304   6.533  0.0567 -0.0635 -0.0765
18203W        W21423  17.830  11.775   7.270 -0.1426  0.0560 -0.2586
18204W        W21424   7.530   3.774   9.773 -0.2219 -0.0132 -0.1464
18205W        W21425   2.411  13.947   9.894 -0.2120  0.0007 -0.3229
18206W        W21426   5.261  15.362   3.380  0.1719 -0.2597 -0.4223
18207W        W21427   9.623  16.703   5.166  0.0437  0.3296 -0.0858
18208W        W21428   8.899  14.857   8.961 -0.2776  0.1269  0.0929
18209W        W21429  16.734  16.596   1.036 -0.2742  0.1462 -0.1051
18210W        W21430   6.935   3.567  13.461 -0.0765 -0.5346  0.4795
18211W        W21431  10.203  14.842   0.809 -0.0241 -0.2313 -0.1126
18212W        W21432   2.552   0.442   3.151 -0.3193 -0.0613 -0.0486
18213W        W21433   9.975  17.335  18.022  0.4144  0.1063  0.0040
18214W        W21434  18.005   9.085  16.597 -0.0838  0.1110 -0.0414
18215W        W21435   3.003  13.739   9.229 -0.1579  0.3455  0.3094
18216W        W21436   8.959  11.170   5.248  0.1748 -0.1320  0.0762
18217W        W21437  13.350  11.991   7.629 -0.0843  0.0563  0.1825
18218W        W21438   4.526  13.997   0.858  0.1238  0.0063  0.0348
18219W        W21439   5.621  18.010   0.934 -0.1084  0.0220  0.3072
18220W        W21440  18.052  12.776   5.895 -0.1946 -0.1719  0.1500
18221W        W21441   5.528  13.025  15.958  0.2587  0.0445  0.0827
18222W        W21442   4.379  10.566   5.215 -0.1110 -0.0665 -0.2142
18223W        W21443   5.849   9.380   2.598  0.0506 -0.3419 -0.2036
18224W        W21444   9.455  14.970   6.891  0.0752 -0.1631 -0.1912
18225W        W21445   5.272  10.671  12.774 -0.0522 -0.0626 -0.0241
18226W        W21446  17.199   0.290  13.580  0.0179 -0.2777 -0.1310
18227W        W21447  17.785  12.700  14.648 -0.0269  0.3325  0.0642
18228W        W21448  12.526   0.754   3.117 -0.1950 -0.0569 -0.0153
18229W        W21449   5.060   1.600   7.306 -0.3413  0.0619 -0.0815
18230W        W21450   2.665   7.854   9.923  0.0505  0.2450 -0.1415
18231W        W21451   5.930  17.999   6.273 -0.0455  0.1053 -0.0067
18232W        W21452   2.489   0.733  11.552 -0.1512  0.0660 -0.2203
18233W        W21453   9.162  12.842   5.142  0.1819  0.0633 -0.1400
18234W        W21454   5.318   6.977   2.898 -0.0391 -0.0137 -0.1040
18235W        W21455  15.972  11.797   6.457 -0.1052  0.2898 -0.0918
18236W        W21456  12.589   7.621   1.327  0.0034 -0.1161  0.0065
18237W        W21457  10.407  15.515   5.326  0.0586 -0.0039  0.2878
18238W        W21458  13.078   2.972   0.741  0.1927 -0.0313 -0.0895
18239W        W21459   5.235   2.831  18.227 -0.0548 -0.0071 -0.0710
18240W        W21460   9.268  14.136   0.264 -0.1277 -0.2450 -0.5617
18241W        W21461  13.509   2.047   6.877 -0.1195  0.0213 -0.1006
18242W        W21462  17.996   2.383   3.197 -0.1446  0.0305 -0.2874
18243W        W21463   3.642   1.002  10.470 -0.0299 -0.0488 -0.1721
18244W        W21464   7.863  17.001   1.243 -0.1630 -0.2501  0.2667
18245W        W21465   0.346  14.185   6.078  0.2700  0.0814  0.1509
18246W        W21466  12.361   0.776  13.073 -0.5087  0.0365  0.0799
18247W        W21467   8.136   1.193   5.344  0.2520 -0.3201 -0.0982
18248W        W21468   5.572   1.006   3.757 -0.1182 -0.4328 -0.2607
18249W        W21469   6.962  15.131   3.409  0.0379 -0.1580 -0.0260
18250W        W21470   8.251   7.481  17.931  0.0150  0.1055  0.2468
18251W        W21471  10.005  15.383  18.251 -0.0762 -0.0770 -0.1942
18252W        W21472   6.005   1.409   8.327 -0.1309  0.3971  0.1779
18253W        W21473   8.774  13.721   4.132  0.1135 -0.0508 -0.1383
18254W        W21474  10.141   9.478   0.289 -0.0054 -0.1003  0.0489
18255W        W21475  18.180  16.689   9.067 -0.2717 -0.2282 -0.0923
18256W        W21476   2.677  15.476   4.129  0.0812 -0.0498 -0.0377
18257W        W21477   7.633  14.426   5.928 -0.0380  0.3173 -0.0403
18258W        W21478   1.590  17.139  14.961  0.0784  0.1020 -0.1736
18259W        W21479  14.357   0.741  15.443 -0.2187  0.1086  0.1475
18260W        W21480   3.826  14.494   4.438 -0.0098 -0.3480  0.1869
18261W        W21481   6.569  11.078   0.474  0.1360 -0.0160 -0.0645
18262W        W21482   9.587   9.213   5.970 -0.2503 -0.0922  0.1441
18263W        W21483   1.876  12.794   6.196  0.1615 -0.3226 -0.1153
18264W        W21484  11.800   2.975   9.858  0.1482  0.1659  0.1975
18265W        W21485  10.140   0.340   3.194 -0.2105 -0.2120  0.4108
18266W        W21486   4.755   2.424   4.059  0.2841 -0.0756  0.4279
18267W        W21487   5.747   4.665   7.405  0.1576  0.4721  0.0242
18268W        W21488  13.373  15.420   0.949 -0.1112 -0.0427 -0.0940
18269W        W21489   8.708   0.628   1.327  0.0935 -0.0154  0.0110
18270W        W21490  10.888  15.431  18.196 -0.0165  0.1428  0.2211
18271W        W21491   0.330   0.007   0.881 -0.1038 -0.1419  0.0541
18272W        W21492  13.179   1.105   7.589  0.0313  0.3853  0.1782
18273W        W21493   3.444  13.583  12.782 -0.2240 -0.0430  0.0740
18274W        W21494   8.450   5.331   6.087  0.3675  0.0113  0.1052
18275W        W21495   8.572  16.147  16.601  0.0516  0.0573  0.3824
18276W        W21496   8.639  14.067  11.484 -0.1513  0.0535  0.0579
18277W        W21497   2.143   2.207   6.251  0.3793  0.1920  0.3300
18278W        W21498  14.407   0.918   2.800 -0.0986 -0.0665 -0.1009
18279W        W21499   1.849   0.775   6.114 -0.0326  0.2570  0.0751
18280W        W21500  13.165  13.867   2.715 -0.2012  0.0299 -0.0596
18281W        W21501  11.355  14.490  17.819 -0.1317 -0.0507 -0.1432
18282W        W21502   7.848  15.408   3.977 -0.3602  0.2496 -0.0769
18283W        W21503  17.107   0.177   3.756 -0.0038 -0.2054 -0.2927
18284W        W21504   7.095   1.764  14.895  0.0202  0.1625 -0.1972
18285W        W21505   7.136   0.728   8.913 -0.1004  0.0746 -0.0644
18286W        W21506  12.470  16.251   3.032 -0.0666 -0.1644  0.4227
18287W        W21507   6.621  17.520   5.992  0.1168  0.0114 -0.0616
18288W        W21508   1.922  18.009   5.722  0.2654  0.0625  0.2487
18289W        W21509   4.021  10.082  11.505 -0.3121 -0.0460  0.1332
18290W        W21510   3.064   5.000   4.914  0.1911  0.0263 -0.3122
18291W        W21511   4.257   2.204   9.248  0.2244  0.0830 -0.0697
18292W        W21512   4.231  15.184   2.249  0.2109 -0.2025 -0.1674
18293W        W21513   4.116   0.302  17.588  0.2576 -0.3784 -0.0439
18294W        W21514   6.961  16.744   4.837  0.0858  0.1171  0.0289
18295W        W21515   9.761  14.090   5.593 -0.0173  0.0605  0.0185
18296W        W21516   6.458   0.376   5.109 -0.2167 -0.2294  0.0174
18297W        W21517  10.452   3.043   5.267 -0.2022 -0.1206  0.1157
18298W        W21518   4.555   1.671   4.815 -0.0027  0.0607 -0.0131
18299W        W21519   1.429   7.507  12.511  0.4710 -0.0304  0.0892
18300W        W21520   4.861  11.100  10.133  0.2943  0.1266 -0.4466
18301W        W21521  10.050  18.084   0.992 -0.2312 -0.0480  0.1490
18302W        W21522   1.305   1.645   7.161 -0.0385  0.1279 -0.0695
18303W        W21523   0.113  10.407   7.570 -0.0020 -0.1995 -0.1494
18304W        W21524   2.661  17.500   2.753 -0.1249 -0.2468  0.0284
18305W        W21525   9.232  17.247   8.856  0.0257 -0.3050  0.0169
18306W        W21526   2.903  18.139   6.542  0.1147 -0.2672 -0.0129
18307W        W21527  11.856  15.916   3.424 -0.2863 -0.2886  0.1915
18308W        W21528   5.931  10.427   7.306  0.1049 -0.1459  0.2074
18309W        W21529   5.296  15.909   3.410 -0.1049  0.0155 -0.1399
18310W        W21530   6.990  16.683   4.055  0.2524 -0.4112  0.0976
18311W        W21531   3.082  14.460  10.537  0.2099 -0.0245 -0.1698
18312W        W21532   5.618  17.378  15.999 -0.0726  0.0145  0.0390
18313W        W21533   6.827   0.537   9.928 -0.0495 -0.2146 -0.2005
18314W        W21534   9.193  13.052   1.690 -0.1788 -0.0654 -0.3026
18315W        W21535   4.396  13.007  16.048  0.2759  0.2163  0.0163
18316W        W21536  16.143  15.917  15.535 -0.0041 -0.1958 -0.0795
18317W        W21537   2.490   5.611   3.849 -0.1304  0.1773 -0.0623
18318W        W21538   7.851  14.045  10.736  0.0563  0.4492 -0.1594
18319W        W21539   7.304   3.769  12.011 -0.0115  0.0475  0.0876
18320W        W21540   4.701   0.778  10.340 -0.1383  0.0269  0.0141
18321W        W21541   9.218  14.540   6.582  0.2346  0.1102 -0.0835
18322W        W21542   3.434   4.227   5.951  0.0038 -0.1872 -0.0405
18323W        W21543   3.481  18.192   1.316 -0.0078 -0.0185  0.1139
18324W        W21544   4.702  16.725   1.747  0.1363  0.0250  0.2170
18325W        W21545   3.326   2.062   4.350  0.0448  0.1565 -0.1367
18326W        W21546   5.617  13.646  17.384 -0.1069  0.1806 -0.0976
18327W        W21547   5.436  14.727   2.735  0.2430  0.1638 -0.1904
18328W        W21548   2.942   1.858   6.535 -0.0335  0.1831 -0.2417
18329W        W21549  15.642  12.522   5.343  0.1247  0.1465 -0.2614
18330W        W21550   4.310  17.633  14.883  0.0776 -0.4132  0.0488
18331W        W21551  12.961   1.892  12.016 -0.0536 -0.0100  0.0608
18332W        W21552  17.087   8.906   4.156  0.1447 -0.0522 -0.5065
18333W        W21553  13.258   6.180   9.723 -0.1951 -0.0145  0.2574
18334W        W21554   3.021  14.085  11.213 -0.0334  0.0782 -0.2581
18335W        W21555   0.570  13.525   1.197  0.2602 -0.0514  0.0694
18336W        W21556  15.629   4.156   9.866 -0.2500 -0.0674  0.4707
18337W        W21557   4.699  14.499  17.853 -0.2189 -0.1665  0.0106
18338W        W21558   6.328   0.155   0.885 -0.3506 -0.3123 -0.1644
18339W        W21559  17.276  15.996   7.059  0.1050 -0.0871  0.0250
18340W        W21560   0.441  16.141   5.869 -0.1285 -0.0116  0.2645
18341W        W21561   3.690  15.343  10.169  0.1243  0.1753  0.1211
18342W        W21562   0.979   0.685   6.083 -0.0771  0.0248 -0.0643
18343W        W21563   5.865   2.194  17.922  0.2356  0.0911 -0.1123
18344W        W21564   4.783  11.974   6.201  0.4072 -0.0053  0.1043
18345W        W21565   9.244  17.221   5.803  0.0043  0.2120  0.0921
18346W        W21566   7.977   0.674   7.008  0.2057 -0.0823  0.1584
18347W        W21567   2.974   3.655   5.313 -0.0561  0.2480 -0.1629
18348W        W21568   7.864  15.616  17.636  0.1561 -0.3000 -0.3355
18349W        W21569  10.916  14.259  16.886  0.1700  0.2936 -0.0011
18350W        W21570   6.788   1.397   0.609 -0.1054 -0.1702 -0.0299
18351W        W21571  18.154   0.820   7.796 -0.1979  0.1533  0.0236
18352W        W21572   5.303   8.110   0.542 -0.3703  0.0524 -0.0556
18353W        W21573  10.000  12.350   6.930 -0.0687 -0.2613 -0.1695
18354W        W21574  12.182   7.541   9.477  0.1033  0.0068  0.0867
18355W        W21575   6.175  14.113   2.509 -0.0326  0.0756  0.1350
18356W        W21576  11.161   8.462  18.184  0.0690  0.2564 -0.2614
18357W        W21577  16.633  13.444  10.668 -0.1077  0.0360 -0.1493
18358W        W21578   8.977  12.269   6.095  0.0689  0.0351  0.1451
18359W        W21579  15.937   2.069   4.311  0.2240 -0.3155  0.2231
18360W        W21580   7.649  17.021   7.252  0.0252 -0.0799 -0.1133
18361W        W21581  17.497  15.319   5.231 -0.1131 -0.2547  0.0574
18362W        W21582  10.433  11.916   4.509 -0.3017  0.1376 -0.1345
18363W        W21583   4.875   1.080   3.155 -0.1082  0.3090  0.3019
18364W        W21584   4.781   0.378   1.002 -0.2552 -0.2331 -0.1806
18365W        W21585   2.022   9.727   5.607 -0.0496 -0.0634  0.0213
18366W        W21586  15.437   1.034   6.138 -0.1701  0.2521  0.0980
18367W        W21587  17.677  17.007   6.159 -0.1782 -0.2768  0.2181
18368W        W21588  17.699   2.918   8.956 -0.1529 -0.1451  0.0910
18369W        W21589   9.223   5.338  13.825  0.0458 -0.1327 -0.3163
18370W        W21590   8.821   0.011   6.652  0.0560 -0.1882 -0.1763
18371W        W21591   4.978   1.836  17.878 -0.0320 -0.1802  0.2424
18372W        W21592  16.504   5.979  10.933 -0.3064  0.3348  0.1048
18373W        W21593   7.011  14.896   6.303 -0.0527  0.0218  0.0155
18374W        W21594   4.172  12.203   3.189  0.0375  0.0347  0.0251
18375W        W21595   7.323  12.940  18.157 -0.1245 -0.0483 -0.0879
18376W        W21596   6.039   0.985   8.107  0.1585 -0.1200 -0.1736
18377W        W21597   5.850  11.601   1.468  0.0476  0.2969  0.0249
18378W        W21598   9.630  12.835   1.371 -0.2654  0.0622  0.2219
18379W        W21599   7.254   0.950   0.058  0.0751  0.3345  0.2029
18380W        W21600   2.491  16.883   0.734  0.0384  0.1341 -0.0639
18381W        W21601   6.930   0.680   3.535  0.1871  0.4245  0.1792
18382W        W21602  10.643  17.547  11.606  0.1180  0.1967 -0.2404
18383W        W21603   3.650  18.218   8.603  0.0185  0.0331  0.0685
18384W        W21604   6.340  13.719   5.636 -0.2107 -0.1476 -0.0120
18385W        W21605  17.387   2.852  13.850 -0.2997  0.1514 -0.1103
18386W        W21606  10.799  14.278   7.711 -0.3433  0.2981  0.0058
18387W        W21607   4.630   0.346  17.766 -0.1844 -0.0430  0.0191
18388W        W21608   2.096   8.966   3.311 -0.3920  0.0025 -0.1499
18389W        W21609   8.404   0.310   8.173 -0.3177  0.2099  0.0488
18390W        W21610   7.207  11.268   2.115  0.2552  0.1781  0.4008
18391W        W21611   3.246  14.208   3.494  0.0907  0.3774  0.0533
18392W        W21612   7.915  11.783   7.246 -0.0264  0.1215 -0.1237
18393W        W21613   4.553   6.889  17.951  0.0031 -0.0380 -0.1097
18394W        W21614   8.059  10.698   9.846  0.0936 -0.0457  0.0063
18395W        W21615   2.043   1.133   2.022 -0.1192 -0.0343 -0.1786
18396W        W21616   3.253   0.196  14.839  0.1351  0.0301 -0.0397
18397W        W21617   4.824   2.771  17.261  0.0205  0.0777 -0.0243
18398W        W21618   4.150  13.533   9.995 -0.2083 -0.0954 -0.0215
18399W        W21619  11.740   1.972  12.890  0.1527  0.0402 -0.2201
18400W        W21620  14.325   3.098  10.561 -0.3604 -0.1434  0.0539
18401W        W21621  14.416   7.407   4.728 -0.0468  0.3411 -0.0787
18402W        W21622   4.360  17.498  10.416 -0.0281  0.0711  0.1615
18403W        W21623   8.927  16.269   1.492 -0.1164  0.1071 -0.1940
18404W        W21624   6.485  11.867   5.918  0.2700 -0.0214 -0.0435
18405W        W21625   7.288  10.160  15.446 -0.0200 -0.0360  0.0295
18406W        W21626   1.383   3.376   9.540 -0.5100 -0.0133 -0.3566
18407W        W21627   3.704   0.928  18.110 -0.0855  0.1135  0.0642
18408W        W21628   2.708   4.906   2.090 -0.0724  0.2396  0.1344
18409W        W21629   5.486  10.040   5.268 -0.2343  0.0916  0.1118
18410W        W21630   9.461   1.011   3.542 -0.2166 -0.2146  0.0543
18411W        W21631   7.507  18.201   4.421 -0.3143 -0.1033  0.1041
18412W        W21632   6.041  17.156   7.447  0.1025 -0.2052 -0.0773
18413W        W21633   9.417  15.082   2.508 -0.0300 -0.0648 -0.2232
18414W        W21634  11.630  17.049   7.019 -0.1764 -0.1247  0.2075
18415W        W21635   4.056  13.132   2.972 -0.1754  0.1724  0.0347
18416W        W21636   5.114  17.134   4.206  0.3167 -0.0747 -0.2477
18417W        W21637   8.030   0.016   1.306  0.1950  0.0759 -0.2451
18418W        W21638   3.255  13.601   9.697 -0.0153  0.1255 -0.0015
18419W        W21639   9.442  15.722  10.824  0.1387  0.0148 -0.0470
18420W        W21640   2.545   0.989  16.682  0.4741 -0.2287  0.2808
18421W        W21641   2.735  15.254   1.729 -0.0675  0.0487  0.0270
18422W        W21642   6.006  16.735   1.324 -0.0280 -0.0297 -0.0263
18423W        W21643   2.235  16.455   0.844  0.1363  0.2582 -0.0945
18424W        W21644   2.208   3.233   4.932  0.1368  0.0877 -0.4158
18425W        W21645   8.638  12.831   0.702 -0.2951  0.0232 -0.0971
18426W        W21646   0.638  12.418   7.084 -0.0635 -0.0161  0.4733
18427W        W21647  10.785  15.801  17.858 -0.0943 -0.0247  0.2641
18428W        W21648   2.298  14.627  11.466 -0.2791 -0.1592 -0.0682
18429W        W21649  11.266   0.693  13.671 -0.1543  0.1530  0.0383
18430W        W21650   6.333  14.063   8.778 -0.0848 -0.2008 -0.1674
18431W        W21651  12.239   5.819  14.874 -0.0890  0.2951 -0.0874
18432W        W21652   5.332   2.799   3.243  0.2011 -0.0152 -0.0882
18433W        W21653   7.511  18.125  10.892  0.0708 -0.1105 -0.0264
18434W        W21654   6.134  15.632   7.499  0.3436  0.0833  0.0040
18435W        W21655  18.103  18.016   2.836 -0.0353  0.0367  0.0090
18436W        W21656  10.241  14.078   5.230 -0.1980 -0.0905 -0.0093
18437W        W21657   4.357   1.249  10.439  0.0656  0.1028  0.0024
18438W        W21658   9.637  11.101   5.433  0.0316  0.2876  0.1350
18439W        W21659   3.863  18.259  17.815  0.2269  0.1049  0.3534
18440W        W21660  14.224  17.751   2.729 -0.0764  0.0296 -0.1473
18441W        W21661   3.383  16.248   4.878  0.1163 -0.3141 -0.0794
18442W        W21662   4.190  12.411   1.164  0.4200 -0.4099  0.1005
18443W        W21663   1.203  16.467  12.511 -0.0223 -0.0213  0.2342
18444W        W21664   7.575   0.362  17.079  0.1093 -0.1307 -0.0316
18445W        W21665   5.412  16.695   3.682 -0.2025  0.1194  0.1514
18446W        W21666  10.409  16.343   8.949 -0.1470 -0.0950  0.4406
18447W        W21667   0.247   1.750   2.214  0.0648 -0.0726  0.3583
18448W        W21668   6.889  15.881   5.013  0.0979  0.0356  0.1202
18449W        W21669   0.976   1.646   7.595  0.2475 -0.0052  0.3649
18450W        W21670  18.023  17.367   5.095  0.0800  0.0958  0.2260
18451W        W21671   2.696   0.705   6.582 -0.1184 -0.0140 -0.2968
18452W        W21672  15.695   8.867   5.358  0.2418 -0.2760  0.0803
18453W        W21673   6.190  14.642  10.727  0.1436 -0.1270 -0.1809
18454W        W21674   5.874  15.624   8.048  0.0776 -0.0530  0.1397
18455W        W21675   4.679  11.910   8.731  0.0204 -0.0039  0.0816
18456W        W21676  14.634   7.453   9.128 -0.0627 -0.0502 -0.0839
18457W        W21677   8.152  17.739   3.933  0.2439 -0.3186  0.0855
18458W        W21678   1.110  17.173   4.184 -0.1130 -0.2105  0.0320
18459W        W21679  13.387   9.715  10.647 -0.0166  0.0594 -0.1657
18460W        W21680  11.668  16.554  11.161  0.1645 -0.0620  0.1636
18461W        W21681   3.271  17.215  12.003  0.1149  0.0643 -0.2027
18462W        W21682   3.574  14.337   6.633  0.1762 -0.0335 -0.4584
18463W        W21683   6.889   1.142   1.620 -0.3078  0.1090 -0.2365
18464W        W21684  12.557   9.936   5.367 -0.0563  0.0380  0.2135
18465W        W21685  12.420  11.929   1.313  0.0370 -0.1509  0.1640
18466W        W21686   7.135   5.060   3.729  0.0525  0.1947 -0.0466
18467W        W21687   0.658  10.607   0.575 -0.0097 -0.2077  0.0498
18468W        W21688  14.110  12.805  18.055  0.0930 -0.1630  0.2307
18469W        W21689   7.693  17.316   5.634  0.0613  0.2427 -0.2452
18470W        W21690   6.153  15.318  14.388 -0.1654  0.1233 -0.2967
18471W        W21691   5.265   8.325   6.508 -0.0115 -0.1403  0.0677
18472W        W21692   2.538   1.123  13.096  0.1595  0.3931 -0.1935
18473W        W21693   4.012   0.008   1.364 -0.1455 -0.0130  0.1559
18474W        W21694   4.269   5.387   0.795 -0.1863  0.0186  0.1776
18475W        W21695   7.570   3.126   9.242 -0.0646 -0.0910 -0.1545
18476W        W21696   7.796  17.839   6.563 -0.1157  0.2318 -0.1651
18477W        W21697   7.689   1.732   4.172 -0.0769 -0.0262  0.0830
18478W        W21698   5.621   0.129   4.396 -0.0417 -0.0630  0.0475
18479W        W21699   6.359  18.087  17.456 -0.3216 -0.1307 -0.0133
18480W        W21700   3.694  14.451   0.130  0.1247 -0.0904  0.1131
18481W        W21701  16.994  13.726   7.273 -0.0431  0.1077  0.2459
18482W        W21702   4.412   0.180   5.669 -0.2028  0.3125 -0.0091
18483W        W21703   5.037   9.487  12.699  0.3663  0.0201 -0.3685
18484W        W21704  14.612  12.449   5.061 -0.1624  0.0073 -0.1094
18485W        W21705   3.199  10.502   4.823 -0.1356 -0.0849  0.1360
18486W        W21706   9.408  13.893  12.198  0.0885  0.1744 -0.0168
18487W        W21707  17.247   2.668   7.761 -0.2200  0.1216 -0.0889
18488W        W21708   3.858   8.129   4.148 -0.0188 -0.0434 -0.0050
18489W        W21709  11.978  15.433   4.851  0.0736 -0.1142  0.0118
18490W        W21710   7.423  15.525   8.768  0.4724  0.2120 -0.0268
18491W        W21711   7.345  17.804   6.869  0.1168 -0.0174  0.3081
18492W        W21712   1.150   5.353   5.954 -0.0286  0.3203  0.1210
18493W        W21713  11.168  14.053   7.976  0.1334  0.0280  0.2280
18494W        W21714   5.346  12.185  17.312  0.1352 -0.0625  0.0760
18495W        W21715   6.553  12.857   7.326  0.0947 -0.4652 -0.3225
18496W        W21716   7.541   3.173   1.823 -0.0673 -0.1250 -0.1904
18497W        W21717  11.685   0.099   3.274 -0.0337 -0.0210  0.1456
18498W        W21718   5.693  17.433   8.434 -0.0520 -0.0293 -0.2710
18499W        W21719  13.683  12.622   4.652 -0.3561 -0.0987 -0.1798
18500W        W21720   4.517  11.159   8.902 -0.2280 -0.0109 -0.2346
18501W        W21721   7.674  12.837  10.118 -0.0872  0.1265 -0.2083
18502W        W21722   2.897  14.142   4.492 -0.0042  0.0865 -0.0339
18503W        W21723   5.140   1.950   8.700  0.2834 -0.2789  0.2022
18504W        W21724   7.581   0.240  13.499 -0.3485  0.2190 -0.0738
18505W        W21725  17.798  17.221   2.125 -0.2555  0.0433 -0.0479
18506W        W21726  15.415  17.705  11.458 -0.0262  0.3300 -0.0635
18507W        W21727   8.925   6.167   2.567  0.2125  0.1023  0.2096
18508W        W21728  11.139  14.734   0.896  0.1307  0.1361  0.1274
18509W        W21729   5.095   5.117  15.995  0.0750 -0.1203  0.0454
18510W        W21730  10.922   1.089   0.400  0.2205  0.1953 -0.2314
18511W        W21731  12.389  17.555  14.556  0.1281  0.0636  0.4209
18512W        W21732   6.122  13.317   5.764  0.0240  0.1326  0.2309
18513W        W21733   4.019   0.261   6.837  0.0064 -0.0169 -0.3426
18514W        W21734   9.540  16.018   3.300 -0.1615  0.2540 -0.0092
18515W        W21735  14.816   3.211  10.266 -0.0636  0.0099  0.1106
18516W        W21736   3.434  13.890   5.745 -0.0722 -0.2438  0.2312
18517W        W21737   4.470   3.062   7.152  0.1923 -0.0363 -0.2500
18518W        W21738   0.061  16.999   4.345  0.0106  0.3061 -0.0178
18519W        W21739   3.842  11.258   9.904 -0.1868  0.0789 -0.0209
18520W        W21740   8.760   9.851   6.029  0.2080  0.3974 -0.0132
18521W        W21741   6.737  16.007   0.118 -0.1373  0.1697  0.0799
18522W        W21742   7.609  12.943   6.113 -0.2437  0.0446 -0.0660
18523W        W21743   0.519  12.453   5.905  0.0393  0.0833  0.2076
18524W        W21744  16.875   0.536   1.045 -0.2528  0.0687  0.0293
18525W        W21745   6.217   7.092  11.898 -0.3792 -0.2283  0.1233
18526W        W21746   2.962  14.801   7.484  0.0024  0.3354  0.1535
18527W        W21747   6.729   1.837   7.904 -0.0074  0.1005 -0.1388
18528W        W21748   0.563  14.451  17.204  0.0459  0.1505  0.4200
18529W        W21749   1.331  15.924   5.893 -0.0842 -0.0112 -0.1665
18530W        W21750   9.205  16.207  12.239  0.0237 -0.0811 -0.0942
18531W        W21751   3.379  14.573   4.654 -0.0023 -0.2202 -0.2447
18532W        W21752   4.872  16.244   7.256 -0.1656 -0.1209 -0.3103
18533W        W21753   4.397  15.522   3.584  0.1306 -0.2045  0.0262
18534W        W21754  15.735  13.020  12.495 -0.2337  0.3416  0.1076
18535W        W21755  14.115  14.266  13.855  0.2320 -0.1286  0.2266
18536W        W21756   5.432  13.392  11.230 -0.0649 -0.4016  0.2610
18537W        W21757   9.136  17.250  10.688 -0.0552  0.0881 -0.0328
18538W        W21758   9.366  18.227   2.024  0.0137 -0.0747  0.0287
18539W        W21759   2.475  13.181   1.430  0.0685  0.3920  0.2147
18540W        W21760   6.303   2.285  10.052 -0.4753  0.0389 -0.2021
18541W        W21761   4.071   0.806   8.834 -0.0567 -0.2179  0.0078
18542W        W21762   4.980   7.150  14.164 -0.3154  0.2175  0.1079
18543W        W21763   5.427   1.600  15.742  0.1937  0.0990  0.0718
18544W        W21764   9.449   8.316  11.605 -0.0672 -0.0953  0.1123
18545W        W21765   9.549   7.072   9.998  0.1028 -0.0418 -0.1924
18546W        W21766   9.652   1.294  17.661  0.0881 -0.1740  0.0338
18547W        W21767  16.909  17.631   4.934  0.4065 -0.2065  0.2455
18548W        W21768   9.635  18.199   7.871  0.2361  0.1164 -0.4842
18549W        W21769   8.938  16.101  15.597  0.1612  0.1175 -0.1704
18550W        W21770   4.982   1.161  12.437  0.0958 -0.0957 -0.3508
18551W        W21771   3.497   0.199   8.143  0.4686 -0.0409  0.0560
18552W        W21772   5.282   4.504   5.377 -0.1274  0.2864 -0.0335
18553W        W21773   9.992   0.457   9.420 -0.0461 -0.0766  0.0821
18554W        W21774  10.863   0.481   5.982  0.2508 -0.1382  0.0142
18555W        W21775   7.347  17.033  17.017 -0.3049 -0.0781 -0.1505
18556W        W21776   9.928  11.381  14.918  0.0338  0.0654  0.2438
18557W        W21777   0.341   0.552  14.370  0.0373  0.0231  0.1089
18558W        W21778  11.701  12.247   8.234  0.2515 -0.0949  0.1395
18559W        W21779   4.739  14.774  14.661  0.1042  0.1375 -0.0328
18560W        W21780   1.152  14.420  11.661  0.2014 -0.0149  0.0920
18561W        W21781   4.338  16.961   4.147 -0.0794 -0.3058 -0.1451
18562W        W21782  13.536   0.166  12.027 -0.0539  0.2620  0.1890
18563W        W21783   6.720  15.738   1.921  0.1173 -0.0037 -0.1694
18564W        W21784   1.670  17.276  10.324 -0.2146  0.0104 -0.0138
18565W        W21785  13.411   0.278   8.849  0.0243  0.0586  0.1410
18566W        W21786   1.659  10.104   7.843  0.0763  0.0064  0.0292
18567W        W21787   8.963  12.401   2.458 -0.0587  0.1770  0.0589
18568W        W21788   2.568   2.932  11.308  0.1563  0.1682 -0.1079
18569W        W21789   5.211  13.887  11.169  0.2457 -0.1644 -0.1757
18570W        W21790  11.206   4.761   4.661  0.0906  0.1514  0.0949
18571W        W21791  15.009  11.338   3.708 -0.0559 -0.1006 -0.0382
18572W        W21792   3.192  13.114   5.196  0.2756 -0.1194  0.0193
18573W        W21793   2.789  14.900   9.796  0.2447  0.1147 -0.1662
18574W        W21794   2.575  17.089  12.668 -0.1544  0.1328  0.2809
18575W        W21795   2.906  10.013   7.791  0.1662  0.2337 -0.0494
18576W        W21796   5.522   0.609  10.614  0.1437  0.1042 -0.0540
18577W        W21797   3.219  10.774   7.381  0.0614 -0.1091 -0.0629
18578W        W21798   3.582   2.497   2.433  0.2705  0.2747 -0.2443
18579W        W21799   8.376   6.677   7.021  0.2757  0.0279  0.2490
18580W        W21800  17.569  16.090   1.106  0.0196 -0.0093  0.0321
18581W        W21801   0.189   1.711  18.167 -0.0622 -0.0576  0.1156
18582W        W21802   4.047  14.125   7.294  0.0397  0.5714 -0.0863
18583W        W21803   5.276   9.382  10.351  0.0966  0.1570 -0.2807
18584W        W21804  18.265  14.812  10.495 -0.0487  0.0793 -0.0381
18585W        W21805   8.056   7.500  11.945 -0.2454  0.2965  0.0326
18586W        W21806   0.636   5.175   3.232 -0.0141  0.0122 -0.1929
18587W        W21807   3.390   0.218   9.978 -0.0129 -0.2138  0.0838
18588W        W21808   2.341  18.149  12.651  0.1870  0.0460 -0.0708
18589W        W21809   8.897  16.979   9.173 -0.2087 -0.0875  0.0896
18590W        W21810  17.519   0.428   6.520 -0.2146 -0.0352  0.0507
18591W        W21811   4.753  17.996   8.434 -0.3487 -0.2037 -0.0713
18592W        W21812   6.593   1.589  10.578 -0.0324 -0.1662  0.0828
18593W        W21813   5.534   2.284  11.661 -0.0767 -0.0924  0.0662
18594W        W21814   7.652   2.963  12.422  0.1048 -0.1925  0.2614
18595W        W21815   4.902  14.256   7.648  0.2800 -0.2082  0.1589
18596W        W21816   2.917   2.049   8.594  0.0014  0.4101  0.0415
18597W        W21817   9.979   0.230   7.273 -0.0699  0.0493 -0.2959
18598W        W21818   1.288   2.775  11.624 -0.1629 -0.0425 -0.2883
18599W        W21819   2.048   2.805   8.883 -0.1230 -0.0870 -0.0283
18600W        W21820   8.433   2.036  10.914 -0.1522  0.0780 -0.0203
18601W        W21821   7.354   1.076  11.813 -0.0893 -0.1955 -0.2834
18602W        W21822   9.077   7.738   8.932  0.1772 -0.1344  0.0661
18603W        W21823   1.332  13.541   8.071 -0.1854 -0.1423  0.3571
18604W        W21824  13.898  17.476  10.974  0.0220  0.3036 -0.1002
18605W        W21825   6.554  18.110  11.115 -0.2222 -0.0574 -0.1191
18606W        W21826   2.170  10.283   3.503  0.0289 -0.0116  0.0853
18607W        W21827   2.521   1.565  10.543  0.3586 -0.1636  0.1522
18608W        W21828   7.821  12.325   8.899 -0.0838  0.0121 -0.1701
18609W        W21829   0.235  16.737  18.001  0.1567  0.0419  0.1707
18610W        W21830   8.688  16.221  12.369 -0.0253  0.0825  0.2177
18611W        W21831   7.969  16.479  10.420  0.1715 -0.1661  0.0805
18612W        W21832   8.320   6.388   1.745 -0.1141  0.3401  0.0212
18613W        W21833  16.011  15.368   6.332 -0.1113  0.1197 -0.0521
18614W        W21834   4.883  18.082  10.698  0.1509  0.1082 -0.2092
18615W        W21835  15.250   0.169   8.872  0.1828 -0.0656  0.2978
18616W        W21836   2.907  17.681  15.967  0.0756 -0.1247  0.0686
18617W        W21837   0.336  12.289   9.404 -0.5604 -0.1254  0.2027
18618W        W21838   0.145   0.647  11.668  0.0748 -0.0722  0.3477
18619W        W21839   3.332  17.650  12.318 -0.1416  0.4675 -0.1779
18620W        W21840  17.579  12.954   6.019  0.1941 -0.1019 -0.0767
18621W        W21841  17.977  16.581   9.604 -0.1089 -0.2959  0.1841
18622W        W21842   1.663  12.209   9.977 -0.0559 -0.1726 -0.2597
18623W        W21843   4.379   0.052  10.805  0.3038 -0.0345  0.1961
18624W        W21844   4.832  16.621   5.401 -0.1319  0.0278 -0.3648
18625W        W21845   1.718   9.853   7.335 -0.3189  0.1815 -0.1512
18626W        W21846  17.950  10.725  12.018 -0.1740  0.1523  0.2468
18627W        W21847  11.336  14.168   6.519  0.0858 -0.0831 -0.0625
18628W        W21848   7.457   3.405  12.533 -0.2001  0.0909 -0.1310
18629W        W21849   6.503   5.478   4.018 -0.0784 -0.0365 -0.0492
18630W        W21850   3.218  18.204  11.397  0.1637  0.2709  0.1531
18631W        W21851   5.671   4.232  11.413  0.1991 -0.3205 -0.2996
18632W        W21852  13.785   9.268   7.136 -0.0863  0.4855  0.3671
18633W        W21853  15.012  17.891   6.833 -0.0722  0.1177 -0.2195
18634W        W21854   3.451  11.981  15.995 -0.1368 -0.2261  0.0133
18635W        W21855   6.904   0.106  12.886 -0.2486  0.3210  0.0685
18636W        W21856   4.255  16.165   9.032 -0.1549  0.2299  0.0826
18637W        W21857   7.365  13.743  17.644  0.0811  0.3221 -0.1261
18638W        W21858  12.351   8.794   9.181  0.0971 -0.2103 -0.0681
18639W        W21859   4.057  15.545  12.192  0.0857 -0.0066  0.1966
18640W        W21860   1.166   5.825  14.623  0.0533 -0.0026  0.1623
18641W        W21861   1.392  15.014   9.901 -0.1338 -0.2298 -0.1536
18642W        W21862   1.170  12.017  10.018 -0.1674  0.2170  0.0672
18643W        W21863  16.337  18.251   3.098  0.1085 -0.3585  0.0552
18644W        W21864   9.106  16.049   8.755  0.0797  0.2010 -0.1731
18645W        W21865   7.422   3.786  14.282 -0.0276 -0.3250  0.3223
18646W        W21866   8.554  11.283   5.507  0.2645  0.0965  0.2641
18647W        W21867  11.145  14.799  10.528  0.0024  0.0790 -0.1924
18648W        W21868  14.340   2.237   9.416 -0.0251 -0.3226  0.3350
18649W        W21869   2.987  17.672   6.672 -0.2513 -0.0645  0.2754
18650W        W21870   3.717   0.349  15.033 -0.1429 -0.1971 -0.0015
18651W        W21871   9.720   2.312   9.669  0.1674  0.1153 -0.1118
18652W        W21872  10.273   2.432   7.556 -0.2078  0.1191  0.0599
18653W        W21873  11.600   6.636   3.376  0.0872  0.0545  0.1327
18654W        W21874   5.443  16.167  12.873 -0.1808 -0.0469 -0.4979
18655W        W21875   5.148  16.010   7.725  0.1531  0.2569 -0.1067
18656W        W21876   6.917  12.506   8.370 -0.1232  0.0686 -0.0556
18657W        W21877   6.999   0.737  12.083 -0.0444 -0.2475  0.0587
18658W        W21878   9.477  16.921   7.955 -0.0172 -0.0333  0.0636
18659W        W21879   3.313  11.983  10.511  0.0211  0.1143 -0.0314
18660W        W21880   8.528  14.106   3.901 -0.0298 -0.2021 -0.0033
18661W        W21881  10.765  14.942   6.154 -0.0091  0.2947 -0.1487
18662W        W21882   5.016  18.156   9.321 -0.2412 -0.2988 -0.2791
18663W        W21883  14.029   1.931  14.688  0.0809 -0.5787  0.1247
18664W        W21884   2.020   4.798  14.549 -0.2118 -0.2701  0.1527
18665W        W21885   3.112  15.656   9.272 -0.0209 -0.1708 -0.1051
18666W        W21886   0.217   3.699   9.827 -0.2841  0.3229  0.0660
18667W        W21887  11.140  12.114   5.088 -0.3012 -0.0708 -0.1399
18668W        W21888   4.530   0.247  13.719  0.1488 -0.0364 -0.3836
18669W        W21889   6.599  14.680   5.814 -0.0997  0.1996  0.0540
18670W        W21890   5.529  16.255  13.489 -0.1479  0.1680 -0.1161
18671W        W21891   2.409   0.120   6.341 -0.3190  0.2425 -0.1637
18672W        W21892   2.443  14.307   9.054  0.0948 -0.0872  0.1109
18673W        W21893  17.894  16.801   8.281 -0.0430  0.1888 -0.1930
18674W        W21894   7.842   2.247  16.615 -0.1370  0.1395 -0.0442
18675W        W21895  10.086  16.089   6.403 -0.2669  0.0650 -0.0860
18676W        W21896   0.577   2.143  13.480  0.2636  0.0703  0.2429
18677W        W21897   5.027   9.345   6.422  0.2115 -0.0996 -0.0028
18678W        W21898   7.944  12.691   5.696  0.0657 -0.1778 -0.0364
18679W        W21899   3.378  13.165   0.253 -0.2200 -0.0028 -0.2223
18680W        W21900   7.654   1.370  11.158 -0.1840 -0.1076 -0.2903
18681W        W21901   4.931  16.139   3.073  0.0389  0.0335  0.2114
18682W        W21902  15.310  17.496   5.337  0.0872  0.2709  0.0041
18683W        W21903   1.552  15.892  10.114 -0.1050  0.0490 -0.0956
18684W        W21904   6.842  15.541  16.683  0.1568 -0.0921  0.0477
18685W        W21905   1.076   0.785  11.396  0.1565 -0.1838 -0.0602
18686W        W21906   2.138   3.383   8.871 -0.2513  0.2362 -0.1329
18687W        W21907   2.676  18.202   8.038  0.0882 -0.0385 -0.2188
18688W        W21908   8.485   6.173  10.141  0.1171 -0.0832 -0.2112
18689W        W21909   4.759  15.328   6.752 -0.1425  0.2234 -0.3105
18690W        W21910   4.162  17.433   4.446 -0.1402 -0.1198 -0.1027
18691W        W21911   5.185   1.447   8.621  0.1020  0.0257 -0.0901
18692W        W21912   3.469  14.184  11.963  0.1498  0.0104 -0.0346
18693W        W21913  15.982  16.403   9.348  0.1385 -0.1323 -0.0035
18694W        W21914  15.231   3.441  14.842  0.2143 -0.0679  0.0253
18695W        W21915   5.383   5.541   9.433 -0.1588  0.1770  0.0579
18696W        W21916   2.223   3.570   4.146 -0.1498  0.1750  0.1953
18697W        W21917   1.847   1.197   4.998  0.0499 -0.0716  0.1818
18698W        W21918   5.518   8.984   5.611 -0.0914  0.1297 -0.4824
18699W        W21919   7.136   1.692   2.765 -0.0055  0.0082 -0.2438
18700W        W21920   2.565  15.810  17.419 -0.0815  0.2107  0.2488
18701W        W21921   7.983  14.255   5.490 -0.3958  0.3642 -0.1915
18702W        W21922   0.050  15.496   7.178 -0.1048 -0.1960 -0.0804
18703W        W21923   6.776   0.031   9.643 -0.0151 -0.0934 -0.0353
18704W        W21924   6.893  12.805   4.749 -0.0793 -0.0276  0.0789
18705W        W21925   4.170   4.728   2.552 -0.1215 -0.1094  0.0077
18706W        W21926   1.642  13.180   8.201  0.1419  0.0819 -0.2088
18707W        W21927   8.878   1.996  15.266  0.2143 -0.0953 -0.1109
18708W        W21928   1.382  14.884   8.586  0.1474  0.0740  0.0818
18709W        W21929   3.458   3.762  12.327 -0.1171  0.3953 -0.1221
18710W        W21930   4.639  14.320   5.899  0.0001 -0.1533 -0.1454
18711W        W21931   9.323  11.462   5.425  0.0883 -0.3428  0.0450
18712W        W21932   8.387  18.227  10.398  0.2406 -0.1670 -0.0782
18713W        W21933  16.612   6.054   9.811 -0.1139  0.0932  0.0879
18714W        W21934   4.103   4.842   4.580  0.0923  0.0104 -0.0901
18715W        W21935   6.066   1.362   4.560  0.2756  0.0383 -0.1812
18716W        W21936   8.162  13.748  12.949 -0.1502  0.1272 -0.0454
18717W        W21937   8.287   1.295  15.436 -0.0265 -0.3190 -0.0532
18718W        W21938   4.276  15.693  14.175  0.2539 -0.0265  0.3891
18719W        W21939   1.546   0.256   8.108  0.4935 -0.0576  0.1175
18720W        W21940   3.735   0.830  13.990  0.0949 -0.0929 -0.0874
18721W        W21941   7.173   0.637   6.744 -0.0297 -0.0665 -0.0690
18722W        W21942   4.090  11.053   2.628 -0.0039 -0.0006 -0.1385
18723W        W21943   8.298  16.469   3.313  0.1774  0.0032 -0.0044
18724W        W21944  16.776  10.492   3.225  0.1651 -0.2176  0.0749
18725W        W21945   5.350   0.157  15.465 -0.0120 -0.3532 -0.2276
18726W        W21946   2.688  15.763   8.616  0.0447 -0.3000 -0.1016
18727W        W21947  10.634   0.613  10.411  0.1360 -0.0677  0.0959
18728W        W21948   7.260   0.508  10.261  0.3090 -0.0659  0.0943
18729W        W21949   1.524   8.031   1.838 -0.0286 -0.2538  0.1251
18730W        W21950   5.721  10.804   9.368  0.3569  0.1196 -0.1517
18731W        W21951   5.041   2.699  11.151 -0.1737 -0.1227  0.0778
18732W        W21952  11.826   1.908   1.625  0.2967  0.0094  0.2781
18733W        W21953   5.979  15.983   7.115  0.0082  0.2644  0.3120
18734W        W21954  16.461  15.381   8.397 -0.0119  0.1593  0.1027
18735W        W21955   6.985   3.875   7.470  0.2833 -0.1257  0.2536
18736W        W21956   5.173   2.644  12.685  0.0133  0.2129  0.0593
18737W        W21957   7.811  12.399  15.411  0.1091  0.1350  0.2363
18738W        W21958   7.887  16.535   1.970 -0.1209  0.0893  0.3549
18739W        W21959   9.168  16.665   5.892 -0.2781 -0.1070  0.0011
18740W        W21960   8.157   9.602   5.531  0.4029 -0.0256  0.1532
18741W        W21961  10.084  14.302  18.180  0.0816 -0.0836  0.0497
18742W        W21962   5.239   4.944   9.445 -0.0520  0.0470 -0.3508
18743W        W21963   5.453  17.142   7.748 -0.3466  0.1473  0.0048
18744W        W21964   3.506  15.883   8.407  0.3860  0.0401 -0.0960
18745W        W21965   3.998  14.216   2.455 -0.1112  0.1079  0.1074
18746W        W21966  13.824   9.153   3.434 -0.2275 -0.2313  0.2604
18747W        W21967   4.628   7.304   0.275  0.1164 -0.0559  0.0185
18748W        W21968   7.265   4.447   7.521  0.1519  0.0698  0.2621
18749W        W21969   1.577   3.373  13.484  0.0836 -0.1199 -0.0127
18750W        W21970   7.984  13.651   5.036  0.1154 -0.1419 -0.1654
18751W        W21971   7.401  11.521   7.356 -0.0427  0.0088  0.2362
18752W        W21972   7.349   1.136   3.672  0.0731  0.1045 -0.3369
18753W        W21973   8.230   1.217  12.473  0.1632  0.0636 -0.1122
18754W        W21974  17.158  12.362  11.164  0.1330  0.3530  0.1546
18755W        W21975   9.052  16.988   6.233 -0.2876 -0.2949 -0.0376
18756W        W21976   2.511   6.679   9.810  0.0378  0.0104 -0.0528
18757W        W21977   2.625   9.800   8.168 -0.3645 -0.3235 -0.1782
18758W        W21978  10.208  11.137   9.656 -0.0951 -0.1482 -0.1339
18759W        W21979   5.101  17.506   8.288 -0.0614  0.0812  0.3352
18760W        W21980   4.864   0.083   7.903  0.2746 -0.1536 -0.2621
18761W        W21981   3.631  15.229   7.894 -0.0639 -0.0394 -0.1554
18762W        W21982  16.023   5.384   6.918  0.1534  0.1233 -0.0220
18763W        W21983   3.344  11.367  14.939  0.1681  0.0086 -0.1831
18764W        W21984   6.134   5.913   8.830 -0.3133 -0.2247  0.1226
18765W        W21985   5.730   7.545  14.349  0.0559  0.2814 -0.0208
18766W        W21986   9.744  10.196  10.792  0.1558  0.1953  0.0301
18767W        W21987   2.734  15.006   3.811 -0.1007 -0.2148  0.4953
18768W        W21988   3.191  17.790  13.556 -0.0069  0.0536 -0.1540
18769W        W21989   4.203  11.363  11.886  0.0159  0.3238 -0.1084
18770W        W21990  11.277   8.977  13.531  0.3515 -0.1132 -0.1660
18771W        W21991   9.005  17.626  13.068 -0.2039  0.0976  0.2855
18772W        W21992   0.165  14.517   9.530 -0.3270 -0.0706 -0.1303
18773W        W21993   1.668  12.981   2.923 -0.0141 -0.0833 -0.0259
18774W        W21994   8.592  14.188  16.779 -0.2548 -0.4437  0.1158
18775W        W21995   9.595   2.349  10.138 -0.0811  0.1447 -0.1411
18776W        W21996   4.622  14.357   8.108 -0.1479  0.0841 -0.1463
18777W        W21997   0.604  10.179   9.198 -0.0340 -0.1509 -0.0074
18778W        W21998   2.051   1.242   5.897  0.4269 -0.4522 -0.0462
18779W        W21999   5.214   2.278   3.243  0.1381  0.0112  0.1759
18780W        W22000   9.809  16.405  11.782  0.0446 -0.2237  0.1553
18781W        W22001  15.625   1.504  12.484 -0.1337 -0.0588  0.0901
18782W        W22002   6.767  16.729   8.163 -0.0500  0.1606 -0.0597
18783W        W22003   9.249  11.419   3.525  0.1077 -0.1256 -0.0346
18784W        W22004   4.350   6.909   8.639 -0.0249 -0.0626 -0.0788
18785W        W22005   6.175  14.232  16.738 -0.0225  0.1901  0.0215
18786W        W22006   9.819  16.361   7.685  0.0419 -0.1643  0.1520
18787W        W22007  16.542  16.505  10.100 -0.2798  0.1565  0.1938
18788W        W22008  16.827   2.336  10.927 -0.3629 -0.0390  0.0162
18789W        W22009  15.009   2.867   5.645  0.0341  0.0031 -0.1799
18790W        W22010   5.635  15.339   7.621 -0.0680  0.0209  0.0907
18791W        W22011   4.253  11.575   8.684 -0.4746 -0.2207 -0.2419
18792W        W22012   5.007   0.375  10.384  0.1710 -0.1024 -0.1330
18793W        W22013   2.534  14.145   8.483 -0.3981  0.0325 -0.1210
18794W        W22014   4.378  13.806  11.185  0.2312 -0.3151 -0.1655
18795W        W22015   5.658  16.093  10.741  0.0031 -0.0341  0.1618
18796W        W22016   1.619  17.975  16.439  0.2197  0.1483 -0.0724
18797W        W22017   2.398  17.556  14.744  0.1111  0.1464 -0.3304
18798W        W22018   2.386  13.142   9.741 -0.2680 -0.1366 -0.0232
18799W        W22019   8.020  15.487  10.958 -0.0052 -0.0651  0.0060
18800W        W22020   2.732   0.923  15.695 -0.1328  0.1758 -0.0506
18801W        W22021  10.425   1.352   8.314 -0.0572 -0.0436  0.0903
18802W        W22022   1.148   1.299   9.629  0.1841 -0.2115  0.2715
18803W        W22023   5.263   0.922   6.780 -0.0974  0.0170 -0.0812
18804W        W22024   3.938   1.022   4.329  0.1357 -0.0989  0.0439
18805W        W22025   3.412   3.180   3.231 -0.0148  0.2677 -0.0383
18806W        W22026   5.210   3.692  14.581 -0.1007  0.0681  0.0828
18807W        W22027   3.078  10.896   5.590  0.0002  0.1972 -0.0805
18808W        W22028   4.784  18.244  11.184  0.1109 -0.2176 -0.1044
18809W        W22029   4.620  13.973  15.226 -0.3402  0.0071  0.0011
18810W        W22030   7.632  13.380  11.619  0.0440 -0.0581 -0.0392
18811W        W22031  11.961   9.462   3.533 -0.1545  0.0502 -0.2264
18812W        W22032   9.286   4.959   9.410 -0.0158  0.2171  0.0923
18813W        W22033   8.747  17.939  11.761 -0.2950 -0.2699 -0.1649
18814W        W22034   3.729  14.488  10.319  0.0904  0.3413  0.2857
18815W        W22035  16.504  13.005  16.106  0.2290 -0.1957 -0.0108
18816W        W22036  11.437  15.258   6.759 -0.1893 -0.0299  0.0210
18817W        W22037   1.345   2.928   8.906 -0.5806  0.0246 -0.1043
18818W        W22038  14.894  14.508   4.544 -0.1184 -0.2026  0.0783
18819W        W22039  12.986  15.838  13.951 -0.0523 -0.1878 -0.1901
18820W        W22040   2.006  10.439  13.767  0.1516  0.0071  0.0507
18821W        W22041   8.099  13.427   6.891 -0.0981 -0.0775  0.0536
18822W        W22042   6.065  12.835   8.111 -0.3237  0.1071 -0.1216
18823W        W22043   3.346  17.560   6.278  0.0550 -0.0187  0.2620
18824W        W22044   0.643  16.943  13.585 -0.2070 -0.0147 -0.1417
18825W        W22045   8.059   5.766   6.616 -0.0157 -0.4351 -0.1805
18826W        W22046   7.396   0.993  14.514  0.0461 -0.2460  0.2621
18827W        W22047   4.583   4.819   1.148 -0.1613  0.4022  0.1532
18828W        W22048   2.287  15.286  14.940 -0.0607  0.1525  0.1523
18829W        W22049   7.701  15.259   9.711 -0.2193 -0.0105 -0.2252
18830W        W22050  13.369   3.809   5.787 -0.1481  0.0240  0.0848
18831W        W22051  10.277   1.373  11.067  0.0833  0.0671 -0.0643
18832W        W22052   0.696  17.469   5.057  0.0558 -0.1308  0.1844
18833W        W22053   3.696  17.049   9.880 -0.1285 -0.0132 -0.1918
18834W        W22054   1.651  15.336   8.414  0.0268 -0.3083  0.1296
18835W        W22055   6.868  16.285   2.070  0.1767 -0.0925 -0.1344
18836W        W22056   5.702  14.523  10.593 -0.1846 -0.1048  0.2139
18837W        W22057   7.752  14.003   9.972  0.0037  0.0299  0.0057
18838W        W22058   4.115  13.531  12.058  0.0543 -0.1522 -0.2134
18839W        W22059   9.418  10.743  11.567 -0.4199 -0.0060  0.1363
18840W        W22060   1.984  14.059   7.783  0.2011  0.2624  0.3941
18841W        W22061   3.862  16.440   6.510  0.1423 -0.0022  0.1442
18842W        W22062   3.979   0.587   9.259 -0.0621  0.4431  0.1359
18843W        W22063   7.316  13.737  13.169  0.1069  0.0040 -0.3581
18844W        W22064  14.893   4.197   9.106 -0.1380 -0.1767  0.0185
18845W        W22065   8.049  11.980  11.839 -0.2828 -0.0862 -0.2476
18846W        W22066   0.560   3.397  13.795 -0.0429  0.0709  0.1056
18847W        W22067   9.730  14.315   8.926  0.1318  0.0856 -0.1494
18848W        W22068   2.302   7.068  12.600 -0.0914  0.4901  0.0223
18849W        W22069   6.930   0.451   4.787 -0.2446  0.3518  0.0006
18850W        W22070   8.957   6.180   0.108 -0.1945  0.0887 -0.1842
18851W        W22071   4.250  18.147   3.868  0.1243 -0.0801 -0.0261
18852W        W22072  15.323   3.445   5.554 -0.0356  0.3451 -0.2004
18853W        W22073   5.514   0.176   8.562 -0.1281  0.2566  0.2327
18854W        W22074   9.005  13.868  16.787 -0.4166  0.0922  0.2533
18855W        W22075  11.850   3.583  16.696 -0.0867  0.0609 -0.1059
18856W        W22076   0.291   4.875  10.351  0.0555 -0.1372 -0.0145
18857W        W22077   0.060   0.205   5.679 -0.0731 -0.1662 -0.0103
18858W        W22078   8.825  11.669   0.180  0.2524  0.1022  0.2663
18859W        W22079   8.951  13.841   1.317  0.4185  0.0182  0.1037
18860W        W22080   3.743  18.116  14.837 -0.2813  0.2101  0.1921
18861W        W22081   5.446  15.358  11.032  0.3847  0.1975 -0.1746
18862W        W22082   2.495   7.695   7.434 -0.3125  0.1943  0.1405
18863W        W22083   4.047   0.853   7.241  0.2260 -0.0281 -0.2922
18864W        W22084   6.179  13.466   9.435  0.0498 -0.1920  0.0525
18865W        W22085  10.804   0.304   5.399  0.1722  0.0422 -0.1516
18866W        W22086   3.362   1.904  10.831 -0.2309  0.0165  0.0357
18867W        W22087   6.410  13.718   6.570  0.0576  0.0431  0.0703
18868W        W22088   5.460  16.508   1.683 -0.1636  0.0142  0.0053
18869W        W22089   9.066  16.507   9.109  0.1749  0.2305 -0.2029
18870W        W22090   3.796   2.050  15.984  0.0603  0.2172  0.2055
18871W        W22091   5.077   9.657  13.196  0.1043 -0.0300  0.1970
18872W        W22092  10.569   1.005  15.424 -0.3870 -0.3765 -0.0961
18873W        W22093  10.337  15.941   2.491  0.3177 -0.2254 -0.3932
18874W        W22094   7.207   7.036   7.758  0.2301  0.2470 -0.0563
18875W        W22095   4.572   0.603   2.955  0.1839  0.0243 -0.0706
18876W        W22096   9.945  16.659  13.002 -0.2879  0.2539  0.1175
18877W        W22097   2.116  10.771   5.437 -0.1619 -0.0250  0.1256
18878W        W22098   1.036  15.561  10.015 -0.0283  0.0929  0.1661
18879W        W22099   7.643  14.012   7.485  0.1041 -0.1677 -0.1867
18880W        W22100   4.416  17.565  11.829  0.1913  0.1969 -0.0050
18881W        W22101   9.105  13.255  11.104 -0.2580  0.1618  0.1388
18882W        W22102   1.869   0.862   8.986 -0.1355  0.2691 -0.1306
18883W        W22103   4.491  16.563   8.024 -0.0258  0.0570 -0.1761
18884W        W22104   0.540  16.564   5.028 -0.1707  0.4982  0.1216
18885W        W22105   1.516  13.551  11.008 -0.2811 -0.1758  0.1352
18886W        W22106   8.963   2.892   8.568 -0.0285  0.1959 -0.0277
18887W        W22107   6.079  17.048  13.024  0.1827 -0.2243 -0.0394
18888W        W22108   7.545  13.985  14.611  0.0903 -0.2005 -0.0210
18889W        W22109   6.404  12.302   3.836  0.2916 -0.0485  0.2463
18890W        W22110   5.502  17.013   3.244 -0.0754  0.0909 -0.0234
18891W        W22111   7.881   3.376   8.068 -0.1716 -0.1247 -0.0672
18892W        W22112  17.935  17.071   1.477  0.0203  0.1084  0.0652
18893W        W22113   9.933  16.926   8.157 -0.1128  0.1893  0.1771
18894W        W22114   7.544   1.742   0.584  0.1564  0.1139 -0.2812
18895W        W22115   8.722  13.149  13.429 -0.1375  0.1211  0.2380
18896W        W22116   4.824   3.955  10.960  0.0214 -0.1654  0.0633
18897W        W22117   9.024  13.851  14.407 -0.2117 -0.3574 -0.0791
18898W        W22118   9.873  13.608   5.408 -0.2847  0.2456 -0.2156
18899W        W22119   3.871  16.555   8.738  0.2119 -0.0355 -0.0248
18900W        W22120   1.291  10.994  13.214  0.0902 -0.2628  0.0326
18901W        W22121   1.717   1.263   7.267 -0.0208 -0.1523  0.0231
18902W        W22122   5.674  12.695   3.549 -0.1958 -0.0828  0.1305
18903W        W22123   3.792   1.958   9.985  0.1814 -0.0614 -0.3489
18904W        W22124   1.767  11.775   4.259  0.0465  0.0103 -0.1714
18905W        W22125   4.457  16.348   8.636 -0.0369  0.0633  0.0426
18906W        W22126   1.615  16.490  12.716 -0.0505 -0.4777  0.0753
18907W        W22127   8.359  10.731  10.325 -0.0671 -0.0403 -0.1116
18908W        W22128   7.520   1.112   9.758  0.2151 -0.0496 -0.0755
18909W        W22129   1.471  14.160   8.546  0.0206 -0.3193  0.3460
18910W        W22130   1.488   1.067  12.239  0.0843 -0.1228 -0.0943
18911W        W22131   1.957   0.953   7.556  0.2172 -0.0239 -0.0696
18912W        W22132   6.120   2.743  12.860  0.2257  0.2971 -0.0186
18913W        W22133   0.632   3.587  12.305 -0.1645 -0.1580  0.0623
18914W        W22134   6.265   5.407  12.904 -0.0244 -0.2721  0.1548
18915W        W22135  16.640  17.910  12.333 -0.0665 -0.0094 -0.3316
18916W        W22136   8.656   7.732   4.227  0.0606 -0.0752 -0.1551
18917W        W22137   9.592  13.544  10.088  0.0652 -0.1050 -0.0017
18918W        W22138   4.858   1.202   6.614  0.1633 -0.1360 -0.2617
18919W        W22139   4.984   2.008  14.054  0.1538  0.2000  0.3616
18920W        W22140   2.667  12.810   7.500 -0.1035 -0.4256  0.0343
18921W        W22141   9.014  15.993   9.247  0.3117  0.0666  0.0891
18922W        W22142   5.622  17.013  12.687  0.0615 -0.0223 -0.2310
18923W        W22143  17.671   1.009   8.998  0.2370  0.1828 -0.1848
18924W        W22144   5.499  13.199  10.442 -0.1494 -0.1444 -0.0471
18925W        W22145   8.917  15.105  14.938 -0.1242  0.1387 -0.1172
18926W        W22146   0.240   2.752  12.417 -0.0593  0.1042 -0.3556
18927W        W22147   3.557  17.080   2.930 -0.0405 -0.2981 -0.0734
18928W        W22148   6.725  17.843   9.099 -0.2165 -0.2212  0.3733
18929W        W22149   1.830  14.428  15.836 -0.0064  0.0532 -0.1086
18930W        W22150  11.411   6.985  15.514  0.3321  0.0458 -0.1930
18931W        W22151  14.257  16.976  14.161  0.1681 -0.3565  0.1868
18932W        W22152   1.686   2.730  10.858 -0.2724 -0.2163 -0.0493
18933W        W22153   9.845  15.935  11.648  0.1329 -0.0688 -0.1405
18934W        W22154  17.629  15.825  13.888  0.1375  0.1321 -0.0089
18935W        W22155   3.182  18.130  12.164  0.0636 -0.1610  0.0695
18936W        W22156  17.986  14.061  10.215 -0.0215  0.0827  0.0685
18937W        W22157   0.044   0.721   4.268 -0.0203  0.0360 -0.1221
18938W        W22158   5.554   1.513  14.766  0.1488  0.1941  0.0551
18939W        W22159   0.147  18.025  12.223 -0.2296 -0.2785 -0.1802
18940W        W22160   3.736  16.376  16.116  0.2148 -0.1960  0.2192
18941W        W22161   5.806  17.018   9.813  0.0390  0.1945 -0.0612
18942W        W22162   1.760  13.876   5.186  0.3058 -0.1560 -0.1212
18943W        W22163   5.651  11.668   9.077 -0.1718  0.1151  0.4460
18944W        W22164  11.146   3.642   8.220  0.4108 -0.0094 -0.5411
18945W        W22165   6.912  13.923  12.147 -0.1199  0.3333  0.2239
18946W        W22166   6.647  12.601  10.173  0.1128 -0.1499 -0.2079
18947W        W22167   5.199  11.653   6.157 -0.1274 -0.1736  0.0152
18948W        W22168   9.629  18.027   0.139 -0.0292 -0.0204  0.4025
18949W        W22169  11.673   1.076  11.275 -0.2943 -0.0337 -0.2349
18950W        W22170   8.645  17.652  17.851 -0.1930  0.2295  0.0569
18951W        W22171   8.514   4.311  15.738  0.1438 -0.2887  0.2624
18952W        W22172   4.098  17.325  13.891 -0.2437 -0.1003 -0.0666
18953W        W22173   5.897  17.896   3.503  0.1360 -0.3494  0.0738
18954W        W22174   6.354  15.493   1.586 -0.3308  0.0474  0.1076
18955W        W22175   4.786   8.851  10.825  0.0942  0.0558 -0.0004
18956W        W22176   4.925   1.629  16.515 -0.0711  0.2107 -0.0643
18957W        W22177   3.858  11.901  17.381  0.1286  0.2148 -0.2594
18958W        W22178   5.387   2.511   2.849 -0.1754  0.0617  0.0991
18959W        W22179  13.263   1.979  16.214  0.1244 -0.3751  0.2890
18960W        W22180   5.834  15.650  10.921 -0.1945  0.4574  0.0882
18961W        W22181   2.068  16.170   9.903  0.1136  0.3578 -0.1722
18962W        W22182  14.090  11.216  13.080  0.4445 -0.1637 -0.1369
18963W        W22183   9.536  13.104  11.967 -0.0666  0.0488 -0.1333
18964W        W22184   5.750  17.480  13.667  0.0251 -0.1287 -0.0951
18965W        W22185   8.308  16.208   8.879  0.2349 -0.1293 -0.2016
18966W        W22186   4.402  10.726  12.595  0.3170  0.0527  0.0841
18967W        W22187   8.547   3.607   9.965  0.0163 -0.1735 -0.3613
18968W        W22188   8.249   8.391   7.147 -0.1532  0.2949  0.0299
18969W        W22189   4.195  15.665   4.568  0.1727 -0.0989 -0.0683
18970W        W22190   6.823  14.888   7.318  0.1232  0.1454 -0.1769
18971W        W22191  10.928   0.007   8.824  0.0937  0.3298 -0.2236
18972W        W22192   6.694   7.363  17.227 -0.2520 -0.2924  0.4357
18973W        W22193   4.492  16.135  11.793  0.1567 -0.1397 -0.0387
18974W        W22194   4.729   1.859   2.503 -0.2071  0.0734 -0.0294
18975W        W22195   8.935   6.280   8.412 -0.2868 -0.1314 -0.2498
18976W        W22196  18.076  17.540  11.414  0.3269  0.1278  0.1171
18977W        W22197   5.287   4.157  12.291  0.0549 -0.0616  0.3451
18978W        W22198  15.564   6.324  15.963  0.1804 -0.1504  0.0150
18979W        W22199   7.049  11.113  13.107  0.0330  0.2122 -0.0175
18980W        W22200   4.860   4.243  13.251 -0.0007 -0.0745 -0.0235
18981W        W22201   5.276  13.525  10.055  0.2749 -0.1683  0.1217
18982W        W22202   2.186   0.093  13.479  0.1891  0.1346  0.1844
18983W        W22203   4.727   0.549   7.668  0.0700 -0.0494  0.1710
18984W        W22204  18.072   5.344  14.867  0.0251 -0.2972  0.1796
18985W        W22205   8.501  12.707  13.629 -0.0088  0.1215 -0.0103
18986W        W22206   1.635  10.309   1.956  0.0224  0.0185 -0.3729
18987W        W22207  15.219  12.014  14.130 -0.0455  0.2230  0.0151
18988W        W22208  14.398  12.084  12.463 -0.1715  0.1469 -0.1440
18989W        W22209   4.301   4.882   8.984  0.0354 -0.1368  0.1416
18990W        W22210   5.658  17.286  13.215 -0.4253 -0.2120 -0.0742
18991W        W22211   4.896   2.463  12.172 -0.1006 -0.0817 -0.2729
18992W        W22212   5.219   3.287   9.302  0.1606  0.0093 -0.0521
18993W        W22213   6.447   1.858  12.225  0.2535  0.4490 -0.0982
18994W        W22214  16.490   0.444  11.858 -0.1775 -0.0230 -0.1512
18995W        W22215  12.862   0.196   1.854  0.2255  0.0652 -0.2493
18996W        W22216   2.107  15.499  14.252 -0.0339 -0.0834 -0.0197
18997W        W22217  17.738  15.173  17.756 -0.1515 -0.3018  0.1277
18998W        W22218   3.046  14.947   8.705 -0.0237  0.1631 -0.1673
18999W        W22219   0.997   3.859  14.576 -0.1480 -0.1722 -0.0863
19000W        W22220   4.232  12.744  11.395 -0.1182 -0.1495 -0.0841
19001W        W22221   6.194  12.462  16.492 -0.2596  0.0215  0.2029
19002W        W22222   3.602  13.334   2.425  0.1752  0.0319 -0.1689
19003W        W22223   0.836  13.135  15.381  0.2668 -0.2361 -0.1159
19004W        W22224   1.443  13.256  16.707 -0.0030 -0.0508 -0.1553
19005W        W22225   8.122  15.141   0.278 -0.0347 -0.0400 -0.0283
19006W        W22226   3.873   5.575  11.727 -0.1139  0.2665 -0.2264
19007W        W22227  11.057  15.236   8.049  0.1427 -0.2160  0.0578
19008W        W22228   7.708  11.060  14.332  0.0243  0.0791 -0.1500
19009W        W22229   3.087  12.616   9.559 -0.1332  0.1920 -0.1994
19010W        W22230   6.631  17.349   8.863 -0.0518 -0.1237 -0.2375
19011W        W22231   6.343   2.965  17.422 -0.1309  0.1087  0.0574
19012W        W22232  10.126   8.853  10.512 -0.0028  0.0558 -0.3626
19013W        W22233   6.470  15.889   5.352  0.2952  0.3618  0.0852
19014W        W22234   3.468   7.018   2.281 -0.2305 -0.0726 -0.1552
19015W        W22235   5.628  16.920  12.188 -0.2103  0.0071 -0.0600
19016W        W22236   4.420   0.602   1.996 -0.0446  0.1275  0.2104
19017W        W22237  10.644  10.223   6.382  0.0181 -0.0642  0.0306
19018W        W22238  15.063  17.091  15.780  0.1705 -0.2532  0.1008
19019W        W22239   4.344   4.024  10.193 -0.1300 -0.1422 -0.1731
19020W        W22240   8.937   6.673   4.921  0.0042  0.0207 -0.0834
19021W        W22241  10.172  17.463  12.941  0.1542 -0.1275  0.1441
19022W        W22242   1.830  17.059   3.984  0.2318 -0.0059  0.0083
19023W        W22243   2.173   4.414   6.569 -0.0184  0.1532 -0.0056
19024W        W22244   7.280  15.561   9.495 -0.2291 -0.2225 -0.0641
19025W        W22245   6.431   0.925  10.491  0.2097 -0.1876 -0.3688
19026W        W22246  16.380  17.467  11.486  0.0798  0.1650  0.3581
19027W        W22247   4.955  14.929  10.602  0.0670  0.3049  0.1905
19028W        W22248   9.449   0.004  11.339 -0.1194 -0.0108 -0.0576
19029W        W22249   3.493  12.662  17.660  0.0938  0.1208 -0.3195
19030W        W22250   8.562   0.492  12.130 -0.2746  0.0736  0.0735
19031W        W22251   1.887  10.515  14.715  0.5515 -0.1855  0.3203
19032W        W22252   4.365  15.326  13.880  0.0506  0.0879  0.0277
19033W        W22253   9.796   6.579  11.678 -0.2754 -0.1433 -0.1769
19034W        W22254  14.921   2.854  10.578  0.1110 -0.1144  0.3015
19035W        W22255   1.944   1.905  17.422  0.0230  0.2108 -0.0273
19036W        W22256   7.030   1.366  10.491 -0.2216  0.3378  0.4095
19037W        W22257   5.832  14.215  15.026 -0.0311  0.1657  0.0264
19038W        W22258   8.981   8.937  13.369 -0.2443  0.0885  0.1140
19039W        W22259   7.377  15.131  17.187  0.2022  0.0280  0.1653
19040W        W22260   5.219  11.681  12.634  0.2008 -0.0130  0.1084
19041W        W22261   8.800  15.824  16.157 -0.1124  0.0513 -0.0061
19042W        W22262   5.031  14.007  10.663  0.2323  0.2572  0.1133
19043W        W22263   5.013  15.878  12.941 -0.2593 -0.0457 -0.0355
19044W        W22264   7.738   6.362  16.999 -0.1970 -0.3097 -0.3106
19045W        W22265  10.966  10.649   6.292 -0.1009  0.1807  0.0382
19046W        W22266  12.285   5.195  13.260 -0.1471  0.1997 -0.0743
19047W        W22267   4.840   0.744  11.383 -0.1276 -0.0897  0.2490
19048W        W22268   1.793  16.350   8.369  0.0877  0.0383 -0.2621
19049W        W22269   6.818  12.149  12.656  0.1548  0.0823 -0.3071
19050W        W22270   9.241  15.398  12.834 -0.1567  0.0199 -0.1142
19051W        W22271   3.834  13.955  12.912  0.1384 -0.2797 -0.0523
19052W        W22272  11.691  12.133   9.994  0.0573  0.0421 -0.0322
19053W        W22273  12.083   6.270  15.441  0.2757 -0.1774  0.1658
19054W        W22274  13.067  15.034   8.525  0.3599 -0.0734  0.3091
19055W        W22275   2.177  10.056  14.717 -0.5016 -0.0068 -0.2668
19056W        W22276   7.361   0.996   9.298  0.0994  0.0033  0.0629
19057W        W22277   2.579  17.452   8.547 -0.0206  0.3389 -0.0291
19058W        W22278  10.384  12.853  11.395 -0.3425 -0.2116  0.4220
19059W        W22279   5.800   1.347  16.028 -0.2135  0.1479 -0.1926
19060W        W22280   1.406  11.042  15.963 -0.0053 -0.2212  0.0482
19061W        W22281   5.459   4.212  14.420  0.1770  0.2291 -0.0477
19062W        W22282   7.940  17.417   8.492  0.2535 -0.0568  0.2508
19063W        W22283   7.727  10.289  12.752  0.1360  0.0648  0.1273
19064W        W22284   2.884   0.743  13.010 -0.3248  0.1091  0.2044
19065W        W22285   5.427  17.407   5.506  0.0790  0.0378 -0.1344
19066W        W22286   1.861   1.976  12.173  0.1930 -0.1693  0.1058
19067W        W22287  18.197  14.573   6.813 -0.0541 -0.0296  0.2889
19068W        W22288  12.524  10.773   7.065  0.2285 -0.0387 -0.3651
19069W        W22289   5.263  18.039  15.964 -0.0521  0.0255 -0.0997
19070W        W22290   8.170  17.603  12.568  0.0175 -0.0664 -0.3436
19071W        W22291   5.616  16.786  10.931  0.1775  0.1337 -0.1000
19072W        W22292   0.014  13.472  13.804  0.0405  0.4004 -0.2141
19073W        W22293   9.919  15.496   1.441  0.3803 -0.5139  0.1791
19074W        W22294   9.069   2.980  16.408 -0.2594  0.2234  0.0799
19075W        W22295   4.909  18.157  10.184  0.1189  0.1754  0.2004
19076W        W22296   9.311  13.829   5.926 -0.1305  0.1414  0.0196
19077W        W22297   4.436  16.483   7.406 -0.0343 -0.2621  0.1833
19078W        W22298   4.774  10.866   8.378  0.0553 -0.2107  0.0622
19079W        W22299  17.242  12.362   7.730 -0.1030 -0.3850  0.2039
19080W        W22300   6.082  14.773  15.781 -0.3912 -0.0781  0.0827
19081W        W22301   4.578   5.647  16.492 -0.0462 -0.3445  0.0968
19082W        W22302   3.480  16.806  14.241  0.0684  0.0862 -0.0839
19083W        W22303  10.241   9.413   8.872 -0.0434  0.1380 -0.2183
19084W        W22304   2.565  16.941   0.168 -0.1655  0.3711 -0.2077
19085W        W22305   6.189   2.035   6.260 -0.1422  0.0141  0.1751
19086W        W22306   4.394  15.733   8.695  0.1632 -0.0007  0.2570
19087W        W22307   2.767   4.657  10.456  0.2433 -0.0354 -0.2577
19088W        W22308   9.178  14.036   7.449 -0.0415  0.1102 -0.1720
19089W        W22309   2.761   0.918  10.545 -0.0035  0.0917  0.0210
19090W        W22310   4.202   3.844  14.922  0.2778  0.2004 -0.0532
19091W        W22311   5.150   0.749   3.737  0.1027  0.0073 -0.1019
19092W        W22312   2.657  17.617  13.509 -0.3382 -0.0334  0.0666
19093W        W22313   9.363   2.096   8.374 -0.2585  0.0792  0.1601
19094W        W22314   0.578   1.437  10.894 -0.0334 -0.0259 -0.0646
19095W        W22315  11.098   2.855  13.700  0.0108 -0.1611 -0.1313
19096W        W22316   6.731   6.052   7.542  0.0900 -0.2063 -0.1339
19097W        W22317  17.161  13.337  11.543 -0.1393 -0.0180  0.1020
19098W        W22318  17.653   0.059  15.844 -0.0518  0.0298  0.0849
19099W        W22319   7.190  15.579  12.973  0.1443 -0.2414 -0.0764
19100W        W22320  12.568  12.054  14.614  0.1153  0.2597 -0.1396
19101W        W22321   2.301  14.477  15.963 -0.2353 -0.2096 -0.5462
19102W        W22322  17.653  13.524  13.689  0.0317  0.0817 -0.1483
19103W        W22323   9.217  14.682  11.703 -0.2475 -0.1556 -0.4397
19104W        W22324   2.480   2.081   5.896  0.4443 -0.0032 -0.0133
19105W        W22325   3.447  15.082  14.680  0.0480  0.1445 -0.5978
19106W        W22326   7.845  18.012  13.459 -0.2343  0.1680 -0.0211
19107W        W22327   4.656  16.075  13.697 -0.1181 -0.0192  0.2411
19108W        W22328   5.617  14.455   4.881  0.1245 -0.0409  0.1027
19109W        W22329   2.702   1.804  12.628  0.0843  0.1039  0.0701
19110W        W22330  17.858   2.277  10.753 -0.3574  0.2754 -0.2128
19111W        W22331   2.789  14.882  11.482 -0.0964  0.4062  0.1138
19112W        W22332   5.831   4.022  10.976 -0.0089  0.0708 -0.1001
19113W        W22333   8.622  10.053  12.637 -0.1285 -0.2995  0.1097
19114W        W22334   6.234  11.841   9.725  0.2299 -0.2203  0.3229
19115W        W22335   4.560   8.985   7.268 -0.1994  0.2394  0.2811
19116W        W22336   4.913   9.666  11.392  0.0838  0.5933  0.3447
19117W        W22337   1.335  11.678  13.047  0.1238 -0.0009 -0.0000
19118W        W22338  17.998  15.757   9.372  0.1392  0.0399  0.1324
19119W        W22339   9.177  14.744  16.587 -0.4035 -0.1704  0.3136
19120W        W22340   5.855  10.008  13.864 -0.3034  0.2591 -0.0590
19121W        W22341   9.476  14.336   6.064  0.2328 -0.1132  0.0135
19122W        W22342  15.497  17.174  12.931 -0.1085  0.0072  0.1426
19123W        W22343   5.711  17.738   6.697  0.3176  0.1956 -0.1376
19124W        W22344   8.316   8.306   9.227  0.2660  0.1846 -0.2242
19125W        W22345   3.573  16.700   7.322  0.0344  0.1213 -0.1218
19126W        W22346   8.114   7.399   0.141  0.0716  0.3166 -0.0092
19127W        W22347   4.252   4.415  11.872 -0.1239 -0.1755 -0.0993
19128W        W22348   0.729  16.497  17.256  0.0971 -0.0841  0.3172
19129W        W22349   6.339  15.804   7.961  0.2428 -0.0878 -0.1895
19130W        W22350  12.271   8.793  11.647  0.2045  0.2097 -0.0309
19131W        W22351  14.404   4.552  12.531 -0.1519  0.4340  0.3907
19132W        W22352   2.101   3.706  14.477 -0.0330 -0.0943 -0.0336
19133W        W22353   0.414   2.379   7.132 -0.0077  0.0366 -0.1740
19134W        W22354   7.377  11.393  12.862  0.2174 -0.0283 -0.0938
19135W        W22355   9.151   1.552  16.354  0.1748  0.0097 -0.0979
19136W        W22356   8.433   9.872   0.237 -0.3139  0.0888  0.1779
19137W        W22357  13.195  16.183  13.200  0.1485 -0.0725 -0.0843
19138W        W22358   1.726  11.785  16.155 -0.2171 -0.0589 -0.0662
19139W        W22359   4.969   3.066  11.449 -0.0751  0.1702  0.3782
19140W        W22360   1.804   3.776  14.077 -0.0205 -0.1273  0.1897
19141W        W22361  12.818   2.614   3.221  0.0186 -0.0735  0.0060
19142W        W22362   7.195  12.897  14.760 -0.2917 -0.0142  0.0469
19143W        W22363  12.694  14.563  15.285 -0.0182  0.2215 -0.0618
19144W        W22364  10.953  16.585   2.129 -0.1876  0.2551  0.1188
19145W        W22365   6.343  13.053  14.725  0.1470  0.1261  0.1157
19146W        W22366   3.000  12.948   8.117  0.0580  0.4739  0.2887
19147W        W22367   0.504   2.523  17.238 -0.2548 -0.1707  0.0598
19148W        W22368  15.093  11.132  16.676 -0.1689 -0.0461  0.1118
19149W        W22369   7.977   4.968   3.947 -0.0802  0.2798 -0.0573
19150W        W22370   6.362  13.671   7.078  0.0782 -0.0829  0.0896
19151W        W22371   9.747  17.984  15.103  0.0792  0.0684 -0.1770
19152W        W22372   6.640  10.032  11.790  0.0979  0.0693  0.2441
19153W        W22373   5.306  15.589  15.853 -0.0968 -0.0399 -0.1922
19154W        W22374   5.035   8.224  17.382  0.1183  0.0167  0.0628
19155W        W22375  11.927  16.270  10.421  0.1900  0.1574 -0.0548
19156W        W22376   5.132  14.770   9.767  0.0034 -0.0360  0.1269
19157W        W22377   7.093   8.998  14.549  0.0004  0.2709  0.0946
19158W        W22378  14.442  17.965  10.626 -0.0958 -0.0492 -0.0748
19159W        W22379   8.234  15.472  13.313  0.0324  0.0097  0.0870
19160W        W22380   4.203   7.106   9.158  0.1363  0.0897 -0.2023
19161W        W22381  17.263  15.354   9.739  0.1968 -0.1433  0.0774
19162W        W22382   6.126   1.170  17.600 -0.1770 -0.0744  0.0313
19163W        W22383   1.951  18.018   1.707  0.1552  0.1085  0.3103
19164W        W22384   0.947  15.141  16.931 -0.1795 -0.4252 -0.2251
19165W        W22385   2.749  17.481  17.875 -0.3130  0.0034 -0.0729
19166W        W22386   6.457  13.555  15.168  0.1140  0.1583 -0.0170
19167W        W22387   3.139  11.489  10.501  0.1098 -0.0552  0.4476
19168W        W22388   2.665   4.180   0.180  0.0651  0.0381  0.1441
19169W        W22389   4.879  13.432   5.455 -0.1218  0.0047 -0.0008
19170W        W22390   4.851  14.307   0.154 -0.3198  0.0393 -0.0150
19171W        W22391   1.402  11.038   4.235  0.2321  0.0474  0.2240
19172W        W22392   0.926   1.777   2.595  0.1521  0.2125 -0.0082
19173W        W22393   1.961   6.931  15.150  0.0292 -0.4078  0.0059
19174W        W22394  11.593  17.873  13.183  0.1502 -0.1417 -0.1965
19175W        W22395   5.957   9.843   2.467  0.1449 -0.0968 -0.0416
19176W        W22396  16.717  11.704  14.803  0.3760 -0.0703  0.1121
19177W        W22397   4.657  10.487  15.956 -0.3414 -0.1185 -0.1930
19178W        W22398   3.426   0.236  12.878  0.0464 -0.0760  0.2384
19179W        W22399   1.611   3.692   0.361 -0.0385 -0.2199  0.1436
19180W        W22400   7.968   2.052  17.876 -0.0034  0.0479 -0.3331
19181W        W22401   9.771  14.140  11.444 -0.4575  0.0715 -0.0670
19182W        W22402   1.354  15.525  11.916  0.0680  0.1080  0.1138
19183W        W22403   5.486  11.883  16.221  0.1738 -0.1716 -0.2546
19184W        W22404   8.074  13.473  15.677  0.5884  0.0624 -0.0998
19185W        W22405   3.037   8.775  12.257 -0.0489  0.2762  0.1564
19186W        W22406   1.069  14.553  10.073  0.0551  0.1028 -0.1263
19187W        W22407   7.450   1.229   4.921  0.3851  0.0022 -0.3013
19188W        W22408   5.274   2.900   7.165  0.1120  0.2595  0.1667
19189W        W22409  12.153  14.114  16.169 -0.0507 -0.4321 -0.2222
19190W        W22410   4.488  15.254  12.330  0.0693 -0.0285 -0.2545
19191W        W22411   1.551  17.176   8.163  0.1418 -0.0363 -0.1230
19192W        W22412   3.587  15.605  11.290 -0.1596 -0.1025  0.3497
19193W        W22413   5.757  15.909  11.728  0.0942  0.4357  0.2082
19194W        W22414   3.801  14.808  13.098 -0.1918 -0.5256 -0.2820
19195W        W22415   8.539   9.796  13.622 -0.1651  0.0588 -0.1393
19196W        W22416  14.253  12.307  15.747 -0.1269 -0.3171 -0.0700
19197W        W22417   5.293   2.187  15.770 -0.0286 -0.1719  0.0502
19198W        W22418   5.897   5.641  15.947 -0.1328  0.0518 -0.0464
19199W        W22419   5.225   9.739   9.555 -0.2064 -0.0186  0.0028
19200W        W22420   6.133   0.574  13.055  0.0015  0.0837 -0.0294
19201W        W22421   2.840  16.616   1.375 -0.0039  0.2992  0.1068
19202W        W22422   0.215  16.329  10.527 -0.0630 -0.2078  0.1716
19203W        W22423  11.485   9.165  12.352  0.1230 -0.1753  0.1317
19204W        W22424   0.039  18.138   4.595  0.3194  0.2547 -0.2941
19205W        W22425   6.724   0.135  15.212  0.0848  0.1634 -0.1267
19206W        W22426   6.988  15.683   7.310 -0.2843  0.1113 -0.0256
19207W        W22427   8.899  16.428  11.346  0.0373  0.0359  0.0942
19208W        W22428   6.314   3.689  11.167  0.0229 -0.1609  0.5007
19209W        W22429   0.332  15.149  11.709 -0.4008 -0.2232  0.3981
19210W        W22430   3.096   9.559   9.144  0.1139 -0.0248  0.1868
19211W        W22431   7.773  16.965   0.401 -0.2339 -0.3286 -0.0910
19212W        W22432   3.756   3.740  11.376 -0.1056 -0.0776  0.2437
19213W        W22433   5.456  16.106  15.679  0.6730 -0.3064 -0.1635
19214W        W22434   4.081  15.360  17.213 -0.2427  0.3043  0.1116
19215W        W22435   8.425   6.221  14.079 -0.2796 -0.0066  0.1992
19216W        W22436   8.335   0.730  15.342 -0.0998  0.1817 -0.1493
19217W        W22437  10.323   0.089  15.722  0.3884 -0.1590 -0.2548
19218W        W22438   3.055   1.471  15.393 -0.1270  0.1280 -0.3563
19219W        W22439   9.271  12.468   3.906 -0.0715 -0.0565 -0.1191
19220W        W22440   1.470  13.037  10.320 -0.0774  0.0230 -0.0928
19221W        W22441   3.809  13.715  12.443 -0.0052  0.0797 -0.2577
19222W        W22442   0.991  15.437   5.813  0.3125  0.2638  0.4016
19223W        W22443   0.338  16.851  12.726 -0.1576 -0.0558  0.2192
19224W        W22444   7.335   4.956  12.240 -0.1139  0.4622  0.0794
19225W        W22445   2.729  13.514  16.852 -0.2204  0.1720  0.0123
19226W        W22446  11.579  16.611  11.632  0.0040 -0.2198  0.0190
19227W        W22447  15.422   0.805  11.927 -0.2058 -0.0527  0.1646
19228W        W22448   9.517   4.314  16.328 -0.1680 -0.2740 -0.0753
19229W        W22449   5.183  15.329  17.977 -0.1017 -0.1025  0.0858
19230W        W22450  11.755  17.669   7.541 -0.0250  0.1046  0.0520
19231W        W22451   5.876   4.825  18.142  0.0959  0.2202 -0.2526
19232W        W22452  16.476  16.541  15.066  0.0949  0.3324 -0.3371
19233W        W22453   6.464  13.038  10.347  0.1639 -0.0264  0.1465
19234W        W22454  11.375  16.813   4.476 -0.2547  0.2127  0.1227
19235W        W22455   9.287  12.282  12.602  0.1812 -0.0155 -0.2784
19236W        W22456   8.462  17.636  15.177 -0.0227  0.1377 -0.1387
19237W        W22457   9.930   2.376  16.468 -0.2561  0.2354  0.2206
19238W        W22458   3.615  16.800  13.224  0.1431 -0.0713  0.2083
19239W        W22459   2.941   0.362   9.767  0.2007  0.2886 -0.0141
19240W        W22460   2.426   4.736   9.996 -0.0221 -0.1677  0.1428
19241W        W22461  11.671   0.567  10.934  0.0308 -0.1226  0.2824
19242W        W22462   1.934   5.773  17.911  0.1416 -0.0709 -0.0584
19243W        W22463  10.520   4.223  10.080  0.0300  0.2878  0.0164
19244W        W22464  13.032   2.148  14.587  0.0554 -0.2032 -0.1427
19245W        W22465  12.163   6.280  12.337  0.1037  0.2761 -0.1941
19246W        W22466   0.557  16.713  16.445 -0.0443 -0.0772 -0.0367
19247W        W22467   4.704  14.053  12.527  0.0615 -0.0299  0.2349
19248W        W22468   4.798  17.503   4.969 -0.2922 -0.0231 -0.0254
19249W        W22469   1.420   1.930  13.896  0.0712 -0.1973 -0.1732
19250W        W22470   3.126  16.366   7.923  0.1579 -0.4310 -0.1939
19251W        W22471   3.444  16.842  16.886  0.1585 -0.3297 -0.0039
19252W        W22472   4.880  12.907   2.200 -0.2054 -0.0261  0.0989
19253W        W22473   2.225  14.801  11.960 -0.0214  0.3686  0.0166
19254W        W22474   1.390  17.703  11.042  0.3041 -0.0867 -0.0202
19255W        W22475  11.110   0.547   3.349 -0.3619 -0.1797  0.2315
19256W        W22476   5.986  16.075  14.850  0.1444 -0.2445 -0.0503
19257W        W22477   0.098   2.250   9.103 -0.0137 -0.0133  0.0650
19258W        W22478   6.478  13.062  15.223  0.0488 -0.4747  0.4387
19259W        W22479   4.036  14.369  12.754  0.2619  0.0876 -0.1653
19260W        W22480   4.916   0.057  15.695 -0.1310 -0.0200  0.2559
19261W        W22481  14.005  16.943   9.415 -0.2310 -0.1179 -0.1784
19262W        W22482  16.883   0.013   0.972 -0.0193  0.3278  0.2483
19263W        W22483  13.678   6.825  15.120 -0.1091 -0.1755 -0.1547
19264W        W22484   2.904   2.758  12.014 -0.1141  0.0961 -0.2729
19265W        W22485  10.807  16.586  10.915  0.1393  0.1241  0.0695
19266W        W22486  16.694  14.820   8.790  0.1401  0.1163 -0.0041
19267W        W22487   3.100   5.208   2.083  0.2555  0.0606  0.0983
19268W        W22488   7.704   2.734  11.383 -0.0471  0.1661  0.0154
19269W        W22489   7.855  14.040  16.351  0.0328 -0.0434  0.1372
19270W        W22490   1.701  13.638  14.574  0.3679  0.1517  0.0856
19271W        W22491   8.477  14.630   0.262  0.0751 -0.3343  0.0137
19272W        W22492   5.518  13.396  12.172 -0.1206 -0.2336  0.2229
19273W        W22493   2.750  13.194  14.160  0.1106 -0.0890  0.0893
19274W        W22494   6.123  12.068  16.831  0.0839 -0.1648 -0.2332
19275W        W22495   4.622  14.048  16.185 -0.0741  0.1181 -0.1434
19276W        W22496   7.098   2.208  16.653  0.2699 -0.0882  0.0009
19277W        W22497   3.474  17.186  12.451  0.0861 -0.0824 -0.2540
19278W        W22498   0.086   5.729   8.659 -0.0365  0.1377 -0.0022
19279W        W22499   0.260   3.021  17.544 -0.0373  0.0433  0.0869
19280W        W22500   8.750  16.928  10.024 -0.4483 -0.0620 -0.1668
19281W        W22501  18.059   4.418  15.902 -0.0503  0.3561 -0.2010
19282W        W22502   6.735   2.801  11.950 -0.0127 -0.0365  0.1304
19283W        W22503   6.177  17.081  11.624 -0.2787  0.0263 -0.3036
19284W        W22504   0.413  14.873   4.589 -0.1106  0.0492 -0.0925
19285W        W22505   6.623  14.186   8.355 -0.1322 -0.1254 -0.1109
19286W        W22506   9.645   0.901  15.445  0.0546  0.0475 -0.2435
19287W        W22507   8.155  10.428  13.353  0.1217  0.4111  0.1576
19288W        W22508   2.550  15.183  12.577  0.0663 -0.0462 -0.2407
19289W        W22509   4.110  17.753  11.194 -0.2953 -0.1559  0.2806
19290W        W22510   5.892   0.169  12.091 -0.0751 -0.2291  0.1109
19291W        W22511   6.211  10.643   4.232 -0.2891  0.2780 -0.0130
19292W        W22512   1.132  17.999   6.864  0.1159 -0.1795 -0.0138
19293W        W22513   6.021  14.629  15.302 -0.3258  0.1334  0.0191
19294W        W22514   0.456   0.251  15.217 -0.4866 -0.1815 -0.1230
19295W        W22515   7.669   1.839  15.073  0.1460  0.1708 -0.0175
19296W        W22516   6.476  16.777  14.696  0.3915 -0.0819 -0.0787
19297W        W22517  16.278  11.871  11.585 -0.0040  0.2566 -0.2261
19298W        W22518  17.025  13.026  15.762 -0.3868  0.3762 -0.1521
19299W        W22519   6.330  15.001  10.316 -0.4111 -0.3113  0.0397
19300W        W22520   4.759  13.866  11.549  0.5045 -0.1057 -0.2087
19301W        W22521   2.571  16.865  14.872  0.0252  0.0933  0.0498
19302W        W22522   4.469  14.381  12.925  0.2270 -0.0762 -0.0361
19303W        W22523  18.068   7.159  11.947 -0.2090 -0.0315 -0.2433
19304W        W22524  17.604  11.892  11.939 -0.1016  0.1610 -0.0719
19305W        W22525  10.405  17.041  15.082 -0.1228 -0.1492 -0.2286
19306W        W22526   7.896  15.006  13.372 -0.0724  0.0509  0.1163
19307W        W22527  13.577   6.323  15.102  0.0030  0.2850 -0.1164
19308W        W22528   6.350  16.613   6.655  0.0063  0.3533 -0.1893
19309W        W22529   4.636   2.858  10.581  0.2805  0.2145 -0.1824
19310W        W22530   1.940   7.752  13.421 -0.0267  0.1736 -0.0200
19311W        W22531   7.526  15.989  13.688  0.0281 -0.1303  0.0254
19312W        W22532  14.095  17.063  16.992 -0.1276 -0.0531  0.0078
19313W        W22533  14.617   2.231  15.577 -0.0096  0.3670 -0.2242
19314W        W22534   5.754  12.464  11.310  0.3273  0.2926  0.0746
19315W        W22535  15.064  12.623   1.380 -0.0649 -0.1060 -0.0919
19316W        W22536   4.719   4.989  17.534  0.1572 -0.1295 -0.0389
19317W        W22537  15.859  17.047  10.739 -0.3669 -0.0903 -0.2220
19318W        W22538   6.659  11.794   9.325 -0.1041 -0.3383 -0.1602
19319W        W22539   6.057  14.857   9.891  0.1632 -0.0065  0.2491
19320W        W22540   2.292   3.301  14.189  0.0289 -0.0053  0.0737
19321W        W22541   4.871   2.130  10.297  0.0130  0.1219 -0.0626
19322W        W22542   2.007  13.261   3.322  0.4793  0.3079 -0.1956
19323W        W22543  10.854   6.484   6.308  0.1993 -0.2562 -0.0428
19324W        W22544  11.257  18.089  16.857 -0.0948 -0.1935  0.0977
19325W        W22545  14.058   2.687   2.924  0.0426 -0.1493 -0.0546
19326W        W22546  10.063  16.996  10.904  0.0558  0.0319 -0.0428
19327W        W22547   8.321  12.747  12.146 -0.1155 -0.2348 -0.1205
19328W        W22548   6.044  13.382   1.317 -0.2229 -0.0873  0.2347
19329W        W22549   4.261  14.793  12.900 -0.0647 -0.0132  0.0090
19330W        W22550   4.600   2.342  15.078  0.1065  0.0966 -0.1146
19331W        W22551  12.235  11.121  13.390  0.0742  0.1823 -0.0120
19332W        W22552   3.538  12.338  16.327  0.0484 -0.0412  0.2018
19333W        W22553  16.715  11.495  13.325 -0.0892  0.0298 -0.2168
19334W        W22554   7.694  13.839  13.953  0.1164 -0.0808  0.3518
19335W        W22555  15.472   2.669  15.932  0.1593 -0.1561  0.1420
19336W        W22556   7.560  12.362   3.031  0.0853  0.3538  0.1621
19337W        W22557   5.262   3.374   8.800 -0.1247  0.0138  0.0862
19338W        W22558  10.398   3.338  10.581  0.2677 -0.1563  0.0512
19339W        W22559   6.473  15.325  17.537  0.0731 -0.2654  0.1941
19340W        W22560   8.670  15.591  13.588 -0.0935  0.0288  0.0462
19341W        W22561   6.113  11.238  12.010 -0.4913 -0.1482  0.0101
19342W        W22562   7.544  14.697  17.404 -0.2820 -0.1034  0.1062
19343W        W22563   5.191   3.764  14.012 -0.1587  0.1963 -0.0943
19344W        W22564   4.571   0.502  16.703  0.2434 -0.0092  0.1517
19345W        W22565  11.150   2.798  16.959  0.0772  0.1298  0.1018
19346W        W22566   8.700  16.875  15.164 -0.0266  0.1089  0.0045
19347W        W22567  12.009  13.781   1.596 -0.1043  0.1637 -0.3642
19348W        W22568   7.692   4.721   0.142  0.0834 -0.1258  0.2761
19349W        W22569   2.364  17.707  13.890  0.3517 -0.0107 -0.4443
19350W        W22570   2.724  17.522   7.350  0.0556  0.0661  0.0207
19351W        W22571   2.728   1.633  11.102 -0.2998  0.2560 -0.1871
19352W        W22572   2.009  17.572   9.161 -0.2699  0.1110 -0.0161
19353W        W22573  13.087   2.001   1.614  0.2486  0.0516 -0.1337
19354W        W22574   8.144  15.663  16.285  0.1323 -0.0361  0.1133
19355W        W22575   1.545  15.652   2.466 -0.0745  0.1526 -0.0075
19356W        W22576  15.576  15.746   0.793  0.0972  0.1412 -0.0115
19357W        W22577   8.294   4.192   2.453  0.0094  0.0965 -0.2759
19358W        W22578  16.814  11.069  15.049 -0.0887  0.2217 -0.1311
19359W        W22579   8.845   1.331  14.226  0.1878 -0.1382  0.0825
19360W        W22580   5.337   0.637  15.600  0.0711  0.1589 -0.1473
19361W        W22581  14.621  13.890   3.879 -0.2474  0.1195 -0.1726
19362W        W22582  11.362   0.691  10.396  0.2271  0.0972  0.0596
19363W        W22583   1.565   0.623  16.464  0.2681  0.0670 -0.1525
19364W        W22584  16.788  12.259   9.036  0.0407 -0.0049 -0.0406
19365W        W22585  11.093  16.239  14.312  0.2852  0.1680 -0.0341
19366W        W22586   9.732   6.803  14.442  0.0275 -0.1417 -0.2567
19367W        W22587   2.386   5.117   1.730 -0.0342  0.0482  0.0227
19368W        W22588   2.030  15.156  12.663 -0.1571 -0.0543  0.2169
19369W        W22589   9.589  13.896   3.969 -0.0591  0.2793 -0.0468
19370W        W22590   2.755   8.223   2.811 -0.0770 -0.0393  0.1328
19371W        W22591   8.203  15.188  17.712  0.1052  0.3840 -0.0478
19372W        W22592  13.814  17.243   2.596  0.1393  0.1645  0.1110
19373W        W22593   7.706   2.602  10.337  0.0610  0.3282  0.1461
19374W        W22594  11.068  15.031  16.624 -0.0687 -0.0161  0.0527
19375W        W22595   8.141  12.964  16.324  0.0055 -0.0498 -0.0772
19376W        W22596   3.728  10.509  14.786 -0.2348  0.0731 -0.2418
19377W        W22597   5.571   7.824   6.471 -0.0712 -0.1158  0.1093
19378W        W22598   3.172  17.327  15.547 -0.1846 -0.1468  0.3639
19379W        W22599  12.120  13.150  16.244  0.0361 -0.2870 -0.0537
19380W        W22600   2.259   1.923   9.367 -0.2214  0.2478 -0.0646
19381W        W22601  10.979   2.057   8.699  0.1340  0.2923 -0.0606
19382W        W22602  15.658  15.930  17.991  0.0493 -0.0063 -0.2366
19383W        W22603  17.047   3.117   9.597 -0.0418 -0.2510 -0.1358
19384W        W22604   8.180   1.375   3.893  0.1344 -0.1040 -0.1444
19385W        W22605   3.309   1.255  11.627  0.1404  0.2165 -0.1193
19386W        W22606   2.365  12.946  16.280 -0.2844  0.2023  0.0830
19387W        W22607  10.873  12.310   1.407  0.2220  0.1262  0.0598
19388W        W22608   7.100   0.018   1.598  0.2903 -0.2975  0.2311
19389W        W22609  18.178   8.334  11.279 -0.1877 -0.3371  0.1374
19390W        W22610   4.186  17.956   6.349 -0.0087  0.3060 -0.2796
19391W        W22611   2.422   1.175  11.762  0.2594 -0.2437  0.0705
19392W        W22612   6.697  17.218   3.135 -0.0570  0.0565 -0.0039
19393W        W22613   4.245  13.053  12.792 -0.0019  0.0380  0.0002
19394W        W22614   6.881   4.764   8.110 -0.1581  0.0182  0.2768
19395W        W22615   2.934   0.175  17.550 -0.0734  0.0268  0.0141
19396W        W22616   8.917   2.892  14.462 -0.1402  0.0280  0.2079
19397W        W22617   6.842   2.216   0.141  0.0006 -0.0500 -0.0891
19398W        W22618   1.548  14.436  13.397  0.1604 -0.2794 -0.3396
19399W        W22619   3.730   6.053  14.080 -0.1088 -0.0848  0.0583
19400W        W22620   1.967  13.003   1.512  0.0749 -0.0456 -0.1029
19401W        W22621  14.383  15.773   1.703 -0.0163  0.2446  0.1888
19402W        W22622   4.924  16.411   2.049 -0.2039 -0.1245 -0.1795
19403W        W22623   2.376  18.243  17.749 -0.1028  0.3717 -0.2876
19404W        W22624   0.367   2.101  10.188  0.1062  0.1328  0.1125
19405W        W22625   4.498  13.556  14.938 -0.2768 -0.3651 -0.0621
19406W        W22626  12.853  16.818   1.625 -0.1399 -0.3472  0.0275
19407W        W22627   1.869  14.182   4.594  0.4302 -0.0813  0.1248
19408W        W22628   5.554  11.013  15.933 -0.0658  0.0331  0.0410
19409W        W22629   8.127   8.100   2.926 -0.2243 -0.1882 -0.0794
19410W        W22630   3.807  13.139   6.485  0.0215 -0.2382  0.1424
19411W        W22631   5.766  12.411  17.111 -0.1717  0.1435  0.0934
19412W        W22632   8.368  15.225  12.528 -0.0976  0.4697 -0.3530
19413W        W22633  12.789   5.542  15.976  0.0122  0.0522 -0.0418
19414W        W22634   8.052  15.409   8.864  0.1226 -0.1173  0.0761
19415W        W22635  16.787  15.249   6.052 -0.0837  0.3391  0.5024
19416W        W22636  11.867   3.787  16.200 -0.3871  0.0639 -0.1737
19417W        W22637   7.636  13.119  17.101 -0.0430 -0.1296 -0.1801
19418W        W22638   9.292  14.247   3.618  0.0624 -0.2588  0.2549
19419W        W22639   4.503   3.203   5.869  0.1108 -0.1225  0.0535
19420W        W22640   3.809   9.215  17.701 -0.0871 -0.1202  0.0544
19421W        W22641   9.186   0.529  10.294 -0.0934 -0.2522  0.2056
19422W        W22642  11.253   0.113   2.113  0.0933 -0.2651 -0.0462
19423W        W22643   2.481   0.486  16.895  0.0908  0.0581 -0.0534
19424W        W22644   7.438  15.673   8.275 -0.0550 -0.2549  0.0678
19425W        W22645   5.380   4.559   1.663  0.1076 -0.2476  0.0815
19426W        W22646   1.696  16.917   5.951  0.1491  0.0304  0.1248
19427W        W22647   7.157   1.842  17.159  0.0301  0.0101 -0.1217
19428W        W22648   7.505  13.097  12.039 -0.2518  0.2532 -0.0829
19429W        W22649   6.396   4.863  18.231 -0.2613  0.0816 -0.1218
19430W        W22650   8.127  18.105  12.683  0.0823  0.1346 -0.1210
19431W        W22651   6.398   1.265   0.878 -0.1813 -0.2301 -0.2647
19432W        W22652   8.991  13.971  17.295  0.0040  0.0594 -0.1590
19433W        W22653   6.865  13.469  12.857  0.1041 -0.2531  0.1918
19434W        W22654   1.087  10.988   4.597 -0.1959  0.0788 -0.1477
19435W        W22655   1.675   5.568   3.993  0.2423 -0.1146 -0.0997
19436W        W22656   3.235   4.760  12.196 -0.3095  0.1413  0.1549
19437W        W22657   3.719  13.146  12.778  0.0956  0.2793 -0.0173
19438W        W22658  12.491  17.794  15.344  0.0815 -0.1271  0.1070
19439W        W22659  12.734  16.827  10.305  0.2690  0.2081 -0.0938
19440W        W22660  13.571   1.891   1.768  0.0618 -0.2152  0.1111
19441W        W22661   5.466   3.685  11.713 -0.1174  0.0903  0.0217
19442W        W22662   5.266  17.803  14.573  0.1580  0.2491  0.0299
19443W        W22663   6.175   1.866  14.793  0.0069 -0.3551 -0.1289
19444W        W22664   8.044  16.513  15.945  0.0892 -0.1758 -0.3443
19445W        W22665   2.647   1.213  15.074 -0.1014 -0.3139  0.2567
19446W        W22666   2.162   2.812  10.507 -0.1538 -0.1867 -0.0369
19447W        W22667   7.659   0.306   2.890 -0.1837  0.0362 -0.0004
19448W        W22668   3.922  16.055   9.441 -0.1034 -0.1985  0.0936
19449W        W22669   6.709   9.630   5.455  0.1887 -0.0240  0.3269
19450W        W22670  17.934   6.088  17.836 -0.0383  0.0083 -0.2959
19451W        W22671   4.068   2.611  12.739  0.1444  0.0275  0.2325
19452W        W22672   7.394   3.889  13.340  0.0758 -0.0122  0.0140
19453W        W22673   3.918   3.024  16.162  0.0416  0.3185 -0.0845
19454W        W22674  13.814  17.114   6.119  0.2417  0.0589  0.3164
19455W        W22675  10.868   4.250  16.824  0.2716 -0.2374  0.2059
19456W        W22676  12.834  17.150   0.813  0.1166  0.0600  0.0312
19457W        W22677   3.446  15.014  12.492 -0.0412 -0.1828 -0.4323
19458W        W22678   2.653  14.478   0.452  0.0253 -0.1476 -0.0752
19459W        W22679   3.613   5.045  17.339  0.3237 -0.0518 -0.0617
19460W        W22680   1.984  17.761  14.857  0.1083 -0.1667  0.1704
19461W        W22681  10.114   0.765  15.201  0.0951 -0.0964  0.0054
19462W        W22682   2.470  15.229  11.729 -0.1361  0.0042  0.0200
19463W        W22683  17.060  14.860   0.099 -0.1630 -0.0720  0.2734
19464W        W22684   0.819   1.680   0.644 -0.1307 -0.0509  0.3915
19465W        W22685   8.748   1.606  11.421 -0.2179  0.3438 -0.1934
19466W        W22686   9.199   2.485   1.467  0.2720  0.1428  0.0006
19467W        W22687   4.541  13.476  13.115 -0.1277  0.0016 -0.2334
19468W        W22688   7.510  11.665   9.528 -0.1915  0.0457  0.0095
19469W        W22689   9.045   2.580  11.604 -0.0391  0.2719 -0.0659
19470W        W22690   1.470  17.701   8.071  0.3144  0.2824 -0.1509
19471W        W22691   8.579   2.520   1.078  0.2607  0.3197  0.0612
19472W        W22692   0.016  17.163  17.799 -0.0473  0.3005 -0.0396
19473W        W22693  16.224  15.235  13.989 -0.3183  0.2364  0.2722
19474W        W22694   1.111  17.444   2.840  0.1031 -0.2908 -0.0119
19475W        W22695   3.195  17.666  10.291 -0.1616 -0.1368  0.0418
19476W        W22696   4.082  11.831  11.491  0.0567  0.1633  0.1147
19477W        W22697   6.495  16.283  17.808 -0.2052  0.0968  0.1855
19478W        W22698  17.035   3.773  10.566 -0.2583  0.1032 -0.0951
19479W        W22699   7.986  10.012   0.341  0.2853 -0.0966 -0.1519
19480W        W22700  18.098  15.099  11.655  0.0272  0.2412 -0.1654
19481W        W22701   1.434  14.766  11.929  0.2321 -0.0074 -0.4574
19482W        W22702   9.513   9.518   4.456 -0.1977 -0.1759  0.0977
19483W        W22703   5.282  16.815   0.866  0.1343 -0.0963 -0.1049
19484W        W22704  12.120  17.666  12.515 -0.1920 -0.0388  0.0098
19485W        W22705   4.914  17.704   9.200  0.2777 -0.0886 -0.0756
19486W        W22706   7.022  15.148  16.349  0.1113  0.0258 -0.1862
19487W        W22707   3.617   3.676  12.844 -0.1652  0.0402 -0.2107
19488W        W22708  12.495   8.213   0.239  0.1958 -0.0117  0.0268
19489W        W22709   2.040   3.122  13.346  0.2236  0.0429 -0.1695
19490W        W22710  10.876   6.920  17.144  0.1466  0.2177 -0.0854
19491W        W22711  16.880   1.461  15.816 -0.0918  0.0274  0.0222
19492W        W22712   2.893   0.837  17.100  0.0942  0.1241  0.0298
19493W        W22713   8.829  14.302  11.045 -0.1179  0.1488  0.1186
19494W        W22714   0.285   7.557   1.085 -0.2660 -0.0043  0.0914
19495W        W22715   1.488  14.542  14.907  0.0660  0.0123  0.1496
19496W        W22716   6.886  15.302  12.674 -0.0077  0.4285 -0.3360
19497W        W22717  13.204  17.999  18.040  0.0980  0.2211  0.1772
19498W        W22718   7.397  16.797  12.925  0.3121 -0.0215 -0.2051
19499W        W22719   6.813   3.270   2.537 -0.0244  0.0718  0.1929
19500W        W22720  10.850   8.052  18.059  0.3861  0.1053  0.0364
19501W        W22721   6.791  11.437   1.710  0.0836  0.3105 -0.0226
19502W        W22722   8.452  13.161  15.875 -0.1799 -0.3278 -0.0520
19503W        W22723   6.539  14.235  13.428  0.0827  0.1528 -0.0425
19504W        W22724  11.922  12.217  12.032 -0.5017 -0.0212  0.3002
19505W        W22725   8.816  13.340  16.254 -0.1099  0.0317 -0.1788
19506W        W22726   7.071  15.319   5.097 -0.3103  0.2010  0.0094
19507W        W22727   9.517   8.656   4.821 -0.1227 -0.2390  0.0338
19508W        W22728   6.989   5.884  12.582  0.0339  0.3729  0.0937
19509W        W22729   7.938   0.793  12.789 -0.1471 -0.0674  0.2936
19510W        W22730   6.872   1.714   3.339 -0.1429 -0.4825  0.0645
19511W        W22731   3.570   3.288   5.928 -0.2179 -0.0867  0.0781
19512W        W22732  15.545   0.642  14.359  0.0194 -0.3202 -0.1809
19513W        W22733   2.446   0.258  11.177 -0.1667 -0.4373 -0.2219
19514W        W22734   7.403  16.233  16.460  0.0182  0.1133 -0.1899
19515W        W22735   2.661   6.120   0.016  0.1206 -0.0113  0.0499
19516W        W22736   6.840   3.162  13.858 -0.1145  0.1309 -0.4204
19517W        W22737   0.695  11.062  13.452 -0.1697 -0.1308  0.1779
19518W        W22738   6.275  15.683  14.010  0.0992  0.3497 -0.1106
19519W        W22739   5.503   1.238   5.979  0.1081 -0.2026 -0.0563
19520W        W22740  12.402  13.750  15.448 -0.1145 -0.1273 -0.0737
19521W        W22741   3.355  18.199  16.110  0.2952 -0.0115 -0.0121
19522W        W22742  15.743  17.326  17.766  0.0325  0.0761  0.3424
19523W        W22743   9.352  14.139  14.204  0.0636  0.0799 -0.0091
19524W        W22744  15.625   9.268  16.418  0.1620  0.0463  0.1247
19525W        W22745   3.438  13.990  18.011  0.0344 -0.2607 -0.0394
19526W        W22746  18.041  14.825  13.618 -0.4570  0.0348  0.1223
19527W        W22747   6.092   0.115  11.212  0.2496  0.0844  0.0433
19528W        W22748   2.388  14.072   0.573 -0.2462  0.1468 -0.4456
19529W        W22749   9.460   7.411  11.893  0.4207 -0.2385 -0.5115
19530W        W22750   7.612  17.735  14.870 -0.2243 -0.0148 -0.1654
19531W        W22751  15.951   0.208  14.224 -0.0192 -0.1107  0.1596
19532W        W22752   9.319   6.804  17.303 -0.1704  0.0503 -0.0715
19533W        W22753  16.396  14.367  13.128  0.0413  0.0827  0.0766
19534W        W22754  10.531   5.844  15.679  0.0255  0.0151  0.0690
19535W        W22755  13.260  13.109   3.567 -0.2848 -0.1068 -0.1546
19536W        W22756   0.603   1.933  16.956 -0.2018 -0.0945  0.1218
19537W        W22757   6.421  14.827  13.136  0.1029  0.1334 -0.1713
19538W        W22758   4.631   9.730  13.716 -0.3869 -0.0470  0.1638
19539W        W22759   6.603  13.407  14.230 -0.3484 -0.1608  0.0732
19540W        W22760   7.855  16.875  13.198 -0.3990 -0.0912  0.1385
19541W        W22761   3.041   6.917  11.299 -0.3981  0.1705  0.1318
19542W        W22762   6.127  16.380  17.413 -0.0118  0.1630  0.2395
19543W        W22763  13.015   1.861  16.651  0.1520 -0.3138 -0.0877
19544W        W22764   5.228  12.194   5.787 -0.0944 -0.2039  0.2529
19545W        W22765   4.418  13.351   3.735  0.4081 -0.0254  0.2079
19546W        W22766   7.230   1.368  12.809  0.3335 -0.2657  0.1400
19547W        W22767   8.216  13.371   8.516 -0.1898  0.0089 -0.0191
19548W        W22768   1.663  11.288  17.361 -0.7456 -0.0590  0.3515
19549W        W22769   4.951  18.252   3.316 -0.0478 -0.0287  0.0229
19550W        W22770   8.652   0.749  11.103  0.4261 -0.1220  0.0588
19551W        W22771  17.364   3.829  17.101  0.0215 -0.0131  0.0226
19552W        W22772   1.895   3.941  17.914  0.0271  0.0692  0.1719
19553W        W22773  10.226  12.218   0.834 -0.1334 -0.0302  0.0690
19554W        W22774   2.982  12.815   1.401  0.1429  0.2852 -0.0608
19555W        W22775   4.347   3.899   1.249 -0.0053  0.0326 -0.2013
19556W        W22776   2.089  12.555  13.380 -0.0920  0.0436  0.2561
19557W        W22777   9.084  17.560  15.459 -0.0800 -0.2511  0.0834
19558W        W22778  10.113  16.261  10.986 -0.2814 -0.1561  0.1655
19559W        W22779   6.491  14.590  16.739  0.1850 -0.1224  0.0279
19560W        W22780   8.903  16.685   3.817 -0.0914  0.0871 -0.1732
19561W        W22781  10.129   5.762   5.306  0.0102 -0.2624  0.1875
19562W        W22782   5.178   7.519   9.579 -0.1187 -0.2358  0.0008
19563W        W22783   0.893  14.491   0.677  0.0082 -0.0925  0.3856
19564W        W22784   4.572  10.917   0.465  0.0500 -0.2361 -0.3728
19565W        W22785   5.032   9.274   0.706  0.0623  0.1287  0.0275
19566W        W22786   1.505  13.826   0.530 -0.4531  0.0529 -0.3306
19567W        W22787   1.216  14.079  14.737 -0.0294  0.1135 -0.2769
19568W        W22788   3.725   8.916  15.092 -0.0602 -0.2428  0.2756
19569W        W22789   7.654  16.828   1.641 -0.0822  0.1971  0.0957
19570W        W22790   3.179   4.093   0.555  0.1621  0.2155  0.2505
19571W        W22791  17.837   7.580  12.854  0.1393 -0.0127  0.1803
19572W        W22792  10.442   1.404  16.349 -0.2022  0.1247 -0.1791
19573W        W22793   7.892   1.355  14.541  0.1457  0.0660  0.2783
19574W        W22794   6.435   7.381  15.161 -0.0018  0.0452 -0.1776
19575W        W22795  14.397   2.866  13.623 -0.1271 -0.3132  0.3724
19576W        W22796   9.022   1.264  12.138 -0.3363 -0.1254  0.1484
19577W        W22797   6.186  17.960   1.214 -0.0442  0.2101 -0.0688
19578W        W22798   3.214   5.301  15.580  0.2844 -0.2792  0.2360
19579W        W22799  10.704  16.986  12.575  0.0479 -0.2963  0.0782
19580W        W22800   3.024  17.620  11.900 -0.3234  0.0898 -0.2365
19581W        W22801   6.759   0.148  16.182 -0.2210 -0.4452 -0.1185
19582W        W22802  17.835  11.309   0.223  0.2111  0.0277  0.0856
19583W        W22803   1.235  15.667  18.254 -0.1539 -0.0968  0.0081
19584W        W22804   9.347  14.272   0.757 -0.0229 -0.0942 -0.2357
19585W        W22805   9.652  12.868  17.455 -0.1503  0.1723 -0.0511
19586W        W22806  13.975  17.427  13.958 -0.0318 -0.1780 -0.0357
19587W        W22807  11.697   2.646   2.821  0.0218 -0.0103 -0.1405
19588W        W22808   4.171   7.836  10.182 -0.3499  0.1670 -0.2577
19589W        W22809   1.449  13.998  11.312  0.2954  0.1675  0.0135
19590W        W22810  10.874   3.625  13.216  0.0361  0.0963 -0.1009
19591W        W22811   3.193  15.481   2.324  0.1721  0.2903 -0.0659
19592W        W22812   1.707   8.902   0.119  0.2360  0.1592  0.2966
19593W        W22813  17.949   6.217  15.819 -0.2321 -0.0527 -0.3543
19594W        W22814   6.685  12.159  13.887 -0.3426  0.2464 -0.2568
19595W        W22815   6.674   0.073   3.920  0.0784  0.4765  0.2026
19596W        W22816   4.589  15.501  14.608 -0.0269 -0.1776 -0.0055
19597W        W22817   7.861  11.079   0.237 -0.1309 -0.1822  0.0883
19598W        W22818   5.638  11.410   5.372  0.0828  0.1025 -0.0959
19599W        W22819   5.692  15.960  17.481 -0.0662  0.0895 -0.0646
19600W        W22820  11.423  12.646  14.498 -0.0867  0.0362 -0.0521
19601W        W22821   8.993   5.750  17.602  0.3837 -0.2385  0.0868
19602W        W22822  16.593  17.553   0.477 -0.2540 -0.2339 -0.1646
19603W        W22823   1.499  15.021  12.635  0.0150  0.0931  0.2424
19604W        W22824   2.099  13.582   9.734 -0.1720 -0.1204  0.0381
19605W        W22825   2.630   2.468  15.293  0.0114 -0.0960  0.1872
19606W        W22826  10.928   2.626  10.228  0.1152 -0.2797 -0.0038
19607W        W22827   7.940   9.176  14.661  0.1766  0.2081  0.3610
19608W        W22828   6.383   4.144   0.448 -0.2907 -0.1121  0.1997
19609W        W22829   3.640   9.006   9.637  0.0975 -0.0853 -0.1771
19610W        W22830   9.779   6.916  14.955 -0.3071  0.0075 -0.0140
19611W        W22831   0.746   1.933  16.020  0.0443  0.3144  0.0456
19612W        W22832   1.387  14.569  15.539  0.1012 -0.0553 -0.1799
19613W        W22833   8.850  11.291  11.009 -0.2966 -0.3376 -0.2387
19614W        W22834   7.857   1.113  17.660  0.2005  0.2691  0.1702
19615W        W22835  14.523   1.291  17.342  0.2909 -0.1376  0.1546
19616W        W22836  11.052   0.497   7.924  0.0221  0.0835 -0.3239
19617W        W22837  11.950  17.715   0.171  0.2996  0.0886  0.3646
19618W        W22838   0.458   0.905  16.160  0.1400 -0.2531  0.0812
19619W        W22839   9.119   4.237  16.879  0.0083  0.0833 -0.0222
19620W        W22840   6.307  10.039  17.997 -0.2381 -0.0711 -0.0864
19621W        W22841   1.570   5.285  17.583 -0.1352  0.3765 -0.0304
19622W        W22842   1.864   1.971  10.183 -0.3958 -0.1447 -0.0425
19623W        W22843   3.308   0.235   8.812  0.2538  0.2030  0.2561
19624W        W22844  11.956  15.116  15.562 -0.1591 -0.0697 -0.1808
19625W        W22845   9.804  16.190  10.054 -0.0476 -0.0385  0.0382
19626W        W22846  10.367   5.815   1.036  0.1218  0.0909 -0.1289
19627W        W22847   7.283   2.514   0.113  0.0444  0.0251  0.0505
19628W        W22848   1.797  17.369  11.419  0.3218  0.0934 -0.1656
19629W        W22849   6.854   2.049  17.479 -0.2622  0.0421  0.0202
19630W        W22850   5.471   9.178  13.865 -0.1588  0.0933  0.1625
19631W        W22851   2.413  15.808  16.719 -0.2294  0.1027  0.1634
19632W        W22852   9.420   2.949   1.102  0.3370 -0.0279 -0.1008
19633W        W22853   5.961  12.347   1.247 -0.1402  0.0344  0.0080
19634W        W22854   7.322  16.345  15.603 -0.1437 -0.0946 -0.1971
19635W        W22855   3.278   4.045  15.557  0.0110 -0.1299 -0.2778
19636W        W22856   7.452  17.037   4.145 -0.0876 -0.0525  0.0394
19637W        W22857  17.976  17.970  13.813 -0.0376 -0.1709  0.1296
19638W        W22858   0.921  15.025  10.729 -0.3543  0.0683  0.1196
19639W        W22859  11.292   0.613   1.792  0.1646  0.1765  0.0895
19640W        W22860   1.374  16.991  16.073  0.1063 -0.1435 -0.1317
19641W        W22861  11.160  16.828   1.412  0.0884 -0.1997  0.1491
19642W        W22862  11.149  15.415   6.042  0.3517  0.0047  0.2881
19643W        W22863  16.026  17.132  14.998  0.3450  0.1856  0.1180
19644W        W22864  14.457   8.528  17.418  0.3238 -0.1187  0.4789
19645W        W22865  12.835  15.323  15.280  0.1360 -0.2850 -0.0743
19646W        W22866   3.598  17.534  13.793 -0.1842 -0.0292  0.1098
19647W        W22867   7.218   0.401   3.159  0.3238 -0.0517 -0.0172
19648W        W22868  18.255  17.053  11.140  0.0051 -0.0432 -0.0317
19649W        W22869   1.909   1.746  13.094  0.2141 -0.2570  0.2927
19650W        W22870  11.050   4.281  16.036 -0.1624 -0.0636  0.0610
19651W        W22871   1.387   6.261  15.095  0.2529 -0.3134 -0.3201
19652W        W22872   4.656  15.274  15.026 -0.0980  0.2222  0.0844
19653W        W22873  10.631   2.213   0.918  0.1977  0.3513 -0.1172
19654W        W22874   6.505  13.689  12.077 -0.0966  0.2354  0.1434
19655W        W22875  17.831  13.285  15.735  0.1032  0.1174  0.1345
19656W        W22876   4.326  17.942  17.035  0.2890 -0.2339  0.1924
19657W        W22877  10.731  16.546  14.227 -0.1486  0.2359 -0.1752
19658W        W22878   9.094  13.760  16.309 -0.2717  0.1560 -0.0082
19659W        W22879  17.899   2.022  16.468 -0.2211 -0.1969 -0.1149
19660W        W22880   0.729  14.110  16.366  0.0018 -0.0401 -0.0321
19661W        W22881   5.512  17.694   0.134  0.4296 -0.0145  0.0672
19662W        W22882   2.015  17.000   8.394  0.0667 -0.2624  0.0609
19663W        W22883   2.827   1.435   2.141 -0.0776 -0.1579 -0.2801
19664W        W22884  18.216   5.147   5.388 -0.4973 -0.0022  0.0751
19665W        W22885  16.877  16.362  13.937 -0.3062  0.0669 -0.0536
19666W        W22886  13.865  16.752  16.340  0.5201  0.1589 -0.0272
19667W        W22887   4.024  17.366   2.702 -0.1318  0.0549 -0.0954
19668W        W22888   1.829  18.109  15.326  0.0393 -0.4605  0.0446
19669W        W22889   9.398   4.632  13.046  0.4228  0.1495  0.4146
19670W        W22890  14.876   3.727  14.244 -0.1449 -0.0220  0.0718
19671W        W22891   5.427  15.987  10.198 -0.0452 -0.3969  0.0334
19672W        W22892   2.291  13.213   1.970  0.0904  0.0700 -0.2399
19673W        W22893   3.845  16.534   4.606  0.1858 -0.1569 -0.0567
19674W        W22894   8.291  10.261  17.558 -0.0197 -0.2527  0.2410
19675W        W22895   5.366   1.361  12.880  0.2462  0.1460 -0.0192
19676W        W22896  10.417  14.378  12.273 -0.2378  0.3865 -0.0755
19677W        W22897  16.709   4.736  14.005  0.2707 -0.2803 -0.0258
19678W        W22898   4.306   3.550  13.785 -0.0844 -0.2615 -0.1426
19679W        W22899   3.372   1.777   3.150 -0.2495  0.1445 -0.0768
19680W        W22900   0.808  12.020  12.227 -0.0075 -0.3087 -0.4046
19681W        W22901   6.166  17.319  14.011  0.2372 -0.0029 -0.0394
19682W        W22902   0.818  14.329   3.434 -0.1183 -0.1173 -0.0815
19683W        W22903  11.988   3.135  16.846 -0.3057  0.1662 -0.0134
19684W        W22904   2.899  15.821  10.311 -0.1762 -0.1720 -0.2861
19685W        W22905   2.291   3.291  17.240  0.0806  0.0439  0.5525
19686W        W22906   8.919   3.992  16.510  0.1139 -0.2173  0.1717
19687W        W22907   1.619   0.881  11.406 -0.0714  0.3452 -0.1006
19688W        W22908  13.351   6.735   2.022 -0.0538  0.3718 -0.0947
19689W        W22909   1.398   4.142  11.138  0.0344  0.0890 -0.2970
19690W        W22910  14.008   9.980   0.916  0.0921  0.2432 -0.1878
19691W        W22911   0.236  10.562  12.025 -0.0215 -0.2096 -0.3152
19692W        W22912   7.385  14.754  16.584  0.0253  0.1241 -0.1556
19693W        W22913   3.243  15.441  17.321 -0.3473 -0.3402  0.0485
19694W        W22914   8.654  12.541   6.513  0.1719 -0.0461  0.0614
19695W        W22915   3.014  12.198  14.264  0.0040  0.0129 -0.2270
19696W        W22916   3.270  12.696  18.123 -0.0578  0.1916 -0.2720
19697W        W22917   9.963   5.655  17.568 -0.1145  0.0427 -0.5299
19698W        W22918  13.390   4.248   4.564  0.1773 -0.0826  0.1184
19699W        W22919  15.175  16.921  13.426  0.1159 -0.0426  0.1933
19700W        W22920   5.484   2.674  10.435 -0.1534  0.0479 -0.1652
19701W        W22921   4.987   3.789  15.887  0.0386  0.3995 -0.3547
19702W        W22922   4.935   5.921  17.801 -0.3774  0.0004 -0.1168
19703W        W22923   3.794   2.285   3.123  0.1668 -0.2702 -0.0640
19704W        W22924   0.513   0.938  13.967 -0.2010  0.0957 -0.1988
19705W        W22925   5.974  16.160   0.579 -0.2304 -0.0122 -0.1883
19706W        W22926   1.319  17.805  13.433  0.1532  0.0933 -0.1271
19707W        W22927  18.222   4.748  13.757  0.0571  0.0854 -0.0105
19708W        W22928  17.737  15.716   2.114  0.0014 -0.0802  0.0309
19709W        W22929   8.894   0.479   2.771 -0.4380 -0.1708  0.0259
19710W        W22930   3.510  15.936  17.129  0.1315  0.0037  0.0632
19711W        W22931   6.479  17.272  12.671 -0.1636  0.0787 -0.0338
19712W        W22932   3.077  12.875  11.432  0.1206  0.0924 -0.1014
19713W        W22933   9.127   2.245  15.634  0.2389  0.0391 -0.0374
19714W        W22934   0.393   2.053  17.534 -0.0705  0.0563  0.2077
19715W        W22935   5.029  15.375  13.028 -0.0255  0.0888  0.1134
19716W        W22936   0.170  16.271  12.510 -0.0160 -0.1709 -0.0449
19717W        W22937   1.940   9.909   0.969  0.0845 -0.0834  0.0574
19718W        W22938   1.087  17.609  11.603  0.0265  0.0611 -0.0598
19719W        W22939  17.225  16.961  17.456 -0.3381  0.1136  0.1225
19720W        W22940  14.788  16.014   5.391 -0.0737 -0.0600  0.1367
19721W        W22941  12.287   5.836   0.247  0.0857 -0.0342  0.4197
19722W        W22942   7.502   2.237  17.983 -0.1344 -0.1218  0.1153
19723W        W22943   7.264   5.063   0.668  0.0269 -0.2145  0.4168
19724W        W22944   0.330   5.125  12.768  0.2509 -0.0173 -0.0035
19725W        W22945   3.836   0.106  16.122  0.0473  0.0320  0.0826
19726W        W22946   7.541  17.638   3.598 -0.1596  0.1244 -0.1775
19727W        W22947   7.178  15.989   1.760  0.0394 -0.0614 -0.4135
19728W        W22948   5.366   1.715   6.054 -0.0983 -0.2128 -0.3428
19729W        W22949  14.796   1.387   9.150 -0.1030 -0.0857  0.0908
19730W        W22950   3.241  15.999  18.155  0.0216 -0.0743  0.0526
19731W        W22951  16.706  13.890   0.222 -0.2416 -0.2061 -0.3673
19732W        W22952   2.163   1.231  14.988  0.0260  0.3407  0.0322
19733W        W22953  14.094  15.247  15.188  0.1803  0.2408  0.0589
19734W        W22954   0.863   0.004   8.283 -0.0187  0.1309  0.4170
19735W        W22955   2.226   3.770   6.940 -0.1236  0.0629 -0.0884
19736W        W22956  15.523   5.082   9.855  0.0815  0.0887 -0.1503
19737W        W22957   6.447  13.194   1.613  0.0478 -0.0444  0.1664
19738W        W22958   7.376   5.843   3.835 -0.2815 -0.0139  0.1221
19739W        W22959   8.604   2.587   5.125 -0.1764  0.1214  0.1762
19740W        W22960  11.919   5.269  17.034 -0.2823 -0.1896 -0.2723
19741W        W22961   8.964   3.795   9.674  0.0032  0.3352  0.5369
19742W        W22962  13.601   0.212  14.417 -0.2618  0.1221 -0.0032
19743W        W22963   7.905  12.412   2.712 -0.0736 -0.2261 -0.1907
19744W        W22964   6.523  13.570   4.369  0.0194  0.4932  0.4215
19745W        W22965   8.966  17.588   7.208 -0.0723  0.1930  0.0167
19746W        W22966   4.604   1.114   5.151  0.2495 -0.0785 -0.1634
19747W        W22967   8.340   7.471  17.412 -0.1583 -0.2542 -0.2398
19748W        W22968   4.672   6.313   2.832  0.4354 -0.3257  0.3669
19749W        W22969   8.385  15.591  12.833  0.1387  0.0399  0.0208
19750W        W22970   5.687   2.715  17.787 -0.0733 -0.5075  0.1237
19751W        W22971   8.975   6.576  12.455  0.2530  0.0097 -0.1659
19752W        W22972   9.946   0.391  15.419 -0.1764  0.0581  0.1145
19753W        W22973   4.420   4.831   1.788 -0.1194 -0.1734  0.0545
19754W        W22974  14.247   2.525   4.650 -0.0752  0.0356 -0.0736
19755W        W22975   4.406   4.241   5.920 -0.2889  0.4675 -0.0063
19756W        W22976  10.199   1.315   2.732  0.0483 -0.1744 -0.1134
19757W        W22977   9.033   4.101   7.315  0.1150  0.1066  0.0174
19758W        W22978   1.349   8.058   3.780 -0.0185  0.1377  0.2900
19759W        W22979  13.473  16.148   0.211  0.0625  0.1317  0.2453
19760W        W22980  13.509   0.980   3.171 -0.2084 -0.0935 -0.2378
19761W        W22981  11.261  10.728   7.380 -0.0367  0.0537  0.2344
19762W        W22982  10.935   0.801   6.641  0.1574  0.1610 -0.1896
19763W        W22983   1.513   3.874  13.419  0.3617 -0.1495  0.0198
19764W        W22984   4.862   0.899   4.173 -0.0922 -0.2982 -0.0151
19765W        W22985   0.080   7.114  17.146 -0.1507  0.0219  0.0404
19766W        W22986   8.579  13.054  17.320  0.0791  0.1434  0.0380
19767W        W22987  13.618   2.517   2.856 -0.2974  0.1227  0.3340
19768W        W22988   3.383  17.494   3.285 -0.5283  0.1274  0.1042
19769W        W22989   4.887   4.402   1.778 -0.0190  0.0364 -0.0454
19770W        W22990   4.851   6.511   5.374  0.0508 -0.1668 -0.2898
19771W        W22991   9.522   6.290  13.832 -0.0871  0.2910  0.2968
19772W        W22992  10.157  18.059   7.090  0.1692  0.1147 -0.0397
19773W        W22993  13.023  15.551   4.635 -0.0799  0.2229 -0.2624
19774W        W22994   7.572   0.748  16.728 -0.1289 -0.0604  0.2014
19775W        W22995   3.115   5.429  17.464 -0.0943 -0.1840 -0.0162
19776W        W22996   2.885  17.366   0.332  0.0587 -0.1277 -0.4939
19777W        W22997  11.211   0.117  16.498  0.2371 -0.0646  0.0031
19778W        W22998   2.034  11.527   6.302 -0.0209  0.0178 -0.1042
19779W        W22999   6.930   2.452  16.239 -0.1540 -0.0540  0.3469
19780W        W23000  12.872   5.446   3.567 -0.2113  0.3423 -0.0758
19781W        W23001   9.528   3.022   2.111 -0.2128 -0.2865  0.0431
19782W        W23002   8.940   5.038   4.040 -0.0050 -0.1642 -0.2533
19783W        W23003   4.192   5.207   7.159 -0.0254 -0.0137  0.1977
19784W        W23004   0.690   3.007   3.430 -0.0528 -0.1161  0.0665
19785W        W23005  15.178  16.580   8.836  0.1269 -0.3381  0.1155
19786W        W23006   6.679  17.952   0.121 -0.1091 -0.0378 -0.0647
19787W        W23007  15.292   0.729  15.635 -0.1076 -0.0526 -0.0800
19788W        W23008  11.398   7.080  17.242 -0.1884  0.0754 -0.4474
19789W        W23009  11.235   4.489  12.939  0.1028  0.3492 -0.3942
19790W        W23010   6.689   9.231   5.807 -0.1624 -0.1220  0.0417
19791W        W23011   3.333  13.625   2.905  0.5323 -0.1611  0.0244
19792W        W23012  10.751   3.823   3.195  0.1302 -0.1116  0.0856
19793W        W23013  12.642   5.555  11.841  0.1722  0.1025  0.2962
19794W        W23014  14.492  15.777   0.589  0.1199  0.1518 -0.0933
19795W        W23015  13.100  15.081   4.774  0.0887  0.2072 -0.1742
19796W        W23016   5.911  16.839   2.303 -0.1247 -0.1785 -0.1298
19797W        W23017   5.438  11.941   2.349 -0.0241  0.0285  0.1982
19798W        W23018   8.791   2.151   2.839 -0.0606  0.1938  0.2069
19799W        W23019   2.728   9.528   7.756 -0.2278 -0.2077  0.0184
19800W        W23020   9.968  18.189   9.654 -0.2683  0.2674 -0.0525
19801W        W23021   8.741   1.198   9.680  0.0364 -0.0654  0.3133
19802W        W23022  13.023   8.314   2.655 -0.1128 -0.0488  0.1867
19803W        W23023   8.560   3.087   2.774  0.1371 -0.3165  0.2448
19804W        W23024   5.012  16.704  17.450  0.1160  0.0411  0.0301
19805W        W23025   6.469  18.209  15.700 -0.1997 -0.0396 -0.1982
19806W        W23026  11.521   3.815   5.548  0.3139  0.2137  0.0331
19807W        W23027  11.262  16.526   6.797 -0.0677 -0.0058 -0.1449
19808W        W23028  11.045  15.870   5.704  0.3249 -0.0759 -0.2893
19809W        W23029   0.651   4.242   4.755 -0.1338  0.0672 -0.0856
19810W        W23030  12.799  13.702   1.753  0.3117  0.1071 -0.2675
19811W        W23031  14.634   2.577   9.712 -0.0204 -0.0456  0.3311
19812W        W23032  12.780  16.638   3.955  0.0143 -0.1646 -0.0752
19813W        W23033   7.282   0.688   1.805  0.2401  0.0472  0.0917
19814W        W23034  12.219  10.995  13.881 -0.2683 -0.1142  0.1486
19815W        W23035  15.255   2.075   0.389  0.2256  0.2321 -0.0007
19816W        W23036   9.728   2.078   1.611 -0.0763 -0.1473  0.2470
19817W        W23037   8.551   6.821   0.776  0.2011 -0.0849  0.1103
19818W        W23038  12.458  15.134   2.723  0.1231 -0.1003  0.0931
19819W        W23039   5.149  17.748   3.666  0.0645 -0.1982 -0.1558
19820W        W23040  13.085  17.598  17.200  0.1404 -0.0267 -0.2291
19821W        W23041   9.326   9.396   0.765 -0.1229  0.0884  0.0185
19822W        W23042  15.143  17.679   0.530  0.2838 -0.3848  0.3826
19823W        W23043   8.640   2.751   4.291  0.0238 -0.0671  0.0539
19824W        W23044   8.017   2.558   1.037  0.0485  0.2159 -0.0484
19825W        W23045  11.079   1.474   4.922  0.0412 -0.0978 -0.2695
19826W        W23046  11.943  16.650   5.651 -0.2327  0.1447 -0.1908
19827W        W23047   7.807   4.360   8.919  0.0301  0.0656  0.0582
19828W        W23048  13.766  17.975  13.988  0.0356  0.1552 -0.0172
19829W        W23049   1.172   5.678   3.632 -0.1043  0.2233 -0.0447
19830W        W23050   9.588  13.448   4.847 -0.0650 -0.2494 -0.0201
19831W        W23051   8.396  17.606   2.463  0.0593  0.1316  0.2704
19832W        W23052   8.477   1.709   4.785 -0.2086 -0.0134  0.0827
19833W        W23053   9.627   8.041   2.680  0.1788 -0.1482  0.2299
19834W        W23054  17.912   2.713  17.580  0.0683 -0.0691  0.1479
19835W        W23055  11.114   0.594   5.141  0.3996  0.0653 -0.0858
19836W        W23056  10.260   9.135   0.949  0.1523 -0.0008  0.2706
19837W        W23057   7.618   1.357   6.328 -0.4003  0.0584 -0.1981
19838W        W23058   0.400   3.764   6.423 -0.2018  0.1658  0.3317
19839W        W23059   9.418   4.012  13.625  0.0162 -0.2281 -0.0033
19840W        W23060  10.275   7.157   7.347 -0.0676  0.1378  0.2512
19841W        W23061   8.090  17.658   4.877  0.0343 -0.0901  0.1599
19842W        W23062   5.947   7.917   2.275  0.0330 -0.1715 -0.3842
19843W        W23063  10.034   3.368   5.014  0.1626 -0.2994 -0.0824
19844W        W23064   9.369  15.593   2.346  0.1423  0.0940 -0.0211
19845W        W23065  14.732   7.053   9.624  0.1662 -0.2120 -0.4051
19846W        W23066   6.561   2.598   4.614 -0.1403 -0.1634 -0.0851
19847W        W23067  11.796   1.146  17.644 -0.1636 -0.3446  0.0825
19848W        W23068  17.878   2.398   3.780  0.2086 -0.0726 -0.0353
19849W        W23069   8.556   0.116  11.791 -0.0532  0.1217 -0.0129
19850W        W23070  11.115  13.018   8.089  0.0399 -0.2004  0.2202
19851W        W23071   7.549  14.916  15.260 -0.0876 -0.3134  0.1627
19852W        W23072   0.356   9.750  14.129 -0.0840 -0.1043  0.2276
19853W        W23073   6.773   1.579   1.248 -0.4567 -0.1537  0.1304
19854W        W23074  13.818   3.572   2.125  0.0924 -0.3000 -0.0833
19855W        W23075   5.945  14.310   3.984  0.0098 -0.0969  0.0256
19856W        W23076   1.333   2.595   5.171  0.3355 -0.2031 -0.4014
19857W        W23077  10.994   1.796  14.652  0.1756 -0.1279 -0.0409
19858W        W23078  12.755   4.689  18.038  0.2118  0.1194  0.2273
19859W        W23079   4.648   4.896   3.720  0.0192 -0.1690  0.0084
19860W        W23080   4.072   0.585  16.042  0.1542  0.0069  0.2393
19861W        W23081   7.917  10.570  14.921 -0.0044  0.2102  0.0369
19862W        W23082  10.441   2.488  15.698 -0.0385 -0.0179 -0.1528
19863W        W23083   7.905   3.596   7.092 -0.0136  0.2682  0.0788
19864W        W23084   7.198  14.661   4.511  0.1482 -0.1454  0.0868
19865W        W23085   5.661  17.901   9.725  0.0538 -0.1178  0.0907
19866W        W23086   3.166   1.210   2.422  0.1719 -0.0818  0.0573
19867W        W23087  12.364  16.958  17.449  0.1942  0.0088  0.1506
19868W        W23088   6.251  15.855  16.115 -0.1317 -0.1291 -0.0995
19869W        W23089  12.997  17.240   1.995  0.0363 -0.2752 -0.0686
19870W        W23090   9.167  18.208  14.347 -0.0461  0.0697  0.4703
19871W        W23091   3.651   5.621  16.998  0.1767 -0.0230 -0.1213
19872W        W23092   0.908   8.173   1.579  0.0213 -0.2006  0.1790
19873W        W23093   9.330   8.155   4.990 -0.0952 -0.1719  0.1370
19874W        W23094  17.745   5.396   6.778 -0.2081 -0.1294  0.0487
19875W        W23095   6.464  15.444  14.896 -0.1622  0.4016 -0.1821
19876W        W23096   5.414   2.321   8.475  0.1538 -0.0829  0.0783
19877W        W23097  10.438   3.486  14.491  0.4111  0.1827  0.0955
19878W        W23098  18.016  17.632   4.728 -0.0653 -0.4400  0.1424
19879W        W23099   6.800  17.798   0.643  0.1794 -0.0819  0.0717
19880W        W23100   9.387   4.028   4.575 -0.0572 -0.2866  0.0108
19881W        W23101  14.151   2.225   3.158  0.3138  0.0462 -0.1183
19882W        W23102  15.085   4.196   0.933  0.0191  0.1629  0.0539
19883W        W23103   6.676   5.009   3.539  0.0027 -0.1671  0.1391
19884W        W23104  11.752   1.925   0.092  0.1895  0.1440 -0.0130
19885W        W23105   8.843  14.670  15.807 -0.0744 -0.5498 -0.2597
19886W        W23106   5.876   4.848   4.329 -0.1994  0.0514  0.1722
19887W        W23107   0.040   6.637   3.130 -0.0904 -0.1050 -0.0240
19888W        W23108   8.810  17.203   3.834  0.0666 -0.1551 -0.3111
19889W        W23109   5.899  18.176   1.537  0.2484 -0.0538  0.0273
19890W        W23110   7.198  16.475   8.312  0.0377  0.0177  0.2333
19891W        W23111   8.660   3.505   3.056 -0.0947  0.0882  0.0046
19892W        W23112   8.969   4.660   3.010 -0.2834 -0.0767 -0.0131
19893W        W23113   9.578   3.441   0.263 -0.1226  0.0051 -0.0390
19894W        W23114  11.388   0.390   9.062  0.0799 -0.0484  0.0033
19895W        W23115  10.163   0.329  10.950 -0.0998  0.2247  0.1903
19896W        W23116   9.624   3.492   5.422 -0.2137  0.3392 -0.2800
19897W        W23117   9.956   6.559   6.538  0.0651  0.0169 -0.1372
19898W        W23118   1.760   5.386  17.103  0.0009  0.0912 -0.1251
19899W        W23119  14.695  11.584   7.808  0.1739 -0.0655 -0.1017
19900W        W23120   6.613   1.852   2.569  0.2149 -0.2822 -0.0999
19901W        W23121  16.422  11.352  16.062 -0.0375  0.0613  0.1078
19902W        W23122   9.386  13.228   2.112  0.0909  0.1266 -0.0471
19903W        W23123   5.318  15.630  12.602  0.0715  0.0341  0.2570
19904W        W23124   3.353   5.024   6.875 -0.1881 -0.0537  0.1924
19905W        W23125   9.197  13.915  18.084 -0.2040 -0.2077  0.1482
19906W        W23126   3.604  16.488  17.686 -0.2100 -0.0834  0.0951
19907W        W23127  17.425   6.948   0.814  0.2953  0.1064  0.1206
19908W        W23128  13.843   4.805  10.932 -0.0065  0.0389  0.2455
19909W        W23129   7.114  12.461   3.376  0.2044  0.1624  0.1248
19910W        W23130   6.582  11.519   7.583 -0.0981 -0.0035 -0.4879
19911W        W23131   4.514   9.534  17.359  0.0713  0.4383  0.1380
19912W        W23132   1.742   0.468  17.320 -0.4083  0.1469  0.1228
19913W        W23133  14.872   7.214   3.539  0.1794  0.1834 -0.0824
19914W        W23134  13.729   6.197   0.504 -0.0136 -0.0190 -0.0929
19915W        W23135  12.739   9.625   4.955 -0.1522 -0.1137 -0.0591
19916W        W23136   6.768  11.782  17.637 -0.0947 -0.1020 -0.1994
19917W        W23137   3.546   3.620   1.786  0.1274 -0.3085 -0.2221
19918W        W23138   5.651   4.010   1.748  0.1661  0.1928  0.0668
19919W        W23139   4.857   1.044  16.307 -0.2692 -0.2189 -0.2878
19920W        W23140   6.261   4.748   6.684 -0.4395 -0.2187 -0.1255
19921W        W23141   8.266   2.185   5.615 -0.0288 -0.1193  0.0907
19922W        W23142  15.100   2.632   3.980  0.2640 -0.2700 -0.1471
19923W        W23143   2.449  17.879  15.832 -0.2740 -0.3686 -0.2291
19924W        W23144   0.442   4.935   2.623  0.0622 -0.0155  0.0946
19925W        W23145   2.415   5.691  14.816  0.0620  0.0441  0.2509
19926W        W23146  11.211  16.751  16.022 -0.2672  0.1594  0.0171
19927W        W23147  14.736   1.045  15.534  0.2859 -0.2300  0.3307
19928W        W23148   6.341  17.322   4.190 -0.0172  0.0146  0.3222
19929W        W23149   7.847   7.109   1.488  0.0322 -0.1736  0.0311
19930W        W23150  13.340  12.279   5.493 -0.1686 -0.4291  0.1717
19931W        W23151   4.716   1.511  18.258 -0.3156  0.2489 -0.2553
19932W        W23152   4.442   5.769   8.911 -0.1784  0.1147 -0.1157
19933W        W23153   9.985   4.652   3.062  0.1776 -0.0331 -0.0918
19934W        W23154  11.830   0.838   8.614 -0.1575  0.1144 -0.3290
19935W        W23155   7.422  16.723   1.115 -0.0772  0.1252  0.0356
19936W        W23156   7.383  18.001   0.814  0.0825  0.0114  0.0124
19937W        W23157   7.516   3.797   2.805 -0.3445  0.0459  0.1229
19938W        W23158  17.647   1.902  14.080 -0.2838  0.1412  0.2372
19939W        W23159   9.759   4.117   6.141 -0.0920  0.1579  0.0235
19940W        W23160  10.790   4.481   4.104  0.0255 -0.0565 -0.4071
19941W        W23161  10.183  17.505   3.280  0.1839 -0.1704 -0.1792
19942W        W23162  16.584   8.561   2.124 -0.1350  0.2789 -0.3968
19943W        W23163  12.909   2.979   9.143 -0.0072 -0.1861 -0.1300
19944W        W23164   5.521  14.990  13.439 -0.0413  0.1467  0.1360
19945W        W23165   1.263  16.122  10.981 -0.1967 -0.0790  0.1839
19946W        W23166  13.376   8.935   8.865 -0.0456 -0.1822  0.1619
19947W        W23167  15.206   4.372   0.159  0.1870 -0.0297  0.4175
19948W        W23168  12.439   3.758   0.419  0.3643  0.3303 -0.0848
19949W        W23169   7.958   4.982   7.319 -0.0483  0.2587 -0.0701
19950W        W23170  10.754   1.973   3.571  0.1779  0.1762  0.2345
19951W        W23171  13.259   5.172   7.654 -0.0583 -0.0643  0.0425
19952W        W23172   2.587   7.572  15.845 -0.0889  0.1898  0.2228
19953W        W23173   6.490  18.000   6.301  0.1311  0.2918  0.2552
19954W        W23174   3.772   3.868   0.561 -0.0991  0.0111 -0.2482
19955W        W23175   4.806   7.538  16.162  0.0075  0.2409 -0.0774
19956W        W23176   6.494   3.523   6.232 -0.1486 -0.4983  0.3510
19957W        W23177   7.484  18.034   1.312 -0.2505  0.3627 -0.1104
19958W        W23178   4.378  18.009   8.079 -0.0597  0.2734  0.0901
19959W        W23179   7.429   6.428   5.594 -0.0103  0.1570  0.0799
19960W        W23180  13.469  16.003   7.241 -0.0332  0.1212 -0.4997
19961W        W23181  12.806   4.240  17.371  0.1356 -0.0541  0.0050
19962W        W23182   9.038  16.068   1.024  0.0906  0.3557  0.1345
19963W        W23183   2.321   4.275   7.682  0.1467  0.0314  0.2288
19964W        W23184   8.117   1.288   2.851  0.3142 -0.3231 -0.0304
19965W        W23185  14.739   5.741  14.776 -0.2125  0.1349 -0.1600
19966W        W23186   9.370  10.030   2.557  0.3407  0.2992 -0.1383
19967W        W23187   9.597   1.631   1.570  0.0159  0.1397 -0.2312
19968W        W23188   7.230   3.097   1.375  0.3720  0.1081  0.0886
19969W        W23189  11.112  10.474   5.846 -0.1081  0.2073  0.0427
19970W        W23190  15.019   1.628   4.798 -0.1046  0.0045 -0.2788
19971W        W23191   1.401   0.999   6.943 -0.2452 -0.2061  0.2209
19972W        W23192   6.383   5.373  15.967  0.0762  0.0772  0.1444
19973W        W23193   5.353  14.625   6.857 -0.0311 -0.0595  0.2157
19974W        W23194   8.540   0.356   3.632  0.1658  0.2155 -0.0599
19975W        W23195  14.767   2.849   1.986  0.1650  0.0472 -0.0202
19976W        W23196   8.887   1.283   7.555  0.2079  0.0356 -0.0196
19977W        W23197  11.848  15.562   6.800 -0.0400  0.0566  0.3299
19978W        W23198   7.925   2.905   8.893  0.1328  0.0348  0.0681
19979W        W23199  11.233  14.491  17.319 -0.1237 -0.1357  0.0794
19980W        W23200   8.905   0.379  16.907 -0.2308 -0.0735 -0.0062
19981W        W23201  13.717   5.595  13.106  0.0287 -0.1199 -0.1612
19982W        W23202   6.402  17.744   4.464  0.0703 -0.0535  0.1296
19983W        W23203  14.384   8.561   1.215  0.0192  0.0740 -0.2082
19984W        W23204   7.250  16.554   1.844  0.0472  0.4695 -0.3785
19985W        W23205   9.751   1.793  15.657  0.2525  0.0717 -0.0505
19986W        W23206  13.308   0.586   1.129 -0.1766 -0.0876  0.0342
19987W        W23207  10.199   3.336   4.263  0.1545  0.0273 -0.1962
19988W        W23208   2.163   2.698   4.661  0.3182  0.3327 -0.1281
19989W        W23209  13.521   1.600   1.251  0.1196 -0.1874  0.0731
19990W        W23210  16.769   3.594  13.889 -0.0658 -0.0786 -0.1690
19991W        W23211   9.868   5.254   2.511  0.1450 -0.0970  0.0340
19992W        W23212  12.618   5.179   0.732  0.2213 -0.1964 -0.0763
19993W        W23213   7.596   0.104   2.410 -0.1943 -0.0790  0.0812
19994W        W23214   9.658   8.224   9.662 -0.0076  0.1905 -0.2569
19995W        W23215  17.819  14.208   2.505  0.1564  0.1357  0.0610
19996W        W23216   4.878  15.642   3.567  0.0999 -0.3040  0.0201
19997W        W23217   8.687   0.107   0.745  0.0011  0.1840  0.3861
19998W        W23218   7.826   0.407  15.383 -0.3392  0.0124  0.1048
19999W        W23219   8.688   2.923  10.461 -0.1349  0.0370  0.0069
20000W        W23220  16.229  14.383   4.793  0.1678 -0.0301  0.0890
20001W        W23221  16.282   6.819  16.946  0.3584 -0.1527 -0.0589
20002W        W23222   6.636   1.722  18.014 -0.0296  0.1017 -0.2590
20003W        W23223   0.429   1.145  15.046 -0.0024 -0.0087  0.0368
20004W        W23224  12.480   6.113   2.330 -0.7131  0.0426 -0.0394
20005W        W23225  13.201  17.634  15.907  0.3161  0.0547 -0.0836
20006W        W23226   6.974   3.800  16.939  0.0712 -0.3364  0.1608
20007W        W23227  11.948   2.629   8.933 -0.3029  0.0360  0.0257
20008W        W23228  15.158   4.172   2.351 -0.2003  0.0131 -0.1131
20009W        W23229  14.216   5.188   9.353 -0.1818 -0.1217 -0.1043
20010W        W23230   9.488   4.442  15.094  0.2975 -0.1851  0.0039
20011W        W23231  10.494   6.196   0.188 -0.1342 -0.0017  0.4082
20012W        W23232  16.980  15.362  12.095 -0.3073  0.0906 -0.1057
20013W        W23233   7.770   3.478   2.250  0.2574 -0.1096 -0.1373
20014W        W23234   8.863   1.975  10.033  0.0894 -0.5029 -0.1241
20015W        W23235   7.050   9.001   3.499  0.2227  0.1143  0.2252
20016W        W23236   9.127   1.176  17.637 -0.1075 -0.0829  0.2183
20017W        W23237   0.565   0.970   7.151  0.0560 -0.0394  0.0135
20018W        W23238  15.228  13.211   2.675  0.1433 -0.0738  0.0836
20019W        W23239   6.803   3.296   4.891 -0.0740 -0.0415 -0.0974
20020W        W23240   8.403  13.350   4.884  0.0891 -0.0224  0.1897
20021W        W23241   9.262   5.266   8.883  0.0836  0.1393 -0.0927
20022W        W23242  16.505   2.315   8.258  0.2199  0.1157  0.2108
20023W        W23243  12.227   1.176   7.768  0.1923  0.1468  0.3992
20024W        W23244  14.381  13.735   8.075 -0.2873  0.2650  0.2636
20025W        W23245   9.867   8.658  14.521 -0.0554 -0.2773  0.1564
20026W        W23246  14.961  16.062   0.505  0.2531 -0.1225 -0.0112
20027W        W23247   4.455   3.320  17.795 -0.1755  0.2557 -0.1848
20028W        W23248   9.008   0.220  13.597 -0.0419  0.1073 -0.0847
20029W        W23249   5.608  16.408  17.150  0.0319 -0.1284 -0.0667
20030W        W23250   8.166   5.254   3.370  0.0370 -0.1134  0.0716
20031W        W23251  14.068  12.141   4.603  0.1539 -0.2407  0.0769
20032W        W23252  11.232   3.337   1.615  0.2052  0.0043  0.2964
20033W        W23253   6.597   1.108   6.180  0.1944 -0.0053 -0.1625
20034W        W23254   2.404   6.162   1.165 -0.0921 -0.1476  0.0651
20035W        W23255   8.952   3.513   4.603 -0.0728  0.4501 -0.1201
20036W        W23256  12.725  15.022   0.273  0.1504  0.3421 -0.1415
20037W        W23257   9.596   1.943   2.961 -0.2578 -0.3165 -0.1145
20038W        W23258   7.212   3.822   0.001  0.0087  0.1029  0.0619
20039W        W23259   8.294  10.048   7.297 -0.0294  0.0100  0.2547
20040W        W23260  14.838   8.843   7.824  0.1263 -0.4933 -0.0234
20041W        W23261  10.751   2.327   6.907 -0.1720  0.1034 -0.2075
20042W        W23262   0.570   4.649  15.084  0.0662  0.2261 -0.1267
20043W        W23263  16.225  17.126   7.367 -0.1467  0.0813 -0.0605
20044W        W23264  10.052   1.526   0.301  0.2479 -0.0862 -0.0831
20045W        W23265   7.006  17.742   5.813 -0.1177 -0.0050 -0.0096
20046W        W23266   0.449  17.733  17.253  0.0286  0.1201  0.1677
20047W        W23267   9.954  17.920  18.075  0.0040 -0.0784 -0.0303
20048W        W23268   7.511  16.696   2.368  0.0532  0.3110  0.0051
20049W        W23269   5.821   3.443   1.638  0.1581 -0.1505  0.0651
20050W        W23270  11.520  14.371   4.336  0.0909 -0.1958  0.3667
20051W        W23271  11.977   8.466   4.321 -0.0871  0.3576 -0.0316
20052W        W23272  10.584   4.617   5.484 -0.0076  0.2903  0.1765
20053W        W23273   8.705  16.319   3.080 -0.1702  0.2182  0.0809
20054W        W23274   7.700  14.976  18.244  0.4798 -0.1470  0.2803
20055W        W23275  14.591   6.118   1.544 -0.0547  0.1746  0.1172
20056W        W23276   1.124   2.947  16.255 -0.0302 -0.0204 -0.2345
20057W        W23277  13.463  16.286  17.075  0.1175 -0.2242 -0.0614
20058W        W23278   6.184  10.427   1.040  0.2142  0.2648 -0.0793
20059W        W23279  10.843  17.661  14.241 -0.0799  0.0070  0.2832
20060W        W23280   7.250  14.506   2.566 -0.0685 -0.0773  0.0737
20061W        W23281   5.535  17.759   1.857  0.1497 -0.0571  0.3586
20062W        W23282   8.099   8.446   1.372  0.1358 -0.3767 -0.0349
20063W        W23283  11.363  17.485  13.424  0.0522  0.0158  0.0173
20064W        W23284  12.590   3.300  17.957 -0.1904 -0.2612 -0.1588
20065W        W23285   5.951   8.075   8.535  0.0180  0.0204 -0.0126
20066W        W23286   8.361   1.896  16.093  0.0139  0.3834 -0.1601
20067W        W23287  15.100   5.288   3.915  0.2444  0.1210  0.2459
20068W        W23288   9.472   5.655  17.314 -0.0164 -0.0935  0.0054
20069W        W23289   3.767  17.887  16.937  0.2847  0.3018 -0.1115
20070W        W23290   6.721  15.808   1.447 -0.1007  0.2236  0.2818
20071W        W23291   9.140   3.458  16.665  0.0121  0.0204  0.1573
20072W        W23292   4.986   1.116   8.962 -0.1334  0.2763 -0.1430
20073W        W23293  15.786  17.704   3.631 -0.0360 -0.1809 -0.0154
20074W        W23294  15.496  14.527  16.687  0.2232 -0.0587 -0.2732
20075W        W23295  10.332   4.677   0.404 -0.0876 -0.1663  0.1280
20076W        W23296   8.341   4.542   7.171 -0.0352  0.3626 -0.0411
20077W        W23297  17.651   4.151  12.944  0.2690  0.2344  0.1543
20078W        W23298   9.602  18.015   7.011  0.0374  0.1513  0.0402
20079W        W23299  12.053   4.071   0.094 -0.1323 -0.0485  0.2918
20080W        W23300  17.823   0.769  16.892 -0.0457  0.0972  0.0557
20081W        W23301  15.576   0.692   6.917 -0.2012 -0.1299  0.3098
20082W        W23302   6.902   3.233   6.442  0.1417 -0.0371 -0.0762
20083W        W23303   6.429   1.810   0.885 -0.1629  0.4316 -0.0473
20084W        W23304  10.677   2.806   0.648  0.3956 -0.1644 -0.1799
20085W        W23305  12.971   5.228   2.151  0.0080  0.1175 -0.0393
20086W        W23306   8.435   2.140  18.050 -0.1112  0.0200 -0.0624
20087W        W23307   9.522   5.795   7.032  0.1735 -0.0924 -0.0842
20088W        W23308  14.958  16.988  14.070 -0.4195 -0.0591 -0.1838
20089W        W23309   7.383   1.025   4.459  0.0633 -0.1545 -0.1296
20090W        W23310   0.899   2.897   6.005  0.3426 -0.4777  0.1427
20091W        W23311  15.891   4.561   4.827 -0.0584 -0.3234  0.0186
20092W        W23312   9.530   5.302   4.198  0.0138 -0.1116  0.0990
20093W        W23313  10.664   4.861  17.612  0.0273 -0.0461 -0.2314
20094W        W23314   9.596  15.510  13.282  0.1089 -0.0702  0.3267
20095W        W23315  10.511  17.329  14.468  0.1129 -0.0016 -0.0130
20096W        W23316  17.636   2.369   4.954 -0.1165 -0.2101  0.1599
20097W        W23317   9.221  11.831  16.264  0.0719  0.0806 -0.1932
20098W        W23318   2.621   3.861  17.298 -0.0126 -0.0199  0.2167
20099W        W23319  16.527  15.487   3.518 -0.2697  0.1260 -0.2457
20100W        W23320  13.103   1.126   2.910 -0.2176  0.2122  0.0881
20101W        W23321  13.971   5.642   6.592  0.2471 -0.2237  0.2674
20102W        W23322  10.068  17.565   8.305  0.1913  0.0765 -0.1222
20103W        W23323  15.949   4.318   2.903  0.1887  0.3078 -0.0387
20104W        W23324   8.466   5.850   5.008  0.0424  0.0584 -0.2006
20105W        W23325  13.147   0.366   2.577 -0.0649  0.3391  0.0006
20106W        W23326   0.909  16.390   2.022 -0.1174  0.1961 -0.1008
20107W        W23327   8.991  15.765  10.231  0.3067  0.0832 -0.1358
20108W        W23328   7.299   0.354   6.291  0.1327  0.3057 -0.0968
20109W        W23329  16.316  13.107   1.054 -0.0151 -0.2851  0.2358
20110W        W23330   9.933  15.831   0.259  0.1330  0.2048 -0.1565
20111W        W23331   3.034  17.012   5.022  0.0406  0.0702 -0.2818
20112W        W23332  12.240   2.600  18.175  0.1639  0.0392 -0.0108
20113W        W23333  14.772  10.232  16.776 -0.1258  0.0557  0.0437
20114W        W23334   9.112   0.055  16.599  0.3625  0.1064  0.0271
20115W        W23335  11.844   4.986   6.304 -0.3546 -0.1650  0.1345
20116W        W23336   6.296   0.280   1.514  0.0041  0.0255 -0.4386
20117W        W23337  11.050  15.690  17.379  0.1321  0.2117 -0.1154
20118W        W23338  13.087  17.754   1.691  0.0907  0.3949  0.0221
20119W        W23339   5.883  15.473   1.135  0.4677  0.2368  0.0611
20120W        W23340   1.786   1.185  15.947  0.1378  0.0418 -0.0771
20121W        W23341  13.502   0.551   5.378  0.1687  0.1094  0.3438
20122W        W23342   5.065   4.982   8.971  0.0528  0.1161  0.2482
20123W        W23343   8.969   3.471   3.470 -0.0604 -0.0590 -0.0054
20124W        W23344   6.102   6.119   3.416 -0.0499 -0.0668 -0.2247
20125W        W23345  12.256   1.044   4.357 -0.1465  0.2262 -0.0584
20126W        W23346  13.414  18.242   5.334  0.1372 -0.1215 -0.4258
20127W        W23347  10.246   7.833   6.258  0.2411  0.1587  0.1039
20128W        W23348   9.545  14.628   2.763 -0.0990  0.3545  0.0821
20129W        W23349   1.959  17.043   5.544 -0.1379 -0.0262 -0.0594
20130W        W23350  15.563   0.649  10.762  0.1942  0.0139 -0.0228
20131W        W23351  11.851   6.226  10.046  0.0001  0.1000  0.1626
20132W        W23352  13.366  13.488   8.990 -0.0776  0.2074  0.0244
20133W        W23353  18.001   4.511  11.575 -0.2040 -0.1218  0.2218
20134W        W23354  12.427  16.607  13.254 -0.2240  0.1618 -0.1657
20135W        W23355  11.196  17.607   3.652  0.0355 -0.1069 -0.0090
20136W        W23356  12.219   3.794   6.776 -0.2456  0.2560  0.0489
20137W        W23357   2.920   0.524   3.580 -0.2338  0.0342 -0.1235
20138W        W23358  12.288  17.453   8.256 -0.1138  0.2852  0.0475
20139W        W23359   9.616   0.933   4.157  0.3077 -0.0333 -0.1303
20140W        W23360  10.679   7.357   5.747 -0.0214 -0.2440 -0.0542
20141W        W23361   8.264   6.013   5.460  0.0751  0.1247  0.0681
20142W        W23362  15.495  12.100   6.908  0.0207 -0.0434 -0.2806
20143W        W23363  13.060   4.967   4.363 -0.1161 -0.1308  0.0074
20144W        W23364   9.347   3.338  11.049  0.0423 -0.0157 -0.2638
20145W        W23365   2.452   9.086  11.466  0.3204 -0.1918  0.0918
20146W        W23366  10.795   2.898   4.550  0.0319  0.0807  0.2085
20147W        W23367   4.990  16.213   2.519  0.2437 -0.1587  0.0312
20148W        W23368  12.411   2.061   4.304 -0.2223  0.2954 -0.1446
20149W        W23369   8.924  17.602   7.914  0.2776 -0.1749 -0.4046
20150W        W23370  16.712   1.076  10.318 -0.3415  0.1738  0.1686
20151W        W23371  12.224   0.032  15.448 -0.0070  0.1917 -0.0300
20152W        W23372   6.204   0.806   2.137  0.1671 -0.1989  0.2248
20153W        W23373   6.111   1.874   9.822 -0.0376  0.0510  0.1479
20154W        W23374  15.525   8.659   2.127 -0.0746  0.3156  0.1925
20155W        W23375   8.964  17.706   2.610  0.3210  0.1602  0.2516
20156W        W23376  11.569   2.838   6.670  0.1133  0.0663 -0.0966
20157W        W23377  10.095   0.372   3.692 -0.0269  0.1159 -0.1775
20158W        W23378  10.901  16.867   0.682 -0.1310  0.1441 -0.2844
20159W        W23379   6.953   0.652   0.393 -0.0371  0.0214 -0.0675
20160W        W23380  15.825   6.195   0.865  0.2743  0.0656 -0.0004
20161W        W23381   9.809  17.414   1.845  0.1281 -0.2285  0.1341
20162W        W23382   6.896   2.756   7.542 -0.0986  0.0022  0.1341
20163W        W23383  14.956   3.294   8.334 -0.1871 -0.2360  0.2774
20164W        W23384   4.030   3.855   4.965  0.0705 -0.1198  0.1073
20165W        W23385  13.753   2.708   4.598 -0.0834 -0.0632 -0.0353
20166W        W23386  10.556  17.315   6.110 -0.2424 -0.0842 -0.0246
20167W        W23387  10.374   0.842  17.414  0.2814 -0.1266  0.0497
20168W        W23388  11.477   3.008  14.290  0.0880  0.2243  0.0940
20169W        W23389  13.617   1.580  13.122 -0.0737  0.0146 -0.1426
20170W        W23390   6.146   2.571   6.427 -0.1731  0.4494  0.1404
20171W        W23391  12.770   6.264  12.269 -0.0023  0.1557  0.1514
20172W        W23392  10.420  17.681   6.386 -0.3024  0.1109  0.3039
20173W        W23393   5.474   0.133   8.020  0.2609  0.1246  0.0857
20174W        W23394  12.142  12.461  13.425  0.1635  0.4244  0.1397
20175W        W23395  16.969  17.292  17.684  0.1014  0.3304  0.0945
20176W        W23396   7.619   8.213  14.187 -0.2185 -0.0579  0.1430
20177W        W23397  16.215   6.923   6.218 -0.0516 -0.0076  0.1216
20178W        W23398   4.596  15.887  10.466 -0.0819  0.2591  0.1168
20179W        W23399   6.770   1.014   3.922 -0.0797 -0.2762 -0.1844
20180W        W23400   3.389  17.996   6.573  0.0208  0.4860 -0.3926
20181W        W23401   8.007  15.708  10.518 -0.0545  0.0102  0.3257
20182W        W23402  10.379  17.786   4.769  0.0085 -0.3845 -0.1763
20183W        W23403  10.452   1.161   3.936  0.0346  0.0817 -0.0755
20184W        W23404  10.949   6.606   3.518 -0.0269  0.1134 -0.0753
20185W        W23405   5.873  17.300   1.606 -0.1737 -0.1147  0.0779
20186W        W23406   7.529  15.705   6.307 -0.1052  0.2922  0.2133
20187W        W23407  15.315   4.297  11.666  0.3534  0.0285  0.1969
20188W        W23408  14.337  15.564  11.997 -0.0160  0.4865 -0.0890
20189W        W23409  15.512  17.854   6.018 -0.0316 -0.3031 -0.1804
20190W        W23410   6.389   3.156   2.253 -0.6198 -0.0790  0.2586
20191W        W23411   5.624   1.197   4.881 -0.1332 -0.0541 -0.1727
20192W        W23412  13.164   1.169  17.777 -0.0498 -0.1276 -0.0467
20193W        W23413  13.452   3.041   5.656 -0.2352  0.2607 -0.2815
20194W        W23414   7.412   1.411   8.899  0.2233 -0.0807 -0.0829
20195W        W23415   5.056  12.914   4.780 -0.0971  0.1318 -0.0518
20196W        W23416  11.136   6.185   0.497  0.0419 -0.1450 -0.1402
20197W        W23417  11.909   6.234  12.837  0.0843  0.2065 -0.0446
20198W        W23418  10.164   0.251   4.222 -0.2082 -0.1286  0.2442
20199W        W23419   8.668   0.960   8.705 -0.1256 -0.0292 -0.0072
20200W        W23420  12.865  17.780   6.080 -0.5177 -0.2816 -0.2383
20201W        W23421   7.690   0.146   0.918 -0.1409 -0.0393 -0.0063
20202W        W23422   8.517   4.830  14.323  0.2606  0.0328 -0.0330
20203W        W23423  14.966   3.209   6.010 -0.1214 -0.0846 -0.1190
20204W        W23424  14.430   3.487   9.626  0.2504 -0.0921  0.1467
20205W        W23425   8.330  12.045   8.832 -0.0299  0.0962 -0.2514
20206W        W23426   6.354   0.790   7.088 -0.1356 -0.1366  0.4850
20207W        W23427  16.968  15.785   4.741  0.0649 -0.1214  0.1778
20208W        W23428   5.580   1.384   0.660 -0.2113 -0.1485  0.0701
20209W        W23429  17.896   1.001   5.293 -0.1107  0.2707 -0.3034
20210W        W23430  14.080  13.296   2.992 -0.0029  0.0708 -0.0122
20211W        W23431  10.485  15.709   2.069 -0.0452  0.0471 -0.1390
20212W        W23432  15.277   1.053   6.657  0.0406 -0.0472 -0.0502
20213W        W23433   1.657  11.688   9.233  0.1075  0.3791  0.1242
20214W        W23434  12.860   5.120   6.032 -0.0160 -0.1152  0.0952
20215W        W23435   8.846   3.114  10.891  0.1466  0.1364  0.0868
20216W        W23436   8.336   2.904  15.410  0.1194 -0.1801  0.1919
20217W        W23437   8.286   4.104   7.780 -0.2193 -0.2619 -0.0620
20218W        W23438  14.223  15.137   5.351  0.5130  0.0637 -0.4248
20219W        W23439   5.883   3.868   5.410 -0.0070  0.0798  0.1831
20220W        W23440   3.179   0.545   3.111 -0.0785  0.1423 -0.0200
20221W        W23441  13.811   2.448  11.187  0.0147 -0.1336 -0.0984
20222W        W23442  14.989   0.523   5.190 -0.1042  0.0566 -0.2152
20223W        W23443  12.585   5.280  11.367  0.0312 -0.1198  0.1976
20224W        W23444  14.234   3.437  13.192 -0.0801 -0.1482  0.0129
20225W        W23445   9.547   1.597   3.459 -0.0997  0.2903  0.1924
20226W        W23446   8.294   2.110   7.355  0.2282  0.0850 -0.3301
20227W        W23447  13.312   3.431   9.495 -0.2037  0.3025 -0.0431
20228W        W23448  13.240  10.089   7.317 -0.0428  0.0975 -0.2481
20229W        W23449  12.604  15.200   6.019  0.1085  0.1416 -0.0180
20230W        W23450   6.793   5.520   1.463  0.1408  0.4083 -0.0126
20231W        W23451   9.780  16.529   1.354  0.0194  0.3091 -0.1587
20232W        W23452  14.340   2.189   4.147 -0.0784  0.2722  0.2763
20233W        W23453   5.444   0.397   6.560  0.0659  0.0520  0.1193
20234W        W23454   5.883   2.866   3.943 -0.0446 -0.2252  0.2284
20235W        W23455   8.351   3.316  15.105 -0.2528 -0.0688  0.1152
20236W        W23456  12.754   7.033   6.084 -0.2895  0.1289  0.2156
20237W        W23457  15.478   4.339   4.619  0.0245  0.1894  0.1709
20238W        W23458  15.628  10.010  15.237  0.0706  0.3556  0.0965
20239W        W23459   1.445   0.130  18.227  0.0855 -0.0809  0.1776
20240W        W23460  10.517   1.658   3.973 -0.1186  0.0409  0.1331
20241W        W23461   7.646   5.439   7.128  0.0811 -0.1838  0.2132
20242W        W23462  12.322   1.593   1.290 -0.2724 -0.3074  0.0280
20243W        W23463   4.612   3.452   9.423  0.2275 -0.0718 -0.0701
20244W        W23464  15.199   0.402   8.402  0.1735 -0.1346 -0.3201
20245W        W23465  16.012  16.905   1.765 -0.1820 -0.0131  0.2653
20246W        W23466   9.525   7.059   5.601  0.2716 -0.2348  0.2007
20247W        W23467   7.187   6.401  10.366  0.0382  0.1478  0.1066
20248W        W23468  10.512   3.713  13.655  0.1535 -0.0147 -0.0966
20249W        W23469  16.627  16.815   2.436  0.0721 -0.0644  0.3394
20250W        W23470  14.395  14.190   9.497 -0.2756  0.1729  0.3263
20251W        W23471   6.049   6.708   6.442  0.0873  0.1041  0.0801
20252W        W23472  10.886  18.262   7.738  0.3303  0.0785 -0.1635
20253W        W23473  14.174  17.853  17.419  0.0805 -0.2719 -0.3482
20254W        W23474  12.811  14.961   7.571 -0.3540  0.5653 -0.1059
20255W        W23475   8.099  13.149  17.261  0.1181 -0.0962  0.1509
20256W        W23476  15.828  17.865   5.213 -0.1191 -0.1207 -0.1904
20257W        W23477   9.556   4.103  12.973  0.1205 -0.0550  0.1209
20258W        W23478  14.255   3.095  11.719  0.3521 -0.1738 -0.2133
20259W        W23479  16.562   3.596   8.979 -0.0801 -0.2244  0.1248
20260W        W23480   5.791  17.982  10.306  0.0201 -0.1769  0.0461
20261W        W23481   6.675   6.402   6.754 -0.2679  0.2397 -0.4578
20262W        W23482   1.381   4.155  15.613 -0.3260 -0.0843 -0.0200
20263W        W23483  13.392   2.101  11.089  0.2224 -0.2196 -0.2321
20264W        W23484   9.902  18.153  12.049 -0.1907 -0.1935  0.1094
20265W        W23485  15.703   5.310   5.737  0.0322 -0.3142 -0.3176
20266W        W23486  11.215   1.303   6.716 -0.3280  0.4457 -0.0200
20267W        W23487  14.350   5.146   5.309 -0.0061 -0.1066 -0.1262
20268W        W23488  15.512  11.505   5.257  0.1880 -0.0079 -0.0354
20269W        W23489  17.193   5.648   6.551  0.4642 -0.1092 -0.0185
20270W        W23490   9.253  17.081   7.112  0.1893  0.2321  0.2470
20271W        W23491   9.047  17.843   6.327  0.0253  0.3035  0.1652
20272W        W23492  12.834   4.334   2.895  0.0846 -0.0597 -0.1141
20273W        W23493   4.797   4.414   9.485 -0.1293 -0.2268 -0.2677
20274W        W23494   6.476   2.641  14.492  0.2567 -0.0301 -0.0330
20275W        W23495  11.225  17.751  11.481 -0.0080 -0.3699 -0.3389
20276W        W23496  11.658   6.844   8.576 -0.0840  0.3176  0.1035
20277W        W23497  13.714   5.244  11.861 -0.1176 -0.3947 -0.2810
20278W        W23498  11.022  17.319   5.825 -0.2009  0.0441  0.2660
20279W        W23499   6.245  18.045   8.970 -0.0478 -0.3133 -0.2304
20280W        W23500   2.374  17.461  17.155 -0.2367 -0.0379 -0.1148
20281W        W23501  14.388   3.270   3.615 -0.0748 -0.3234 -0.1745
20282W        W23502   3.383   3.160   9.253 -0.0878 -0.2055  0.0916
20283W        W23503   8.679   1.185  18.007 -0.3017  0.0955  0.0315
20284W        W23504  14.377  15.759  17.691  0.1930  0.1134 -0.1442
20285W        W23505  13.558  17.518  11.469 -0.0149 -0.0603  0.0684
20286W        W23506   7.668  11.248   5.331  0.1013 -0.2899  0.1596
20287W        W23507  13.351  16.599   8.737  0.0404  0.1175  0.0064
20288W        W23508  10.137   2.490   4.285 -0.3978  0.1944 -0.1379
20289W        W23509  14.968   4.886   8.233  0.0809 -0.1169  0.0450
20290W        W23510  12.290  16.938   8.476  0.2054 -0.0925  0.1389
20291W        W23511   3.831   1.547   9.643  0.0684  0.1277 -0.2615
20292W        W23512   1.475   3.872  10.431 -0.0727  0.1285 -0.3603
20293W        W23513  13.697  17.049  11.770  0.1079  0.0804  0.1736
20294W        W23514  15.133   2.096   6.972 -0.2488 -0.1325 -0.1012
20295W        W23515   4.828   2.574   8.947  0.2058  0.1523 -0.0356
20296W        W23516  17.632   0.281   2.109  0.2450 -0.1455  0.1088
20297W        W23517   2.545  17.243  12.044 -0.0636  0.0122 -0.0476
20298W        W23518   7.921   5.538   0.042  0.0806 -0.0617  0.2776
20299W        W23519   9.310   6.694  10.733 -0.2519 -0.0073 -0.3775
20300W        W23520  16.585  15.953  14.192  0.3207  0.3260 -0.0164
20301W        W23521   6.802   0.514  10.445  0.1051 -0.1840 -0.1849
20302W        W23522  11.512   2.891   9.138 -0.3808  0.0699 -0.0098
20303W        W23523  11.267   3.249   6.233 -0.2597 -0.2765  0.1480
20304W        W23524   9.000  16.902  17.240 -0.2233  0.0830  0.3189
20305W        W23525   5.381   9.144  12.680  0.1739  0.3981 -0.1415
20306W        W23526  10.613   0.879   4.379  0.0757  0.1923 -0.0407
20307W        W23527   9.580   2.607   0.676  0.3453 -0.0562 -0.0192
20308W        W23528  11.962   0.089  16.104  0.0680  0.0173 -0.0752
20309W        W23529  16.298   0.653   4.178  0.0800  0.1283 -0.1487
20310W        W23530   5.722  10.527   5.070 -0.3259  0.0423  0.0474
20311W        W23531   5.771  17.631   0.608  0.0205  0.0137  0.1729
20312W        W23532   5.336  16.418   3.260  0.2452 -0.2120  0.2964
20313W        W23533  16.111   2.679   5.159  0.0814 -0.1746 -0.0974
20314W        W23534   9.607   6.196  10.123  0.2411  0.0600 -0.0122
20315W        W23535  13.671   3.433   6.933 -0.3384  0.2583 -0.3132
20316W        W23536  11.651   6.043   3.994  0.1341 -0.3021  0.0738
20317W        W23537   8.143   7.996  17.947  0.0823  0.3704  0.3113
20318W        W23538  11.075   6.152   7.908 -0.0298 -0.1413  0.5841
20319W        W23539  12.344   3.004   2.175 -0.0957 -0.1602 -0.1794
20320W        W23540  15.881   5.512  13.148 -0.2605 -0.4208 -0.0604
20321W        W23541  12.691  17.563  11.555 -0.2749  0.0722 -0.0002
20322W        W23542  13.409  17.994  10.403  0.1605 -0.0691 -0.3438
20323W        W23543  11.945   2.090   7.661 -0.0618  0.0862 -0.0720
20324W        W23544   7.261   3.919   5.153 -0.0841 -0.0772  0.0138
20325W        W23545   9.559   6.662   9.744  0.0441 -0.0922  0.2507
20326W        W23546  11.674   2.040  15.299  0.2953  0.0272 -0.0300
20327W        W23547  10.318  16.540   6.419  0.0287  0.0137 -0.3964
20328W        W23548  12.685  17.987   7.643  0.1877  0.0580  0.1613
20329W        W23549  14.677   7.941   0.459 -0.2466 -0.2806 -0.2249
20330W        W23550  11.404   0.569   5.961 -0.1412 -0.0174 -0.2264
20331W        W23551  14.750   2.208   3.869 -0.0626 -0.2493 -0.1918
20332W        W23552  12.900   2.335   8.318  0.0195  0.1687  0.1520
20333W        W23553   9.094   2.778  15.936 -0.3285  0.3614  0.0482
20334W        W23554  17.968   0.882   4.704 -0.4392 -0.3512 -0.0093
20335W        W23555   5.638  16.340   7.615 -0.0584 -0.0029 -0.2505
20336W        W23556   9.508   0.068  13.020  0.0660  0.0861  0.0932
20337W        W23557   7.007   4.236   4.661 -0.0881 -0.1361  0.0849
20338W        W23558   6.445  15.417   8.868  0.0397 -0.0112 -0.1349
20339W        W23559  15.048   2.669  10.137 -0.2026  0.3644 -0.2182
20340W        W23560  13.235   1.760  13.358 -0.1691 -0.0448 -0.1493
20341W        W23561  14.187   6.593   8.760 -0.1260  0.0133 -0.1017
20342W        W23562  13.860  17.206   4.111 -0.2165 -0.0782 -0.2123
20343W        W23563   9.513   5.061   3.432  0.2922 -0.1680  0.0909
20344W        W23564   6.322   5.263   7.526  0.3401 -0.0835 -0.1072
20345W        W23565   3.857   2.255   5.056 -0.1169  0.0479  0.0066
20346W        W23566  18.043   3.058  12.364 -0.3404 -0.0772  0.0170
20347W        W23567   7.967  16.676  16.418  0.3471  0.1212 -0.3506
20348W        W23568   5.855  12.854   1.296  0.1875  0.1218 -0.0928
20349W        W23569   7.422  16.384  10.382  0.0938  0.0359  0.2491
20350W        W23570  10.684   2.141   5.950  0.1115  0.2595 -0.0282
20351W        W23571   2.964   7.798   4.931  0.3067  0.1689  0.1775
20352W        W23572  12.636   7.522   1.813  0.1823 -0.0594  0.1824
20353W        W23573   5.115  10.923   6.329 -0.2875  0.2126  0.1456
20354W        W23574  15.468   1.589  10.418  0.0747  0.1958  0.0210
20355W        W23575   7.944  16.348   2.412 -0.0947  0.5279 -0.1639
20356W        W23576   8.281  15.974   6.584 -0.0259 -0.3455  0.2741
20357W        W23577  13.720   3.597   5.363 -0.1868  0.1148 -0.2998
20358W        W23578  16.267   4.441   8.526 -0.2619  0.1452  0.1452
20359W        W23579   6.069   0.364   4.747 -0.0744 -0.1018  0.1131
20360W        W23580  18.261  15.593   8.059 -0.2296 -0.1833  0.1161
20361W        W23581  11.268  16.274  15.695 -0.2426 -0.1966  0.1557
20362W        W23582  11.138  17.268   0.340 -0.1978 -0.2553 -0.1363
20363W        W23583   7.575   0.966   6.601  0.2190 -0.2471  0.2860
20364W        W23584   1.383  14.276   9.821  0.0501  0.2324 -0.3034
20365W        W23585  17.514  15.417   7.395  0.1859 -0.2994  0.1395
20366W        W23586  12.107  13.843   2.927 -0.2116 -0.0284 -0.2376
20367W        W23587  17.047  11.867   8.868  0.3425 -0.0785  0.0980
20368W        W23588   7.109  14.379   6.647  0.1641 -0.2555 -0.1224
20369W        W23589   9.962  17.808   7.917  0.0656  0.2466 -0.0370
20370W        W23590  14.070   2.323   3.732 -0.2762 -0.1011 -0.2030
20371W        W23591   6.779  17.750  17.532  0.2131  0.2872  0.0607
20372W        W23592   4.931   9.377   9.992  0.1344 -0.1885  0.0642
20373W        W23593  10.779  16.299   5.403  0.0001  0.0099  0.0574
20374W        W23594  10.917   5.575  15.955 -0.1077 -0.1968  0.2454
20375W        W23595  10.376  16.607   8.357  0.1369  0.1784 -0.1788
20376W        W23596   3.848   4.188   4.213 -0.0413  0.1402 -0.2873
20377W        W23597   6.107   7.254  14.609  0.4568  0.2633 -0.1274
20378W        W23598   8.517  14.804   2.477  0.1857 -0.2867 -0.2947
20379W        W23599   6.312   3.753   1.479 -0.1508  0.0035  0.0398
20380W        W23600  13.165   1.088  11.968  0.2739  0.0814 -0.3573
20381W        W23601  11.111  16.135  17.205  0.1472  0.1620  0.1343
20382W        W23602   1.599   3.385   5.474 -0.1131 -0.0653  0.2226
20383W        W23603  17.597   5.016  16.231  0.2520 -0.0805  0.0708
20384W        W23604  13.192   3.640   6.893  0.1008  0.0443  0.2103
20385W        W23605   9.371   2.552   9.339  0.0136  0.1349  0.0094
20386W        W23606  11.540   6.410   9.120 -0.0182 -0.0341  0.3727
20387W        W23607  10.860  15.292   7.584  0.3212 -0.1557 -0.1090
20388W        W23608   6.940   0.588  11.170 -0.3168  0.1102 -0.0003
20389W        W23609  10.850   1.460  10.020 -0.3490 -0.3050  0.0248
20390W        W23610   6.608  15.278   2.061  0.1809 -0.0710  0.1507
20391W        W23611  12.992   3.399   9.995 -0.0838  0.0088 -0.1930
20392W        W23612   9.741   1.289  10.290 -0.3000 -0.0810 -0.1016
20393W        W23613   4.961   3.221  17.326  0.0062 -0.0155 -0.0511
20394W        W23614   5.565  16.220   9.195 -0.1265 -0.2583  0.0039
20395W        W23615   9.775   2.674   2.824  0.4337  0.0488  0.0930
20396W        W23616   9.304   0.497  11.501 -0.1943 -0.0841  0.0172
20397W        W23617  18.062   4.675   4.326 -0.1363 -0.3104  0.0836
20398W        W23618   5.171  16.714   2.806  0.0366  0.1037  0.3261
20399W        W23619   5.662  15.462   7.149 -0.2695  0.0606  0.1956
20400W        W23620  10.255   1.698   2.257 -0.1184 -0.2080  0.2384
20401W        W23621  12.868  10.935   8.648  0.4138 -0.2256 -0.0233
20402W        W23622   9.551   0.469  10.970  0.3762 -0.1959  0.0394
20403W        W23623  14.785   1.867  13.391 -0.1891 -0.0856  0.2289
20404W        W23624   7.756  13.203   3.449 -0.0687 -0.1452  0.1596
20405W        W23625  13.013   2.566   6.341  0.1300 -0.1768 -0.1818
20406W        W23626  11.349  10.949   9.181 -0.0468  0.2046 -0.0519
20407W        W23627  14.803  14.054  14.740  0.0229  0.2685 -0.1560
20408W        W23628   1.247   4.584  10.031  0.2455  0.1125  0.1897
20409W        W23629   4.600  16.607   0.344  0.0065 -0.0237 -0.3993
20410W        W23630   9.227  18.264   8.247 -0.0718  0.1388  0.1551
20411W        W23631   6.775  13.574   1.882 -0.0094  0.1773  0.0917
20412W        W23632  15.376   2.291   3.634  0.1568 -0.2502 -0.3249
20413W        W23633   2.564   5.480   2.047  0.1533  0.1735 -0.1997
20414W        W23634   9.290   3.500  17.190  0.2394 -0.0008  0.0197
20415W        W23635   1.272   2.408   8.683 -0.1145 -0.1313  0.2916
20416W        W23636   9.893  16.147   5.351 -0.2359 -0.0021  0.1328
20417W        W23637   4.589  16.064  16.811  0.2016  0.0821  0.0598
20418W        W23638   6.120   5.104   2.300 -0.1662  0.0244 -0.2483
20419W        W23639   5.532   3.135   4.175 -0.4091 -0.3335 -0.1006
20420W        W23640   8.494  13.832   0.140  0.0634  0.1559 -0.0944
20421W        W23641  18.015   0.776   1.744  0.0128  0.1985  0.3588
20422W        W23642  16.367   4.398   0.450  0.0638  0.1813  0.3272
20423W        W23643   8.098  17.258  12.995  0.1912 -0.1031  0.0937
20424W        W23644   5.802  16.246   3.049  0.0621  0.1171 -0.1286
20425W        W23645  12.956   0.599   1.573 -0.0323 -0.1358  0.2301
20426W        W23646   8.384   0.122  10.866  0.0039 -0.1799  0.0467
20427W        W23647  11.152  10.019   9.332  0.3430  0.2075 -0.0267
20428W        W23648   8.361   2.711   7.236 -0.0471  0.1065  0.1823
20429W        W23649   6.652   4.067   5.383 -0.3808  0.1941  0.0988
20430W        W23650  13.989  13.111   1.362  0.1383 -0.1131 -0.0373
20431W        W23651   9.627   0.421  12.685  0.1093 -0.2144  0.4761
20432W        W23652   9.210   1.385  11.144  0.0857  0.2254  0.1117
20433W        W23653   0.522  14.527  13.069 -0.1374  0.3781 -0.1386
20434W        W23654  17.222   7.556   5.015 -0.0561 -0.1323  0.2576
20435W        W23655  12.911   2.392   5.333 -0.0573  0.3104  0.0078
20436W        W23656  16.788   5.373   6.097 -0.3476  0.1488  0.0729
20437W        W23657  10.559   0.275   6.506  0.2322  0.2162  0.1677
20438W        W23658   7.692  17.014   7.876 -0.0880 -0.2571  0.0269
20439W        W23659  10.777   1.075   8.525  0.3771  0.1749 -0.0819
20440W        W23660  12.120   4.316   8.660  0.1542  0.2406 -0.0351
20441W        W23661  13.164  17.067  10.415 -0.0407  0.2261  0.1315
20442W        W23662  16.142   0.166   9.268 -0.0589  0.0670  0.3181
20443W        W23663  13.782  15.673   6.401 -0.1210 -0.4286 -0.2021
20444W        W23664   3.535   4.055   2.629  0.1272  0.0418  0.1059
20445W        W23665   1.080   4.836  16.844  0.2284  0.4244 -0.1133
20446W        W23666   7.994   0.938   9.771  0.1883 -0.1167 -0.3131
20447W        W23667  13.843   6.654  10.167 -0.1949 -0.1335 -0.0178
20448W        W23668   8.053   7.058  11.547  0.1103 -0.1017 -0.1190
20449W        W23669   7.478   1.808   9.795  0.2045 -0.0076  0.1151
20450W        W23670   4.442  17.605   2.476  0.0153  0.0475  0.1320
20451W        W23671  17.772   9.198   4.587  0.0995  0.0896  0.1528
20452W        W23672   7.174   7.352  14.093 -0.1883 -0.1072 -0.1121
20453W        W23673  10.813   2.732   9.668 -0.1321  0.1204  0.0788
20454W        W23674  10.676   0.348   3.499  0.2394 -0.1754 -0.1729
20455W        W23675   5.284  12.324  16.221  0.0805  0.2839  0.0156
20456W        W23676  13.147  16.515  10.251  0.2767 -0.0266 -0.2298
20457W        W23677   7.291   3.133   5.196 -0.1325  0.1879 -0.0172
20458W        W23678  12.158   0.475   6.540  0.1454 -0.2015  0.1661
20459W        W23679   9.496   0.535   3.775  0.0230 -0.0545  0.2259
20460W        W23680   8.695   9.393  13.329 -0.1044 -0.0482  0.2038
20461W        W23681  15.667  16.661   4.065  0.2775  0.1016 -0.1639
20462W        W23682   0.216   1.644  17.687  0.1151 -0.1742 -0.1758
20463W        W23683   6.832   2.801  11.437 -0.2640 -0.1720 -0.0853
20464W        W23684  10.045   1.468  14.825 -0.2176 -0.2843  0.3185
20465W        W23685  10.635   7.637   9.443 -0.0236 -0.0788 -0.1003
20466W        W23686  15.097   3.093   2.952  0.0656  0.1592 -0.3848
20467W        W23687   5.697   0.399  17.871  0.3061  0.0675  0.2517
20468W        W23688   5.965   3.735   6.361  0.0619  0.0461 -0.3484
20469W        W23689  12.558  17.544   4.905 -0.1374 -0.0876  0.0674
20470W        W23690  10.448   1.576   5.002  0.2109  0.0615 -0.0334
20471W        W23691   8.168  14.473   4.587 -0.0150  0.1141  0.1045
20472W        W23692   8.277   3.144   7.496  0.0243 -0.0517 -0.0976
20473W        W23693   8.958   3.312   2.492 -0.0930  0.3650  0.0024
20474W        W23694  10.948   3.236   6.703 -0.1699 -0.0208  0.0359
20475W        W23695   8.885  13.227   2.047  0.5506 -0.2322  0.0263
20476W        W23696  10.588   5.292  17.911  0.0445 -0.1296  0.1783
20477W        W23697  14.186   3.010  11.116  0.1053  0.1115 -0.1215
20478W        W23698   8.141   2.811   4.337 -0.1621 -0.1500 -0.0470
20479W        W23699  15.013   3.333  11.288  0.0595  0.0126 -0.0801
20480W        W23700  16.045   2.814   1.429  0.0528 -0.1599  0.0751
20481W        W23701  12.769   2.562   7.283 -0.1216  0.2037  0.2018
20482W        W23702   7.211   7.342  10.026  0.1142 -0.5128 -0.0960
20483W        W23703   6.316   4.220   5.793  0.2207 -0.2375 -0.0328
20484W        W23704   6.094   2.339  14.608  0.3047 -0.2522 -0.0738
20485W        W23705   6.136  17.923   9.917  0.0144 -0.1188  0.0301
20486W        W23706   2.398   3.876  15.495 -0.0096 -0.3062  0.0031
20487W        W23707  16.908   0.204   9.743 -0.1413 -0.1836  0.1264
20488W        W23708  16.320   5.548  10.570  0.2317 -0.3077 -0.0964
20489W        W23709  10.232   6.062  14.940 -0.2157 -0.0164  0.0079
20490W        W23710  17.465  16.476   0.311  0.0868 -0.0441 -0.0465
20491W        W23711   7.333   4.337   9.776  0.0600 -0.0352  0.5219
20492W        W23712  13.163  11.018   2.684  0.0622  0.1390 -0.1143
20493W        W23713   6.855  15.223   9.471  0.0425 -0.0662  0.0476
20494W        W23714  18.192   8.333   2.904 -0.1832  0.2754  0.0611
20495W        W23715   8.973   4.617  15.158  0.0471 -0.3573 -0.0697
20496W        W23716   7.172   0.460  17.527 -0.0262  0.0768  0.2956
20497W        W23717   9.084   2.643   5.355  0.0578 -0.0686  0.2500
20498W        W23718  12.148  15.074   4.033  0.1983  0.0692  0.2693
20499W        W23719   9.449   0.447  15.745 -0.0124  0.0088  0.0301
20500W        W23720  11.238   6.049  14.008  0.0198 -0.0719  0.1636
20501W        W23721  17.024   3.988   3.876  0.1876 -0.1047 -0.1859
20502W        W23722  10.383   3.673   1.159  0.2239 -0.1278  0.2187
20503W        W23723   9.478   0.336   1.349 -0.2010 -0.0830  0.2100
20504W        W23724  11.982   9.048   4.873  0.2939  0.2428  0.2530
20505W        W23725   9.821  17.685   2.463 -0.0182  0.0080 -0.0703
20506W        W23726   5.080   6.090  13.684 -0.1132 -0.1077 -0.1186
20507W        W23727   9.840   1.807  10.227  0.2145 -0.2301 -0.1463
20508W        W23728  10.386   8.434   7.264 -0.3573  0.0351 -0.1389
20509W        W23729   4.225   8.202   9.214 -0.3826 -0.0173  0.1667
20510W        W23730   6.453  18.262   4.801  0.0804 -0.0411  0.2708
20511W        W23731   5.566   5.247   6.997  0.1207  0.3276  0.0082
20512W        W23732   8.058   4.054  16.717  0.1452  0.2012 -0.2441
20513W        W23733   9.441  13.688   2.656 -0.2014 -0.0834 -0.2096
20514W        W23734   3.158   2.545   4.259 -0.0273 -0.1936  0.1515
20515W        W23735  12.421   2.483   6.356  0.2104  0.2321 -0.0472
20516W        W23736  16.433  17.757   4.818 -0.1143 -0.0932  0.0903
20517W        W23737  16.217   5.120  10.915 -0.0029 -0.0965 -0.1267
20518W        W23738   1.023  15.438   5.007 -0.2535  0.2019  0.0877
20519W        W23739   3.376   1.956   7.293  0.1799 -0.2601 -0.0114
20520W        W23740   0.204   7.767   9.594  0.0025 -0.1721  0.0564
20521W        W23741   8.146   5.192  15.588  0.1311 -0.1998  0.3523
20522W        W23742  12.855   5.392  16.517 -0.0766  0.3086  0.0799
20523W        W23743   8.812   4.309  10.446 -0.1254  0.1089 -0.0872
20524W        W23744   5.882  10.888  13.809 -0.0357 -0.1086 -0.0023
20525W        W23745  14.075   7.761   5.401  0.2740  0.4255  0.0123
20526W        W23746   9.975   0.921   5.619  0.2750  0.2566 -0.0753
20527W        W23747   8.648  17.078  10.563 -0.1838 -0.4890  0.0321
20528W        W23748   2.781   6.294   6.350 -0.0851 -0.1689  0.0971
20529W        W23749   3.899   4.594  11.501  0.0873  0.0728 -0.0316
20530W        W23750  12.003   1.916   8.282  0.1075 -0.0432  0.0994
20531W        W23751  10.692   3.267  12.579  0.1245 -0.2595 -0.4406
20532W        W23752   8.321   0.590  11.731  0.1613  0.1149 -0.0289
20533W        W23753   2.563   0.249   4.531 -0.1176  0.2441  0.2091
20534W        W23754   9.272  15.180   8.938  0.0090 -0.5136  0.0803
20535W        W23755   7.700   5.561  10.063  0.1066 -0.2010  0.1051
20536W        W23756   8.979  13.305   8.602  0.0382  0.3589 -0.0943
20537W        W23757   9.246   1.348   9.609 -0.2872  0.0802  0.0350
20538W        W23758   8.107  18.014   9.043 -0.1390 -0.0230 -0.1109
20539W        W23759  10.524   3.453   8.937 -0.0295  0.0558 -0.0688
20540W        W23760   5.587  15.152   8.096  0.1736  0.2367  0.2669
20541W        W23761  10.291   0.419   2.717 -0.0196 -0.2765  0.0523
20542W        W23762  12.293   5.185  11.813  0.2181 -0.0733  0.0788
20543W        W23763   9.163   2.829  10.585  0.0527 -0.2112 -0.0388
20544W        W23764   0.557  10.542   8.786  0.4372 -0.5115 -0.2417
20545W        W23765   6.430  18.235  14.519 -0.2207 -0.0258 -0.0530
20546W        W23766   9.437  13.060  10.773  0.0292 -0.2966  0.1679
20547W        W23767   7.813   1.813  10.849  0.2580  0.0885 -0.1064
20548W        W23768   9.263  12.055   7.401  0.0281  0.0757  0.1011
20549W        W23769   8.229   4.051  11.052  0.3943  0.2040  0.0340
20550W        W23770   9.832   1.098  12.056 -0.0376 -0.0578 -0.0165
20551W        W23771  13.717   5.326  16.874 -0.0093  0.1695 -0.0669
20552W        W23772  10.205   2.798  16.428 -0.1489 -0.1653  0.0938
20553W        W23773  10.416   1.578   7.321 -0.2866  0.0662 -0.0069
20554W        W23774   8.290   2.838   2.208 -0.3036 -0.2451  0.0270
20555W        W23775   5.963  17.507   4.758  0.1537 -0.0163  0.2421
20556W        W23776  12.548  17.546   3.971 -0.2798 -0.0666  0.2107
20557W        W23777   1.718  15.441   4.261  0.0849 -0.0641  0.4649
20558W        W23778  12.913  16.697  15.869  0.0519  0.2349  0.3052
20559W        W23779   6.682   5.463  13.167 -0.0255  0.2652 -0.1349
20560W        W23780  11.016  15.498  10.186 -0.2477  0.0711 -0.1200
20561W        W23781   8.550   7.095   9.832 -0.2354 -0.1795 -0.4623
20562W        W23782  10.669   3.013   8.800  0.1551  0.0710 -0.0428
20563W        W23783   2.270  17.656   6.039  0.1757 -0.1613  0.1793
20564W        W23784   9.670  15.063   7.910 -0.1714 -0.1118  0.1134
20565W        W23785   9.513   2.157   7.362 -0.0118 -0.0940  0.0263
20566W        W23786   9.191   3.237  12.081  0.3107 -0.1873 -0.1603
20567W        W23787   4.796   5.882   9.324  0.0632 -0.0765 -0.0848
20568W        W23788  15.309   8.391   9.327  0.1561  0.0275 -0.0226
20569W        W23789  17.165   2.675  14.988 -0.0385 -0.0615  0.0147
20570W        W23790   6.704   0.637   7.435  0.2042 -0.1258 -0.1255
20571W        W23791   1.832   6.910  11.868  0.3156  0.0498  0.2192
20572W        W23792  12.297   6.650   4.969  0.1749  0.1424 -0.1142
20573W        W23793   2.659   6.558   1.281  0.1714  0.1738 -0.1756
20574W        W23794   5.930   5.255  12.354  0.2121 -0.1493 -0.0720
20575W        W23795   0.857  16.519   6.092 -0.0168 -0.0092  0.3157
20576W        W23796  14.937   1.523   8.625 -0.1643  0.0382  0.1328
20577W        W23797  15.812   5.202  11.141 -0.0768 -0.2004  0.0863
20578W        W23798   9.343   6.501   2.541 -0.1479 -0.1132  0.2385
20579W        W23799   9.030   5.234   7.567 -0.2199 -0.1815  0.2097
20580W        W23800  10.110  14.880   5.215 -0.0866 -0.3953 -0.0091
20581W        W23801   5.598   4.446   4.235  0.2655 -0.0825 -0.3968
20582W        W23802  12.985   0.538   7.859  0.1304  0.0105  0.3646
20583W        W23803   6.268   5.534   8.081 -0.0450 -0.2901  0.1888
20584W        W23804   2.201  14.776  10.941 -0.0090  0.0192 -0.1007
20585W        W23805  12.256   4.241   9.745 -0.1156  0.1020  0.1919
20586W        W23806   5.395   1.536   9.589 -0.0786  0.2067 -0.3010
20587W        W23807   3.103   0.543  10.884 -0.1082  0.0652 -0.3517
20588W        W23808   4.940  11.685  13.075  0.3608  0.3270  0.1894
20589W        W23809   7.654   0.561  10.643 -0.3024  0.1689  0.3545
20590W        W23810   9.965   3.973   9.262 -0.1822  0.0283 -0.3499
20591W        W23811   0.609   4.109  15.289 -0.0889 -0.1225 -0.0394
20592W        W23812   5.232   0.814   9.243  0.0151 -0.0596 -0.0334
20593W        W23813  10.426  14.483  10.101  0.0086 -0.0210 -0.6997
20594W        W23814   7.065  16.009   9.569  0.2034 -0.2939 -0.0794
20595W        W23815  14.251   3.569  10.967  0.3266  0.1759 -0.1358
20596W        W23816  11.344   5.601  10.380 -0.0952  0.0822 -0.0682
20597W        W23817   9.581   1.507   7.052  0.2769  0.1094  0.0415
20598W        W23818  17.194  17.119   4.832  0.2452  0.0317  0.0327
20599W        W23819   9.828  17.596  12.080 -0.2763  0.1744 -0.1663
20600W        W23820  14.190  16.541   1.945  0.1345  0.0881  0.0147
20601W        W23821  10.578   6.685  12.091 -0.0110  0.2334 -0.2340
20602W        W23822   9.111  16.830   1.684  0.1966 -0.6055  0.1466
20603W        W23823  11.644   2.229  11.532 -0.1486  0.5993  0.4540
20604W        W23824  13.323   4.427   8.465 -0.0874  0.1840  0.0869
20605W        W23825   8.976   0.725  13.740  0.2318  0.2080 -0.2191
20606W        W23826  11.071  16.462  16.768 -0.1267  0.1896 -0.2000
20607W        W23827  12.051  15.749   7.203 -0.1162  0.0099  0.0622
20608W        W23828  15.226   0.542   7.931 -0.1543  0.0740  0.2226
20609W        W23829   8.920   1.729   4.327 -0.0545 -0.1611 -0.0315
20610W        W23830  11.398   7.557  13.306 -0.2967  0.1286 -0.1909
20611W        W23831   5.816  15.065   2.500  0.1765  0.1029 -0.3942
20612W        W23832   9.008  15.723  14.280 -0.2720 -0.3998  0.0301
20613W        W23833   2.041  15.249   6.801  0.2664  0.1284  0.3599
20614W        W23834   6.380   2.186   9.573 -0.0002  0.0045  0.1117
20615W        W23835  10.994  10.271   4.970  0.0703  0.2135  0.1452
20616W        W23836   0.892  14.691  12.064  0.0602  0.4532 -0.0086
20617W        W23837  14.607   0.714  13.448 -0.0085 -0.2973 -0.0030
20618W        W23838   8.623   6.772   2.062 -0.1044 -0.0438 -0.2837
20619W        W23839  10.051  17.646   9.692 -0.0515 -0.0136 -0.0693
20620W        W23840   7.680   1.826   8.893 -0.1399  0.0149  0.4828
20621W        W23841   9.978   0.020  13.870  0.3645  0.0724  0.3774
20622W        W23842  13.171   0.390   8.465  0.1002  0.2357  0.1832
20623W        W23843  14.008   1.350  13.361 -0.2402  0.1175  0.1367
20624W        W23844  10.133  11.416   7.578 -0.2649  0.1017 -0.1569
20625W        W23845   0.977   5.913  15.958 -0.2272  0.1163  0.0624
20626W        W23846   0.149   5.239   8.757  0.0060  0.0708  0.0906
20627W        W23847  10.414   9.519  11.011 -0.2579 -0.0912  0.0129
20628W        W23848  12.151   5.763  11.738 -0.1164  0.0559  0.1570
20629W        W23849   9.827  17.965   7.470  0.0046 -0.3628  0.2015
20630W        W23850   6.802   3.447  14.448  0.3345 -0.2132 -0.3454
20631W        W23851   9.878  17.958   8.750 -0.1564  0.0510  0.3572
20632W        W23852  13.544   2.067  14.342 -0.2610 -0.2436  0.2547
20633W        W23853   5.960   6.640   4.767 -0.0189 -0.1144  0.0245
20634W        W23854   0.125   6.873  10.615 -0.0666 -0.0046 -0.1589
20635W        W23855   1.440   1.764  16.526  0.1522  0.0374 -0.1723
20636W        W23856   3.423   9.866  13.741 -0.0268  0.1207 -0.0304
20637W        W23857   7.591   4.720   5.250  0.2569  0.0388  0.1250
20638W        W23858   8.988   4.697  10.808  0.1394  0.0132  0.2104
20639W        W23859   3.764   4.333  13.808 -0.2917 -0.0442  0.4704
20640W        W23860  12.345  13.728   2.494  0.2434  0.1714 -0.0952
20641W        W23861   0.622   5.067   8.752 -0.2993  0.3083 -0.1852
20642W        W23862   8.312   1.653   5.603  0.2192  0.1800  0.0890
20643W        W23863   8.182   3.697  11.879  0.0625  0.0919 -0.1223
20644W        W23864   1.419  10.819  14.369  0.0163  0.0303  0.2595
20645W        W23865   5.101   2.501   5.586 -0.2144  0.0659  0.0810
20646W        W23866  10.259  14.151   2.708  0.0246  0.0305  0.0237
20647W        W23867  15.242   6.936   9.620  0.0487 -0.0905 -0.0191
20648W        W23868   9.023   5.943   6.812 -0.3554 -0.0393  0.1326
20649W        W23869  10.687   8.678   8.606  0.3571 -0.0429  0.2419
20650W        W23870   8.706   0.847  10.264 -0.1266 -0.0786 -0.3174
20651W        W23871  11.434   5.971   0.905  0.1696 -0.1711 -0.1538
20652W        W23872  11.808  15.105  11.227  0.1589 -0.0107 -0.0837
20653W        W23873  10.384   2.463  14.767  0.2128 -0.1260  0.0335
20654W        W23874  11.521  17.493   6.588 -0.0223 -0.3295  0.2192
20655W        W23875   6.501   0.522   2.412  0.1795  0.1509 -0.1947
20656W        W23876   2.505   0.283   6.836  0.2282 -0.0113 -0.4991
20657W        W23877   6.213   2.262  16.764 -0.0549 -0.0473  0.0570
20658W        W23878  14.314  16.648   7.775 -0.0745  0.5350 -0.2173
20659W        W23879   8.581  16.409   4.800  0.0700  0.0791 -0.3554
20660W        W23880  15.475   0.691  10.205  0.2706  0.1353 -0.2217
20661W        W23881   7.373  15.392   5.538 -0.0455  0.0095 -0.0637
20662W        W23882   9.438   3.311   4.294 -0.2334  0.1705 -0.1081
20663W        W23883  15.574  15.241   7.284  0.3355 -0.1538  0.0728
20664W        W23884  15.916   4.447  10.189  0.5140 -0.0733  0.1474
20665W        W23885   3.884   4.629  17.624 -0.0486  0.0637 -0.1288
20666W        W23886   9.384   2.261  11.317 -0.1395  0.1166  0.4509
20667W        W23887   4.544  15.207  12.854 -0.0399 -0.2583  0.0377
20668W        W23888   9.191   5.385  12.257 -0.1785 -0.0158  0.0233
20669W        W23889   6.087  17.609  13.303  0.0334 -0.1370 -0.0481
20670W        W23890  12.686  14.946   8.112 -0.2580 -0.0008  0.1046
20671W        W23891  10.825   6.543   8.243 -0.2614 -0.0758  0.1005
20672W        W23892  12.066  14.433  13.245  0.0467  0.1387  0.0428
20673W        W23893   2.187   1.237   4.630 -0.1033  0.1512  0.0818
20674W        W23894   1.661   5.798  14.347 -0.0062  0.2558  0.1230
20675W        W23895  10.229   4.394   3.442  0.0808  0.0381 -0.0098
20676W        W23896  15.321   1.296  12.055  0.3263  0.0042  0.2377
20677W        W23897   9.023   6.324   5.981 -0.1049  0.0226 -0.1195
20678W        W23898  11.388  14.385   9.331 -0.0639  0.0792  0.0976
20679W        W23899  14.777   9.256   7.558 -0.1272  0.0143  0.1290
20680W        W23900  11.930  16.327  13.205  0.0586  0.2008  0.0015
20681W        W23901   7.550   3.534   4.339  0.0518  0.3676 -0.1074
20682W        W23902   3.988  17.464   8.166  0.2703  0.1073  0.0839
20683W        W23903  12.261   8.177  10.391  0.4289  0.2401  0.0468
20684W        W23904   1.302   9.311  12.086 -0.1627  0.2767 -0.2706
20685W        W23905  16.286   8.908   7.926 -0.0916  0.0208  0.0206
20686W        W23906  13.976   0.879  11.200 -0.0723 -0.2071  0.2047
20687W        W23907   6.226   0.928   9.537  0.1302  0.0757 -0.0525
20688W        W23908  13.643  17.552   6.859 -0.1258  0.0366 -0.0083
20689W        W23909   5.069  15.501   8.918 -0.1554  0.0369  0.1684
20690W        W23910  17.061   3.918  13.701 -0.0720  0.0054  0.0349
20691W        W23911   7.091   4.404   2.248 -0.1473 -0.2703 -0.0398
20692W        W23912   3.895  14.773   7.766  0.0244  0.0192  0.2165
20693W        W23913   9.804   3.583  11.195  0.0421  0.2895 -0.1510
20694W        W23914   9.073   3.548   8.225 -0.1410  0.1115 -0.1897
20695W        W23915  13.213   0.835  17.332  0.2275 -0.1370  0.1657
20696W        W23916   7.041   5.096   1.495  0.0567  0.2005 -0.0942
20697W        W23917   8.460   3.373  11.635 -0.0200  0.0872  0.1140
20698W        W23918  10.150   4.323   2.640 -0.3487 -0.2452 -0.0382
20699W        W23919   8.448  17.802  12.971  0.1291 -0.1941 -0.1128
20700W        W23920  17.336   6.367  13.093  0.2411  0.0907  0.0269
20701W        W23921   5.434  13.572  16.761 -0.1474 -0.0017  0.1167
20702W        W23922   1.057  10.007   9.991 -0.1630  0.1418  0.1086
20703W        W23923  13.083   3.852   7.683  0.2767 -0.1610  0.0376
20704W        W23924   7.148  15.599  11.488  0.0142 -0.0200  0.0908
20705W        W23925   8.704  17.327   9.587 -0.0771  0.0452  0.0642
20706W        W23926  16.519  14.128   1.357 -0.0922  0.0735 -0.0477
20707W        W23927   9.329   5.790   9.821 -0.3362  0.0108  0.2659
20708W        W23928  11.040   7.548   8.182  0.0157 -0.0198 -0.1521
20709W        W23929  16.717   0.739   2.604 -0.2590 -0.1385 -0.1255
20710W        W23930   7.413   6.261   8.027  0.1316 -0.1563 -0.0645
20711W        W23931   8.787   5.849   6.164  0.0232 -0.3213 -0.1512
20712W        W23932   7.449   7.444   5.393 -0.1849 -0.1553 -0.3062
20713W        W23933   6.211  15.674  11.758 -0.0222  0.2255  0.0915
20714W        W23934  12.074   3.027  10.315  0.1097  0.0322  0.1243
20715W        W23935   0.206  12.178  12.970 -0.1583  0.0484 -0.2437
20716W        W23936  13.664   2.568  10.008  0.1097  0.0603  0.1861
20717W        W23937  14.798   6.349   2.431 -0.0542 -0.0386 -0.1730
20718W        W23938  12.307   6.416  13.171  0.0853 -0.0530 -0.3075
20719W        W23939  10.319   5.596   6.521 -0.2702 -0.3359  0.0129
20720W        W23940   5.151  12.662   9.091  0.2071 -0.2526 -0.1333
20721W        W23941  10.842   1.885   5.060 -0.2880  0.0639 -0.1251
20722W        W23942  17.578  17.193  14.202 -0.0390 -0.0127 -0.1215
20723W        W23943   7.887   5.018  11.174 -0.1678 -0.0978  0.0057
20724W        W23944   9.223  18.015   7.346  0.1084 -0.2248  0.3304
20725W        W23945   8.866   8.650  10.127 -0.0564 -0.1918 -0.0487
20726W        W23946   6.005  17.270   8.060  0.0844  0.0680  0.0077
20727W        W23947  11.339   3.417  10.654  0.0833  0.0142  0.0512
20728W        W23948  16.414  14.407   5.818 -0.0741  0.1124 -0.2982
20729W        W23949  10.060   0.956  10.145 -0.1061 -0.1515 -0.0322
20730W        W23950   8.481   8.157  15.399  0.1413  0.1948  0.3578
20731W        W23951   4.695  16.335  10.252  0.1139  0.0097  0.0277
20732W        W23952  12.587   4.434   1.984  0.3127 -0.2732  0.2655
20733W        W23953   7.290  12.775  13.772 -0.1511 -0.0554  0.2226
20734W        W23954  10.286   2.199   6.208  0.1957  0.0583  0.2763
20735W        W23955   3.576   4.436   3.853  0.0812  0.0940 -0.1167
20736W        W23956   8.321   7.294  10.723  0.2847  0.1232 -0.1316
20737W        W23957  13.273   2.478   8.592 -0.4877 -0.2263 -0.2012
20738W        W23958   0.207   4.358  12.203  0.0540  0.0514 -0.0307
20739W        W23959  14.300   3.544   8.233 -0.2200  0.3071 -0.3730
20740W        W23960  11.466   6.435   8.168  0.3075  0.0933 -0.3739
20741W        W23961   4.644   1.584  13.440 -0.3069 -0.0987  0.0228
20742W        W23962  12.518   2.684   8.250 -0.2274 -0.0923  0.0281
20743W        W23963  16.056   6.844   3.434  0.1588 -0.3005 -0.1239
20744W        W23964  10.019   8.627  12.131 -0.2751 -0.3186 -0.0505
20745W        W23965  11.097   3.229  11.616 -0.2908 -0.0192 -0.1548
20746W        W23966  15.453   6.206   9.049 -0.2492  0.1800 -0.2447
20747W        W23967   9.750   5.091   9.323 -0.0031  0.1110  0.0003
20748W        W23968  12.870   1.299   5.673  0.0585  0.0877 -0.2828
20749W        W23969   9.584   5.956  15.058  0.1802  0.1030  0.0517
20750W        W23970   4.315  16.748  16.397 -0.2110  0.2451  0.0464
20751W        W23971   4.311  17.614   9.701  0.0974  0.0794 -0.0437
20752W        W23972   9.471   4.211  11.993 -0.2272 -0.1009 -0.1371
20753W        W23973   9.250   8.380  12.080  0.0426  0.0171 -0.1648
20754W        W23974   1.654   4.610  14.163  0.0206 -0.1255  0.1348
20755W        W23975   9.606  16.537  13.439  0.0052 -0.2849  0.1929
20756W        W23976   5.466  10.358  15.476  0.1679  0.2082  0.1296
20757W        W23977   1.182   4.500   6.869  0.0474  0.0923 -0.0111
20758W        W23978   9.506  13.362  17.420 -0.1610 -0.1429  0.0699
20759W        W23979   9.053   0.386   3.665  0.1163  0.0168 -0.1329
20760W        W23980  14.170   6.815   9.742 -0.2888 -0.2323 -0.0220
20761W        W23981   5.185   5.709   8.931  0.2149 -0.1728 -0.0245
20762W        W23982  10.049   5.832   3.666  0.1198  0.0078 -0.1106
20763W        W23983  16.201   2.810   7.156 -0.1990  0.0976  0.0583
20764W        W23984   8.627   1.803  14.414  0.1771 -0.2244 -0.1069
20765W        W23985   4.146   1.227   9.259 -0.1411  0.0045  0.0463
20766W        W23986   9.100   0.543   8.814 -0.0605 -0.0972 -0.3069
20767W        W23987   7.155  13.375   8.325 -0.0231 -0.2521 -0.0540
20768W        W23988   3.806  13.497  13.690 -0.0839  0.0356  0.0357
20769W        W23989   2.947   3.841  14.007 -0.0462 -0.1020  0.0526
20770W        W23990   7.096  17.327  12.656 -0.2371  0.1001 -0.0114
20771W        W23991   5.450   0.507   6.045 -0.1935 -0.1118  0.1237
20772W        W23992  13.325   1.520  14.017  0.0961 -0.1064 -0.0123
20773W        W23993   3.644  10.670  11.220 -0.6081  0.1291 -0.0844
20774W        W23994   4.123  17.838  10.156 -0.1685  0.1114  0.4316
20775W        W23995   3.581  15.152  16.715 -0.0514  0.1193 -0.0062
20776W        W23996   1.732  15.071   3.934  0.0097  0.1149  0.1876
20777W        W23997  10.210  13.682  10.453  0.2539  0.2892  0.1116
20778W        W23998  13.083   7.422   9.428 -0.1177 -0.2779  0.0330
20779W        W23999  10.116   1.021  16.495  0.0165 -0.2176  0.1039
20780W        W24000   8.008  15.660   9.710 -0.0322  0.0529 -0.0704
20781W        W24001   9.547   9.561   8.148 -0.0518  0.2908 -0.0984
20782W        W24002  13.888  11.960   6.373  0.0949  0.2781 -0.0048
20783W        W24003  16.334   1.631  14.471  0.1024 -0.0603  0.0877
20784W        W24004  13.024  15.302   7.878 -0.3158  0.0043  0.1101
20785W        W24005  14.463   8.458   7.798  0.2519 -0.2583  0.1008
20786W        W24006   9.190  14.821  10.018 -0.2478 -0.2339 -0.1933
20787W        W24007   8.078  18.165   9.957 -0.1850 -0.1730  0.1452
20788W        W24008  13.019   1.236   7.136 -0.1813 -0.3763 -0.1133
20789W        W24009   8.706  17.296  10.956 -0.2672  0.0292 -0.0671
20790W        W24010   9.119   0.428  12.500 -0.2735 -0.0066  0.0024
20791W        W24011   2.210   1.468   8.440 -0.1545 -0.0414  0.2144
20792W        W24012   8.768  16.914   4.680 -0.1640  0.2115  0.1280
20793W        W24013   7.671   3.220   2.739  0.2698 -0.2622 -0.0185
20794W        W24014   5.896   4.869  12.790 -0.1995 -0.1623 -0.1744
20795W        W24015  12.812   2.163   2.418  0.2440 -0.1292  0.2610
20796W        W24016   8.954   4.565   6.614  0.3831 -0.0098 -0.3730
20797W        W24017   9.837   3.870   8.374  0.1941  0.1677 -0.1586
20798W        W24018   5.887   1.142   3.411  0.1919 -0.1227  0.1048
20799W        W24019  12.528   3.845   7.651 -0.2851  0.0598  0.2065
20800W        W24020   8.233   3.574   9.518  0.2086 -0.0954 -0.0495
20801W        W24021   3.901   2.566   9.284  0.0404  0.0425  0.2233
20802W        W24022  11.396   1.421   8.213 -0.2072 -0.2719 -0.3414
20803W        W24023  12.085  16.694   7.449 -0.1528  0.4058  0.0333
20804W        W24024   8.710   2.769  12.449 -0.1056 -0.1727 -0.0288
20805W        W24025  13.014   1.344  11.494  0.1938 -0.2233 -0.0644
20806W        W24026   9.696   3.754  10.729 -0.0201  0.3091  0.1390
20807W        W24027   6.047   2.258   8.971 -0.3375  0.0924  0.1861
20808W        W24028   7.998   4.371  15.745 -0.2266 -0.0472 -0.3250
20809W        W24029  12.419   2.151  18.208  0.0896 -0.1004  0.3034
20810W        W24030  11.045   8.261  12.741  0.1629 -0.0801 -0.1199
20811W        W24031   3.264  16.716   5.801 -0.1817 -0.0269  0.1673
20812W        W24032   6.859  17.345   6.895  0.0646  0.0273  0.0489
20813W        W24033  11.935   5.235   7.622  0.3081 -0.2513 -0.0245
20814W        W24034  16.546   5.736  11.443  0.2134 -0.3714  0.0873
20815W        W24035   4.640   0.674  13.104 -0.2488 -0.1830  0.0700
20816W        W24036   7.428  16.611  13.445 -0.0652  0.0264  0.2111
20817W        W24037   6.515  18.199  12.445  0.0066 -0.3450  0.1084
20818W        W24038   7.589  17.204   9.839  0.1343  0.0917 -0.0139
20819W        W24039  12.507   1.177  10.161 -0.1529  0.2255 -0.1776
20820W        W24040   7.829   2.911   7.917  0.1561 -0.4891  0.0782
20821W        W24041  11.993   0.795   9.527  0.0467  0.0064  0.2043
20822W        W24042  12.661   1.502  11.963  0.3974 -0.1142  0.3397
20823W        W24043  10.647   6.488   9.276 -0.0291  0.0019  0.0414
20824W        W24044   6.225   4.195   5.286 -0.2303 -0.3155 -0.1746
20825W        W24045  17.272  16.736   5.859  0.1504  0.1511 -0.2120
20826W        W24046   1.338  16.964  17.521 -0.0110 -0.1106  0.3627
20827W        W24047  10.548  14.788  11.371 -0.1305  0.0050 -0.3073
20828W        W24048   6.482  10.804  15.560 -0.2126 -0.0847  0.1972
20829W        W24049   9.469   3.364   9.758 -0.1059  0.3235  0.2472
20830W        W24050   5.762   3.652   8.748  0.2071  0.1746  0.0383
20831W        W24051  17.110   8.027  13.684  0.1048 -0.0730  0.3653
20832W        W24052   7.972  15.046  10.423  0.2520  0.0907  0.1293
20833W        W24053  14.906   7.960  14.717 -0.2408 -0.3185 -0.0426
20834W        W24054  10.317   1.208   7.821 -0.1244 -0.0438  0.2398
20835W        W24055   6.536  15.246   7.497 -0.2000 -0.3612 -0.1840
20836W        W24056   8.412   2.455  11.582 -0.1849  0.0684  0.0156
20837W        W24057   4.304  15.632   6.157 -0.0741  0.0528  0.4277
20838W        W24058  12.194   8.271  10.895  0.1095 -0.0510 -0.2883
20839W        W24059  12.928   1.535  10.524  0.0585  0.1634  0.2099
20840W        W24060  12.610  10.218  10.427  0.1064 -0.0842  0.0665
20841W        W24061   8.415   2.047   4.362 -0.0295  0.1042 -0.0306
20842W        W24062  11.770   7.253  17.522 -0.1403 -0.3140  0.1577
20843W        W24063   6.917  10.454   9.472 -0.4271  0.1801 -0.1863
20844W        W24064  12.442   6.579  16.311 -0.0348  0.1072  0.1072
20845W        W24065   8.627  13.957   3.348 -0.2642  0.2691 -0.1231
20846W        W24066  10.923  17.375   9.525  0.1622  0.4255  0.1469
20847W        W24067  11.805   2.069   3.999 -0.1907  0.1714 -0.1274
20848W        W24068   5.603  17.745  13.136  0.1096  0.0938  0.0073
20849W        W24069  13.420   5.745  17.332 -0.0080  0.0570 -0.1394
20850W        W24070  15.706  17.639   9.044  0.1220  0.1301  0.1518
20851W        W24071  11.539  16.376  17.299  0.0971  0.1080 -0.4447
20852W        W24072   8.625   4.902  10.438  0.4354 -0.2802 -0.0453
20853W        W24073   3.502  17.444   5.723 -0.1644 -0.2011 -0.1831
20854W        W24074   5.678  17.491  14.214  0.3333  0.0621 -0.5656
20855W        W24075   6.693  17.797   3.888  0.2910 -0.1347 -0.0169
20856W        W24076   6.141   7.844   7.298 -0.0302 -0.0718  0.1663
20857W        W24077   6.412  16.340  12.983  0.1964 -0.2971  0.0343
20858W        W24078  13.999  16.146   1.705  0.1205 -0.1355 -0.3022
20859W        W24079   2.269   3.608   9.358  0.0167 -0.2591  0.1431
20860W        W24080   6.928  17.831   9.565  0.0201  0.0410 -0.2100
20861W        W24081   5.509  14.631  17.275 -0.1822 -0.2561  0.0891
20862W        W24082   3.821   1.662   6.680  0.1901 -0.1778  0.0580
20863W        W24083  15.646   1.516   5.886  0.1907  0.2826  0.0134
20864W        W24084  11.196   4.288  14.343  0.0825  0.0001  0.3348
20865W        W24085  10.276   2.831  10.843 -0.0475  0.0748 -0.2402
20866W        W24086  12.168   9.278   5.999  0.1751  0.0806 -0.0615
20867W        W24087   1.241  10.581   1.617  0.2914  0.2692  0.0390
20868W        W24088  11.080   5.813   3.178  0.2489 -0.2377 -0.2139
20869W        W24089  15.150  16.103   9.026  0.1188  0.3010  0.0371
20870W        W24090  12.216   7.096  12.348  0.2517  0.2548 -0.0216
20871W        W24091  12.469  10.705  10.176  0.2973 -0.1044 -0.0885
20872W        W24092   9.321  12.398   5.759  0.3750 -0.1333  0.0219
20873W        W24093   8.532   5.600   3.314  0.0869 -0.1961  0.0934
20874W        W24094  10.404   5.426  10.074  0.2259 -0.1130  0.0615
20875W        W24095   7.708   3.492   3.824 -0.2908 -0.4344  0.0126
20876W        W24096   7.123  16.728  10.578  0.0338 -0.2229 -0.0702
20877W        W24097  17.606   5.188   9.340 -0.3246  0.1310  0.2420
20878W        W24098   7.179   3.822   5.677  0.0115 -0.0493 -0.0364
20879W        W24099   9.250   5.759   8.803  0.0687 -0.0228 -0.4100
20880W        W24100  14.112   3.467  15.213 -0.0703 -0.1518 -0.0885
20881W        W24101   5.314  11.636  13.399  0.0128  0.1041  0.1348
20882W        W24102  13.925  13.792  11.677 -0.0612  0.1026  0.5490
20883W        W24103  13.363   1.226  10.013 -0.0520  0.0160 -0.2513
20884W        W24104   6.740   9.190   6.414  0.2341 -0.0464  0.4269
20885W        W24105   1.628  12.291   7.043 -0.4815  0.4064 -0.0684
20886W        W24106  12.269  13.132   3.528  0.1063  0.2292  0.1720
20887W        W24107   9.096   2.120   8.836  0.1487  0.1582 -0.0149
20888W        W24108   6.861   8.477  12.747 -0.0559 -0.2604  0.0528
20889W        W24109   7.539   2.533   6.945 -0.2073 -0.0581  0.0777
20890W        W24110  12.817   6.277  16.481 -0.2740 -0.0908 -0.2036
20891W        W24111   4.011   4.382   9.891 -0.4268  0.0546 -0.3792
20892W        W24112  10.639  17.550   8.378  0.0146 -0.2046 -0.0719
20893W        W24113   4.499  14.343  11.590 -0.0505  0.0282  0.1752
20894W        W24114  16.917   4.012   9.145  0.3516 -0.1457  0.2840
20895W        W24115   4.884  17.461  13.170 -0.1443  0.0581  0.6310
20896W        W24116  10.990  16.431   5.918 -0.3298  0.0308  0.1594
20897W        W24117   9.927   4.050  11.742 -0.0611 -0.0888 -0.0633
20898W        W24118   9.065   6.161  12.769 -0.0744 -0.2164 -0.4026
20899W        W24119   1.143  16.936   7.101 -0.0661  0.0688 -0.1052
20900W        W24120   0.304   7.507   5.649  0.0276 -0.0020 -0.0516
20901W        W24121   9.117   2.683   1.950 -0.1185  0.1094  0.1819
20902W        W24122  15.139   1.402   8.166 -0.2661  0.0859  0.3097
20903W        W24123   1.182   5.134  17.338 -0.2839  0.2631 -0.1519
20904W        W24124  13.156  17.778   1.117 -0.2581 -0.1020  0.0810
20905W        W24125  15.479   4.252  14.452  0.0498 -0.0344 -0.0472
20906W        W24126   6.867   7.526  13.027  0.2400 -0.0704  0.0597
20907W        W24127  16.026   3.301  14.813 -0.3314 -0.1484 -0.2452
20908W        W24128  14.957   0.824  16.359 -0.0718 -0.0036 -0.0306
20909W        W24129   6.758  11.254  13.532 -0.3418  0.0866  0.0153
20910W        W24130  12.715   8.260  15.455  0.1905 -0.0142  0.6964
20911W        W24131  16.978   2.813  10.970  0.0520  0.2347 -0.1556
20912W        W24132  12.937   7.539   2.744 -0.0190 -0.1435  0.1508
20913W        W24133   4.847   0.099  16.161 -0.2755  0.0299 -0.1599
20914W        W24134   7.212  15.916   8.994 -0.1558  0.0416 -0.0039
20915W        W24135  10.605   1.521   1.830 -0.1743 -0.1953  0.0988
20916W        W24136  11.250   0.225   5.622  0.2761  0.0896 -0.0055
20917W        W24137  16.936  15.072  13.187 -0.1608  0.1203 -0.0290
20918W        W24138  10.188  12.451  13.449 -0.2088  0.0133  0.1179
20919W        W24139  15.251   4.052  10.243  0.4526 -0.1631  0.2933
20920W        W24140  13.105   9.736  15.861 -0.3386  0.2542  0.0668
20921W        W24141   5.001  17.322   3.100  0.0477  0.0266 -0.0881
20922W        W24142   4.864  10.127  11.596  0.0525  0.1254 -0.1238
20923W        W24143   7.938   6.397   8.214 -0.1772  0.0514 -0.2302
20924W        W24144   5.872   1.839   7.994  0.0268  0.0929 -0.1223
20925W        W24145   7.786   0.418  12.510  0.1332  0.0084  0.2718
20926W        W24146   9.599  10.341   7.800 -0.2295 -0.3312  0.0929
20927W        W24147   3.185   2.145  16.066  0.1971  0.1077 -0.1094
20928W        W24148  12.269  14.205  15.557 -0.1733 -0.1011  0.0703
20929W        W24149   9.107  17.534   3.135  0.2670 -0.1500  0.0786
20930W        W24150   7.836   5.477   0.642  0.1047 -0.2421  0.2809
20931W        W24151   9.071   2.921   9.558 -0.3236 -0.1505  0.0291
20932W        W24152   3.643   7.232  13.991 -0.1521 -0.0774  0.3574
20933W        W24153  10.353  15.078  14.715  0.0603 -0.1435 -0.0367
20934W        W24154   8.490   2.706   6.348  0.0961  0.2552  0.0115
20935W        W24155  11.516   9.886  14.425  0.1041  0.0166  0.1341
20936W        W24156   6.754   2.102   6.410 -0.1742 -0.1657  0.3540
20937W        W24157   8.682   5.364  11.965 -0.2361  0.1388  0.1062
20938W        W24158   8.090  17.956   0.065  0.1848 -0.1796  0.0019
20939W        W24159  10.661   3.581   9.342  0.0558 -0.1658 -0.0850
20940W        W24160   6.840  15.548   0.027  0.2496  0.0442 -0.0478
20941W        W24161  13.191   2.826  14.131  0.3522  0.1973 -0.1249
20942W        W24162   9.472   6.042  13.066 -0.1370  0.0594 -0.1292
20943W        W24163  12.027  16.472   8.802  0.0282  0.2081 -0.1355
20944W        W24164  11.211   3.903  12.858 -0.3836  0.0147  0.2325
20945W        W24165  15.095   8.055  11.607  0.1630 -0.4316  0.0131
20946W        W24166  12.221  18.259   8.256  0.1402  0.2211 -0.1712
20947W        W24167   5.119   7.962  10.123  0.0061 -0.0439 -0.0211
20948W        W24168  13.076  15.325  13.868  0.0820 -0.2711 -0.2964
20949W        W24169   8.369  18.192   9.593  0.0092 -0.0191  0.1057
20950W        W24170  17.012  11.027  11.195  0.0040 -0.1322 -0.0646
20951W        W24171   8.533  15.460  11.670  0.0002  0.2221  0.2010
20952W        W24172   6.310   3.082  14.061 -0.3358 -0.1568 -0.0129
20953W        W24173   6.635   5.891  14.171 -0.1123 -0.3661  0.1650
20954W        W24174  12.396   2.495  17.113 -0.0719 -0.0990 -0.1503
20955W        W24175  10.147   5.554  11.966 -0.1888  0.3696 -0.2506
20956W        W24176   8.354  17.101  12.483  0.1545  0.4200 -0.0328
20957W        W24177   4.084   1.601  10.147 -0.1032 -0.1112 -0.0887
20958W        W24178   6.836   4.099  14.329  0.2062 -0.0541 -0.1705
20959W        W24179   1.775   4.441   0.593  0.2936  0.0629 -0.1402
20960W        W24180   4.473   2.203  13.987 -0.1685 -0.0502 -0.1932
20961W        W24181  10.981   5.398  10.058 -0.0429  0.2084 -0.1123
20962W        W24182  14.752   4.578   0.812 -0.0277  0.0629 -0.0258
20963W        W24183   8.490   0.501  15.944 -0.1038 -0.0471 -0.0105
20964W        W24184   5.798  17.474  15.567  0.2959 -0.1885  0.1304
20965W        W24185   5.651   4.570  10.661  0.0699  0.0960 -0.2851
20966W        W24186   8.221   1.372  12.944  0.2828  0.0491  0.0215
20967W        W24187   8.400  18.169   8.643 -0.1338 -0.2641  0.1850
20968W        W24188  17.602  17.769   9.118 -0.2351 -0.0260  0.0943
20969W        W24189   8.545   1.915  15.660  0.1949 -0.0198 -0.0049
20970W        W24190  15.431   8.855  17.103  0.3482  0.3396  0.2211
20971W        W24191  11.949   6.601   5.292 -0.0433 -0.0059  0.0564
20972W        W24192  16.320   6.035  16.383  0.1843 -0.0914 -0.1046
20973W        W24193  14.505   4.048  10.767 -0.0393 -0.0767 -0.2102
20974W        W24194  13.914   1.693  14.239 -0.1469 -0.2026 -0.3608
20975W        W24195   9.272  16.355  13.748 -0.2218  0.0590  0.1432
20976W        W24196  11.335   4.950  16.356 -0.1672  0.0042 -0.1393
20977W        W24197   6.853   5.154   7.367  0.2101 -0.0321  0.1203
20978W        W24198   5.418  13.461  12.933  0.0310 -0.1308 -0.2572
20979W        W24199   4.308  10.280   9.051  0.0431 -0.0565  0.0042
20980W        W24200   9.320  10.814  15.325 -0.0616  0.0803  0.0298
20981W        W24201  12.288   3.276   2.794  0.0079  0.1156  0.0032
20982W        W24202   9.161   0.880  12.379 -0.2340  0.0947 -0.2136
20983W        W24203   9.680  16.941  17.616  0.2998 -0.1349 -0.1928
20984W        W24204   9.733  13.183   3.422  0.0894 -0.0375  0.2877
20985W        W24205  10.596   6.407  14.917  0.0610  0.1769  0.0553
20986W        W24206  10.036   8.010  10.815  0.2139  0.0956 -0.0103
20987W        W24207  11.736  17.309  15.076 -0.0056 -0.2386 -0.1526
20988W        W24208  15.990   4.336  14.218  0.2229  0.0388  0.1391
20989W        W24209  10.527   0.384   7.878  0.1291  0.0840 -0.2549
20990W        W24210   9.883   3.211  10.861 -0.0884  0.0236 -0.1035
20991W        W24211  10.747   4.135  15.640 -0.1295  0.0735 -0.0053
20992W        W24212  10.930  16.652  13.787 -0.0971  0.0637 -0.0951
20993W        W24213  13.903  18.116   1.161 -0.1412 -0.0382  0.1352
20994W        W24214   2.589   1.575   4.742  0.3009  0.1239 -0.0278
20995W        W24215   7.320  14.720  15.618  0.1554 -0.0507  0.0210
20996W        W24216   8.487  18.054  14.820 -0.0482  0.2559 -0.0359
20997W        W24217   2.571  14.219   5.312  0.1470  0.0157  0.0155
20998W        W24218  11.983  17.813  15.324  0.0146  0.1698 -0.0871
20999W        W24219   6.586  16.590   3.693 -0.3175  0.0974 -0.1957
21000W        W24220   4.017   1.206   5.225 -0.2690 -0.0528  0.2733
21001W        W24221  13.943  16.647   6.344  0.3686 -0.0265  0.4292
21002W        W24222  17.520   7.755  14.860  0.1697  0.0363  0.2530
21003W        W24223   7.885  15.314  11.670  0.0110  0.1423  0.3043
21004W        W24224   7.659   1.736  10.369 -0.1092 -0.0907 -0.1901
21005W        W24225  10.757  17.199  14.044 -0.0058 -0.3480  0.0536
21006W        W24226   9.914   4.317  14.669 -0.0235  0.0934 -0.0525
21007W        W24227   4.014   1.224  12.716  0.3967  0.1939  0.1196
21008W        W24228  15.516   3.859  16.961  0.1359 -0.1004  0.3533
21009W        W24229  11.102   8.957  10.775  0.0296 -0.0686  0.1719
21010W        W24230   5.765   4.327  17.305 -0.0547 -0.1074 -0.2007
21011W        W24231   5.573   2.942  15.157 -0.0153 -0.1890  0.2486
21012W        W24232   5.039   3.474   9.778  0.0363  0.2051  0.2041
21013W        W24233   4.608   7.636  13.182  0.1714  0.0656  0.1923
21014W        W24234  14.981  13.264   4.664  0.1720 -0.2651  0.0866
21015W        W24235  10.385   4.757  16.678  0.0857  0.1320  0.1417
21016W        W24236   9.080   0.519  12.000 -0.0495  0.1038  0.0811
21017W        W24237  14.974  17.303   1.926  0.1164 -0.1305  0.0991
21018W        W24238  16.838   3.578   0.048 -0.0193 -0.0412 -0.0160
21019W        W24239   3.059   8.796  17.922  0.1188  0.0171 -0.0328
21020W        W24240   6.311   0.175  11.715  0.0147  0.0479 -0.2578
21021W        W24241  12.002   0.445   9.909  0.1244 -0.0276  0.0571
21022W        W24242  14.914  14.768   5.137 -0.2850 -0.0468 -0.0506
21023W        W24243   9.985   1.587  13.278  0.4212  0.3642  0.0140
21024W        W24244   9.687   2.149   9.164  0.1817 -0.0746  0.1781
21025W        W24245  13.414   4.074  14.964 -0.0529  0.0923 -0.2902
21026W        W24246   8.366   4.888  11.231 -0.1746  0.0699  0.0067
21027W        W24247   6.476   8.796  17.768 -0.0617  0.0858  0.1862
21028W        W24248  17.180   0.257  15.974 -0.1128  0.3578 -0.3115
21029W        W24249  14.148   4.105  12.562 -0.1176 -0.3321 -0.0424
21030W        W24250   6.520  17.476  13.155 -0.0013  0.2018 -0.2144
21031W        W24251  14.322   1.856  16.713  0.3023  0.2735 -0.2623
21032W        W24252   7.636   1.921  17.109 -0.1151 -0.0283  0.1170
21033W        W24253   3.154   3.713   1.483  0.1538 -0.0266 -0.0029
21034W        W24254  14.059   2.758  14.455  0.1290  0.0113 -0.2102
21035W        W24255   5.421  18.143   3.461 -0.2187 -0.1140  0.0571
21036W        W24256   9.980   3.418  14.804 -0.3705  0.0966 -0.1411
21037W        W24257  16.483   3.744  15.488 -0.0529  0.1100 -0.1391
21038W        W24258   9.003  17.026  11.507  0.1256 -0.0911  0.2567
21039W        W24259  10.836  10.143  18.025 -0.1987 -0.2214  0.1598
21040W        W24260  10.891   3.079  18.227 -0.2034  0.0027 -0.1570
21041W        W24261  11.611   0.672   3.235  0.1300  0.2464  0.0337
21042W        W24262   4.705   6.165  11.726  0.0769 -0.3314  0.3193
21043W        W24263   3.278   2.095   0.569  0.1433  0.3828 -0.0272
21044W        W24264   5.376   0.649  17.056 -0.1222  0.3325  0.0997
21045W        W24265  10.859   0.149  10.489 -0.0164  0.2310 -0.2619
21046W        W24266   5.540  16.238   9.738 -0.2394  0.1064 -0.2000
21047W        W24267  18.060   3.209  17.603  0.1155 -0.0184  0.3362
21048W        W24268  12.377  15.014  13.007 -0.3095 -0.2531  0.2676
21049W        W24269   7.885  12.782  11.777  0.1015 -0.0346 -0.3337
21050W        W24270  13.948  16.142  15.525 -0.0949 -0.0537 -0.0803
21051W        W24271   2.046  18.197  14.487 -0.3366  0.0746  0.1400
21052W        W24272  10.833  15.711  13.621 -0.3756 -0.1862 -0.1194
21053W        W24273   2.759   6.904  11.861 -0.0559 -0.0485 -0.0079
21054W        W24274   8.223   2.579  13.199 -0.0644 -0.3604 -0.2018
21055W        W24275   2.150  10.185  17.985 -0.0302 -0.2149  0.2486
21056W        W24276   7.458  12.178   6.598 -0.0730 -0.0741 -0.0521
21057W        W24277   8.744   1.231  11.072 -0.0497  0.1914  0.3189
21058W        W24278   7.118  16.457  11.021  0.1689  0.0226 -0.2640
21059W        W24279  10.298  14.651  16.279  0.0766 -0.0480  0.0636
21060W        W24280   7.593   4.288  14.330 -0.1655 -0.0890  0.1925
21061W        W24281   7.631   3.022  15.476  0.0993 -0.1496 -0.0310
21062W        W24282   1.906  13.238   9.420  0.1445  0.0675 -0.2082
21063W        W24283   3.787   9.205  11.369  0.1261 -0.2372  0.0365
21064W        W24284   7.313   0.208  11.953  0.2136 -0.0492  0.0814
21065W        W24285  14.421   3.537   6.588  0.1663  0.0418 -0.1755
21066W        W24286  16.546   7.360   9.601 -0.2913 -0.0258 -0.0994
21067W        W24287  11.797   1.204  17.153  0.3523 -0.1647 -0.0650
21068W        W24288   7.771   2.896   5.473  0.1053  0.4041 -0.0192
21069W        W24289  11.842   7.916   4.396 -0.2056  0.0994  0.1482
21070W        W24290  11.844  15.472   5.310  0.0099 -0.0558 -0.2038
21071W        W24291  11.266   3.767  14.277 -0.0435 -0.3610 -0.0562
21072W        W24292  13.650   8.122  15.654  0.0258  0.0095  0.2315
21073W        W24293  10.001   3.794  13.768  0.0113 -0.1237  0.1651
21074W        W24294   5.689   1.019  14.095  0.0244 -0.0049  0.0566
21075W        W24295  15.498   0.500  16.074  0.0125  0.2682 -0.3217
21076W        W24296  10.753  16.409   8.583  0.1366 -0.1958 -0.0217
21077W        W24297   8.373  14.817  16.056 -0.6981  0.0457  0.1445
21078W        W24298   6.865  14.699   9.438 -0.0854  0.1637 -0.2368
21079W        W24299  11.686   6.614  15.665 -0.1885  0.3934 -0.0070
21080W        W24300  11.664   3.132   8.742  0.0162 -0.1513 -0.1423
21081W        W24301  12.595  15.056  13.957  0.1008 -0.3184 -0.0699
21082W        W24302  11.346  17.999  14.657 -0.0054  0.4745 -0.0751
21083W        W24303  11.379   1.765  15.621 -0.1788 -0.2181  0.0976
21084W        W24304  15.849  16.356  12.249 -0.1108  0.0644 -0.0180
21085W        W24305   5.907   0.495   7.390 -0.1728 -0.0476  0.3131
21086W        W24306  11.595   2.746  17.295 -0.0892  0.0874  0.2346
21087W        W24307  11.396   4.007  15.173  0.0144 -0.1215 -0.1177
21088W        W24308   7.043  14.244  12.963 -0.0360  0.2850  0.0161
21089W        W24309   9.779   4.088  11.177  0.0635 -0.0507 -0.2805
21090W        W24310  10.372   2.522   8.505  0.0064 -0.1307 -0.3437
21091W        W24311   7.215  17.137   0.451 -0.1633 -0.6546 -0.3066
21092W        W24312   4.625   0.593  16.173  0.1968  0.0968  0.0247
21093W        W24313   7.467  11.238  17.253  0.1910 -0.1305  0.0534
21094W        W24314  14.997  14.541   9.413 -0.3562 -0.1366 -0.2099
21095W        W24315  11.206   0.047   4.950  0.1772  0.0978 -0.0756
21096W        W24316   4.714   9.335   7.588 -0.1487  0.1144  0.0512
21097W        W24317  10.218  16.281  11.497  0.2420 -0.1105  0.0590
21098W        W24318   3.398  15.629  11.823 -0.0098  0.2115 -0.0805
21099W        W24319   5.542   5.203  11.069  0.0738 -0.2431  0.0115
21100W        W24320   4.521  11.290  14.766 -0.0515  0.0905 -0.1928
21101W        W24321   5.574   3.584  13.194  0.0742 -0.2431 -0.1044
21102W        W24322   5.922   3.812  11.575 -0.0124  0.2206  0.2262
21103W        W24323   9.559   1.873  12.063  0.0505  0.2317 -0.1557
21104W        W24324  13.273   6.062  10.521  0.2002 -0.4317 -0.1402
21105W        W24325   7.441   3.178  15.914 -0.4503  0.1405 -0.0969
21106W        W24326   4.813  13.099   7.388  0.1789 -0.1101  0.1158
21107W        W24327   6.466  11.642  13.876  0.1014 -0.2522  0.2377
21108W        W24328  12.265   8.004  11.329  0.1573 -0.4948 -0.2864
21109W        W24329  11.430   0.001  12.168 -0.0729  0.2060 -0.1954
21110W        W24330  11.697   2.260  16.608 -0.0376 -0.3070 -0.2812
21111W        W24331  10.605   3.731  10.935  0.1118  0.1693 -0.1475
21112W        W24332  10.503  16.865  13.651  0.0302 -0.4158 -0.2175
21113W        W24333   9.953   0.104  14.799  0.3089 -0.0375  0.0859
21114W        W24334   0.351  15.000   9.642  0.1687 -0.1793 -0.1217
21115W        W24335  13.544   0.168  13.451  0.0426 -0.2052 -0.1094
21116W        W24336   7.393   7.381  13.079 -0.0368 -0.0566 -0.0758
21117W        W24337  11.773   7.661  14.553  0.2033 -0.1227 -0.1368
21118W        W24338  12.997   6.267   3.171 -0.3484 -0.1312  0.0896
21119W        W24339   6.666   8.282  10.917 -0.0617 -0.0556  0.1258
21120W        W24340   8.314  14.828  17.289 -0.0845  0.2157 -0.3310
21121W        W24341   9.510   6.547  11.263  0.2196  0.0058  0.5330
21122W        W24342   2.331  15.832   5.661  0.1534  0.2099 -0.2341
21123W        W24343   8.166   6.250   9.579  0.4831 -0.1271 -0.1072
21124W        W24344  15.910   2.019   0.201 -0.0055  0.0640  0.1224
21125W        W24345   2.897   0.223  12.859 -0.1135 -0.2137  0.2454
21126W        W24346   8.916  12.714  14.822  0.0249  0.1264 -0.0428
21127W        W24347   9.527   2.156  15.384  0.3167 -0.1538  0.0137
21128W        W24348   6.700  14.564  17.302 -0.2270  0.0008 -0.1725
21129W        W24349   7.970   2.549  12.530  0.1107  0.0405 -0.1564
21130W        W24350  11.952  10.957  16.600  0.0256 -0.0924  0.0483
21131W        W24351   3.939   6.487  16.869 -0.0692  0.0144  0.1647
21132W        W24352   5.726  17.233  11.837  0.1456 -0.3180 -0.0679
21133W        W24353   4.131   3.954   8.306 -0.0622 -0.1971  0.2019
21134W        W24354   6.295  13.933  12.400 -0.0985 -0.2055  0.0004
21135W        W24355   8.070  12.882  15.663 -0.1706 -0.1793  0.2810
21136W        W24356  13.070  17.908   3.829  0.0877  0.0936  0.2362
21137W        W24357   8.784   4.254  17.273  0.0564  0.0467 -0.2701
21138W        W24358   2.849   4.411  14.877 -0.1117 -0.3884 -0.2111
21139W        W24359  16.008   4.592  11.800  0.0291 -0.2487 -0.0815
21140W        W24360   2.432  17.499  11.654  0.1613  0.0740  0.1859
21141W        W24361   8.660  14.410  12.984  0.0859  0.0775  0.0372
21142W        W24362  10.042  11.730  15.472 -0.0647 -0.0432  0.2904
21143W        W24363   8.887   8.531  12.355  0.0011  0.0929  0.1346
21144W        W24364   2.693  13.096  12.173  0.3141  0.4456 -0.3920
21145W        W24365  12.137  17.950  12.965 -0.1036 -0.0954  0.0030
21146W        W24366  16.775   1.742   1.085 -0.1326 -0.2225 -0.1816
21147W        W24367  12.706   2.734   5.024  0.3940 -0.0512  0.3658
21148W        W24368   5.633   4.075  11.921 -0.0238  0.0605 -0.0134
21149W        W24369   9.127   3.064  11.540 -0.1306 -0.3079  0.2100
21150W        W24370  16.833  18.013  14.482 -0.1351 -0.1704 -0.1609
21151W        W24371  12.549  14.600  13.399 -0.3507 -0.3014  0.0618
21152W        W24372  14.563  17.388  12.690  0.2200  0.1900 -0.2186
21153W        W24373  13.994   7.988   6.945 -0.0674 -0.0001 -0.0720
21154W        W24374   9.572   3.678   7.257 -0.0635 -0.4242 -0.1808
21155W        W24375  10.048  16.052  14.861  0.0160 -0.0555 -0.1045
21156W        W24376   6.007   0.662  16.222 -0.1473  0.0753  0.0640
21157W        W24377   6.453  12.572  11.940 -0.5075 -0.3183 -0.1898
21158W        W24378   5.677  13.752  13.871  0.0178  0.1978  0.1467
21159W        W24379   7.199   0.154   1.111 -0.1474 -0.4107  0.0663
21160W        W24380   4.596  17.401  12.312  0.0279  0.0247 -0.4615
21161W        W24381   4.594  16.700  15.261 -0.1885  0.2751 -0.1002
21162W        W24382  10.588  12.724   0.233 -0.2271 -0.1586  0.2381
21163W        W24383  10.338   3.761  10.156  0.2204  0.2929 -0.0004
21164W        W24384   5.045   2.850   9.651 -0.1965  0.0347 -0.4922
21165W        W24385   6.490  17.940  15.303 -0.0620 -0.0707 -0.1107
21166W        W24386   4.953   3.571  11.677 -0.0249  0.0247 -0.1268
21167W        W24387  13.803   2.002  13.311  0.0160  0.1856  0.0321
21168W        W24388   2.281   4.111  10.719 -0.1328 -0.0286 -0.1214
21169W        W24389   9.133  13.747   9.750  0.1050  0.2822  0.0983
21170W        W24390   0.279  15.696  18.035  0.0300 -0.0050  0.2133
21171W        W24391   7.521  17.769  10.575 -0.2395 -0.2407  0.3152
21172W        W24392  16.673   0.803   8.549 -0.3842  0.3648 -0.0814
21173W        W24393   7.760  16.167   8.913 -0.0165  0.1752 -0.0879
21174W        W24394   5.218   3.288  11.080 -0.0959 -0.0628 -0.0442
21175W        W24395   5.689   1.596  11.983  0.0185 -0.1826  0.3600
21176W        W24396   7.598  11.985  10.293  0.3373  0.0078 -0.0903
21177W        W24397  11.082   6.370  11.181 -0.0542 -0.0012 -0.0562
21178W        W24398   3.679   0.676   8.065 -0.2178  0.2276 -0.1700
21179W        W24399  14.506  15.514  10.713  0.0197  0.2851 -0.0012
21180W        W24400  10.977   6.126  13.163  0.1399 -0.0803  0.2190
21181W        W24401  11.248  17.367  11.959 -0.0066  0.2042  0.2584
21182W        W24402  10.051   0.675  12.684 -0.2023 -0.0644  0.3014
21183W        W24403   6.288  12.948  14.229  0.0930 -0.0490  0.1812
21184W        W24404  11.116  11.380  14.082 -0.3189  0.0892  0.1718
21185W        W24405   7.544  10.093   9.021  0.1330  0.2761 -0.3338
21186W        W24406  13.703  16.460  13.489  0.1890 -0.2207 -0.0162
21187W        W24407  11.853   3.572   3.132 -0.1733  0.1571  0.5048
21188W        W24408  12.893  16.609  13.082  0.1027 -0.1674 -0.1177
21189W        W24409  17.655  17.008   7.011 -0.0797  0.1936  0.1362
21190W        W24410   8.846   7.121   9.254  0.1185  0.1339 -0.1919
21191W        W24411   7.145  17.419  11.524 -0.0619 -0.1032 -0.2605
21192W        W24412  18.106  16.613  12.976 -0.1725 -0.0972  0.0717
21193W        W24413   1.727  14.519   8.720  0.1662  0.0140 -0.1140
21194W        W24414   4.775  14.187  11.146  0.1509  0.2307 -0.1216
21195W        W24415   6.726   2.859   1.142  0.3782 -0.0156 -0.0626
21196W        W24416   6.793   8.455   7.641  0.0196 -0.0319  0.0029
21197W        W24417   8.022   4.521  11.069  0.0295 -0.0848 -0.1044
21198W        W24418   1.871  17.757  13.847  0.3024  0.0883  0.1291
21199W        W24419  17.856   6.156   2.246  0.2557 -0.1191 -0.0862
21200W        W24420  10.741   1.823  15.362  0.0996  0.0011 -0.2224
21201W        W24421  12.602   2.146  12.796 -0.2334  0.2303 -0.0295
21202W        W24422   9.041  16.043   5.118  0.1013 -0.0100  0.1339
21203W        W24423  12.235   4.572  16.191 -0.1450 -0.1288  0.1012
21204W        W24424   2.508  16.600   9.557  0.2238 -0.1666  0.2974
21205W        W24425   4.551  13.941  10.147 -0.5302  0.1638 -0.0714
21206W        W24426   3.621  13.403  11.791 -0.1996  0.0345  0.0081
21207W        W24427  11.673   3.688  12.083 -0.2503  0.1215  0.4026
21208W        W24428   4.313   9.110  12.458 -0.3812  0.0169 -0.0333
21209W        W24429   8.263   3.647  13.041  0.1817  0.0174  0.0432
21210W        W24430  15.139  13.640  17.491  0.2069 -0.2466  0.0938
21211W        W24431   7.166  15.555  13.726  0.2040 -0.2265 -0.2771
21212W        W24432  11.008   1.348   2.217  0.1359  0.4238  0.2484
21213W        W24433  15.266   1.169  12.537 -0.1049 -0.0513  0.1705
21214W        W24434   8.654   3.472  16.668  0.0524 -0.3327  0.0522
21215W        W24435  16.970   1.848   7.854  0.2372  0.4739  0.0504
21216W        W24436   6.828   3.282  10.198  0.2100 -0.0734 -0.3223
21217W        W24437   9.488  17.855  12.384  0.3085  0.1354  0.2414
21218W        W24438  10.127   5.266  12.650  0.0968  0.1012 -0.0017
21219W        W24439   6.181   1.542  14.181 -0.3592 -0.0955  0.0614
21220W        W24440   6.141   5.792  11.478 -0.1161 -0.1134 -0.0644
21221W        W24441  11.062   1.971  17.788 -0.2301 -0.2084 -0.0648
21222W        W24442   5.590   3.878  17.574 -0.2763 -0.2153 -0.1021
21223W        W24443   8.847   2.912  13.063 -0.2395  0.0130  0.4465
21224W        W24444  16.375   6.295   4.554  0.0093  0.5400  0.0361
21225W        W24445   7.277   0.990   5.312 -0.2071  0.0580 -0.2527
21226W        W24446   7.975   1.323  10.633  0.0705  0.2365  0.1860
21227W        W24447   5.602   8.984  13.090 -0.2885 -0.3710  0.0555
21228W        W24448   1.711   6.355  10.971  0.1727  0.1213  0.4802
21229W        W24449   5.967   5.278   9.063  0.2265  0.0155  0.2462
21230W        W24450   7.192   2.507  14.058 -0.1895  0.1970  0.3213
21231W        W24451  13.761   4.136  13.481  0.2845 -0.0308  0.2480
21232W        W24452   4.747  14.360  10.361  0.0224  0.2499  0.0815
21233W        W24453  13.301   5.084  16.593  0.2464  0.0875 -0.0896
21234W        W24454  16.061   0.366  17.988 -0.1135 -0.1006  0.0245
21235W        W24455   5.182   2.364  13.123 -0.1201  0.0937  0.1893
21236W        W24456   1.430  11.951  12.307 -0.0074  0.1138  0.2372
21237W        W24457   9.012   2.119  14.305  0.1003 -0.0401  0.0203
21238W        W24458  12.022   0.596  16.887  0.1052  0.1964 -0.0038
21239W        W24459   7.508  12.057   9.798 -0.0880 -0.4322  0.1348
21240W        W24460   2.405  16.431   6.285 -0.0767 -0.0855  0.0443
21241W        W24461   7.235   5.439   8.448 -0.0113 -0.0561 -0.2316
21242W        W24462  14.188   0.979  13.716  0.1647  0.0449 -0.2081
21243W        W24463  11.122   4.455   9.815  0.1145  0.0273  0.0550
21244W        W24464   3.723  12.612   8.717  0.1447 -0.0751 -0.0273
21245W        W24465   9.478   1.717  17.899 -0.1091  0.1577  0.1630
21246W        W24466   5.605   0.443  14.253 -0.3845  0.2219  0.2021
21247W        W24467  10.273   0.074  16.235  0.1457  0.1341 -0.2430
21248W        W24468  14.011   5.779  12.015  0.0803 -0.1556 -0.0366
21249W        W24469  11.844   1.452  12.667 -0.0001  0.0076 -0.0239
21250W        W24470   4.620  11.308  13.907  0.1008 -0.0103  0.0397
21251W        W24471   3.298   0.667   0.000 -0.3168  0.1009 -0.0021
21252W        W24472   6.753   0.220  12.071 -0.1476 -0.3218 -0.1759
21253W        W24473  10.764   2.410  16.885 -0.1501  0.1368 -0.0054
21254W        W24474   0.374  12.005  17.788 -0.0407 -0.0169  0.0691
21255W        W24475   6.334   1.955  17.351 -0.1144  0.3112  0.2079
21256W        W24476   7.242   4.965  15.718  0.2278 -0.0472  0.1331
21257W        W24477   3.881   6.255  16.108 -0.0691 -0.0786  0.0537
21258W        W24478   4.769   8.875   0.899 -0.0434  0.2339  0.2011
21259W        W24479   7.041   0.090  11.143 -0.0003 -0.0876  0.0370
21260W        W24480  13.768   4.594  12.572 -0.2098  0.1473 -0.0859
21261W        W24481   5.649   8.965  14.646 -0.0208  0.0263  0.0771
21262W        W24482   2.835   4.212  15.610 -0.1414  0.0175 -0.2919
21263W        W24483  12.643   6.582  13.554 -0.6015 -0.0215 -0.1124
21264W        W24484   6.841   1.733  11.335 -0.0278  0.0999 -0.2441
21265W        W24485  16.292   0.221   8.073 -0.2486  0.1842 -0.3410
21266W        W24486  16.444  17.848  14.910  0.0830  0.0600  0.0967
21267W        W24487   8.984   4.787  14.480  0.4110  0.2340 -0.1361
21268W        W24488   8.532  16.865   0.606 -0.0491  0.0943 -0.0003
21269W        W24489   6.261   2.880  12.051 -0.0509  0.2208 -0.0872
21270W        W24490  14.421  16.111  15.200  0.1479  0.3457  0.2684
21271W        W24491   2.169   4.476  14.133  0.1151 -0.0834 -0.0921
21272W        W24492   5.489   5.285   0.400  0.0469  0.1606 -0.0815
21273W        W24493   9.198  15.390  10.564 -0.0684  0.1492  0.0625
21274W        W24494  10.160   2.954  13.116  0.2965  0.0582  0.2837
21275W        W24495  12.049   7.789  10.652  0.0371 -0.0693  0.0429
21276W        W24496   3.485  14.175   2.057  0.0633 -0.0430  0.4363
21277W        W24497  11.290   0.071  13.199 -0.0729 -0.0704  0.0958
21278W        W24498  12.969   2.639  13.374 -0.0658  0.2170 -0.1067
21279W        W24499   9.869   3.592  15.270  0.1098 -0.1078 -0.1341
21280W        W24500  12.488   1.149   2.787  0.0997  0.0976  0.0494
21281W        W24501  13.956  13.020  12.298  0.0815  0.0984 -0.3320
21282W        W24502  12.432   0.475  15.487  0.0264 -0.3294 -0.2674
21283W        W24503   9.009   7.835  11.193 -0.5099  0.0435  0.1631
21284W        W24504   4.949   2.972  13.833 -0.0949 -0.5208 -0.0629
21285W        W24505  10.237   5.107   2.842  0.0596 -0.1298 -0.0423
21286W        W24506   0.983   2.337  15.827  0.1262 -0.1379  0.0909
21287W        W24507   7.886   7.013  12.716  0.2594  0.1305 -0.1509
21288W        W24508   5.786   0.233  13.082  0.0537  0.1118 -0.4063
21289W        W24509  10.884   9.212  17.965  0.0194  0.0465  0.1331
21290W        W24510   9.989  17.536   8.960  0.0520 -0.0270  0.0346
21291W        W24511  10.990   4.649  13.350  0.0458  0.1080 -0.0560
21292W        W24512  14.336   3.001  14.106  0.2590 -0.0524  0.1068
21293W        W24513  11.272  10.880  13.942  0.0837  0.0371  0.0688
21294W        W24514   5.493   5.559  10.709 -0.0816 -0.2191  0.0151
21295W        W24515   9.359   6.788   7.192 -0.0237 -0.0986  0.1427
21296W        W24516   8.951   2.460  13.348  0.2548  0.0050 -0.0005
21297W        W24517   2.316   7.780   5.344  0.0635  0.0084 -0.1837
21298W        W24518   7.481   6.785  16.215 -0.1476  0.2083  0.0600
21299W        W24519  12.733   2.421  10.175 -0.1247  0.0830  0.1013
21300W        W24520  11.844   8.745  16.628 -0.1925  0.2467 -0.1994
21301W        W24521  11.359  14.508  16.679  0.1251  0.0303 -0.3190
21302W        W24522   2.062   1.554  15.818  0.0279  0.0775 -0.1742
21303W        W24523  10.564  16.721   2.921 -0.0504 -0.2965  0.3227
21304W        W24524   3.741   2.676  11.498 -0.0319 -0.0371 -0.1746
21305W        W24525   4.031  16.889   6.417 -0.0919  0.2050 -0.1654
21306W        W24526   7.245   2.946   3.337  0.1593 -0.2144  0.1098
21307W        W24527   4.600  16.515  12.856  0.3096  0.1027  0.0612
21308W        W24528  12.739   8.544   1.077 -0.0191 -0.1003 -0.0686
21309W        W24529  12.476   2.415  17.738 -0.3513  0.0779 -0.2112
21310W        W24530   3.880  10.606  17.392 -0.1531 -0.1946  0.1394
21311W        W24531   4.555  16.569  18.066 -0.0510  0.2180 -0.1008
21312W        W24532   5.420   0.902   3.133 -0.3348 -0.0553 -0.1866
21313W        W24533  11.669  11.841  15.327  0.0286 -0.1081  0.1636
21314W        W24534   2.697  16.048  15.995  0.0248  0.1806 -0.0668
21315W        W24535  11.445   2.857  14.782 -0.1055 -0.1718 -0.0440
21316W        W24536   9.104   4.683  17.147 -0.1137  0.1805  0.1371
21317W        W24537   9.739  13.467  18.095 -0.1753  0.1849 -0.1455
21318W        W24538   3.457   6.543  16.769  0.0527  0.1475  0.2297
21319W        W24539  14.283  17.812   0.467 -0.1560 -0.2540  0.1920
21320W        W24540  12.022   1.728   3.109  0.2416  0.2006 -0.1047
21321W        W24541  11.987   3.058  17.325 -0.1705 -0.0230 -0.0450
21322W        W24542   9.083   0.917  11.281 -0.0513  0.1519 -0.0188
21323W        W24543  12.006   2.573   4.351  0.2235  0.1851  0.0935
21324W        W24544   4.846   8.428   3.199  0.1114  0.0548  0.0574
21325W        W24545  11.305   2.059   0.843 -0.2048  0.1531  0.1108
21326W        W24546  13.853   3.674  17.062 -0.1006  0.2419 -0.3423
21327W        W24547   7.627  14.288  16.692  0.0789 -0.0935 -0.1190
21328W        W24548   9.273   3.562   4.991 -0.1793  0.1886 -0.0700
21329W        W24549  15.462   5.593  11.120  0.0872  0.0709  0.0099
21330W        W24550   9.569  18.022   0.896  0.0379  0.0539 -0.0871
21331W        W24551  12.932  17.485   5.273 -0.0712 -0.1146  0.0622
21332W        W24552  12.312  14.261   5.163  0.2119  0.1607  0.0654
21333W        W24553   7.145   6.843  15.291  0.0743 -0.1467  0.0082
21334W        W24554   8.415   9.475  18.042 -0.1021  0.3496 -0.0666
21335W        W24555   4.979   6.130  12.691 -0.1865  0.3670 -0.1859
21336W        W24556  13.108  14.635  16.347 -0.2660  0.1367  0.0522
21337W        W24557   2.288   4.453   0.335  0.0151 -0.0040 -0.0098
21338W        W24558  14.337  11.067  16.221  0.0110  0.0435 -0.0195
21339W        W24559   7.521   3.046  16.763 -0.0439  0.0139  0.0055
21340W        W24560  12.706  17.481  16.884  0.0610  0.0213  0.1191
21341W        W24561   8.394   5.035   5.294  0.1716 -0.0452  0.0188
21342W        W24562   7.221  17.985  11.760  0.0118 -0.2646  0.1692
21343W        W24563   7.929  10.960  10.269 -0.1083 -0.2235 -0.1791
21344W        W24564   6.870  12.021   3.276  0.1967  0.0388  0.2959
21345W        W24565   7.252  11.847  12.688  0.1900 -0.4141  0.0741
21346W        W24566   7.865   6.551   5.345  0.2778 -0.1135  0.1186
21347W        W24567   9.290  17.677   0.598  0.0943  0.1302  0.3131
21348W        W24568  16.229   3.909  17.976  0.2096  0.2670 -0.1451
21349W        W24569  10.394  18.021  17.511  0.0181 -0.0401 -0.3218
21350W        W24570  12.768   0.843  11.142 -0.1126  0.5372  0.2857
21351W        W24571   2.767  15.485   0.392 -0.1720 -0.1196 -0.0373
21352W        W24572  14.225   3.458   0.410 -0.2204 -0.2766 -0.1977
21353W        W24573   8.940   5.367  13.340  0.1906  0.1879  0.0153
21354W        W24574  14.102   6.057   0.118 -0.1481 -0.2518 -0.0025
21355W        W24575  11.374   2.351   0.448  0.1283  0.0923  0.0603
21356W        W24576  10.430   3.093   9.996  0.1446  0.0006  0.0497
21357W        W24577   7.013   9.164  13.358 -0.2229 -0.0950  0.3594
21358W        W24578  13.582   4.913  18.119 -0.0340 -0.0476 -0.0206
21359W        W24579   6.693   5.947  18.074 -0.0017  0.1340  0.0775
21360W        W24580   6.122   4.864   1.442  0.1998  0.0579 -0.0838
21361W        W24581  12.470   2.347  15.377  0.0359  0.0823 -0.1371
21362W        W24582  10.867   2.929   2.159  0.0571 -0.0306 -0.1946
21363W        W24583   3.263   1.639  17.782 -0.0995 -0.0020  0.2566
21364W        W24584   4.855   5.268  14.215  0.1519 -0.0079 -0.0560
21365W        W24585  10.762   6.233   1.400  0.0843 -0.1449 -0.0300
21366W        W24586   7.195   4.114  11.226 -0.0589 -0.3151  0.1233
21367W        W24587  14.772  16.587  15.735  0.2500 -0.2552 -0.1525
21368W        W24588   6.925  11.814  11.852 -0.0881  0.1160 -0.1074
21369W        W24589   3.099  16.829   6.860 -0.3434  0.0284  0.0858
21370W        W24590  11.015   2.839  16.099 -0.1359 -0.1051 -0.1772
21371W        W24591  14.390   5.611   2.566 -0.0989 -0.3483 -0.0668
21372W        W24592   2.955   5.201   4.041  0.0377 -0.1747 -0.3795
21373W        W24593   3.125   7.757   3.942 -0.2391  0.2682  0.0569
21374W        W24594  10.185  16.165  10.417  0.0243 -0.2671 -0.0225
21375W        W24595   7.392  12.428  10.097  0.0620  0.3309  0.2361
21376W        W24596   0.108   3.405   4.438 -0.1844  0.0289  0.1102
21377W        W24597  15.553   3.061   0.523 -0.0477  0.0064 -0.1370
21378W        W24598   7.657   2.804   1.270  0.1801  0.1457  0.0162
21379W        W24599  16.795  17.857   0.068 -0.4141  0.1744  0.2327
21380W        W24600   7.143  12.373   4.787 -0.1483  0.2759 -0.0141
21381W        W24601   2.977   0.508  13.845  0.0292  0.1195  0.1698
21382W        W24602   4.762   2.639   6.443 -0.2564  0.2999  0.2253
21383W        W24603  12.720   0.843   0.362  0.3637  0.1029  0.0317
21384W        W24604   2.884   2.969   1.838 -0.1749 -0.1180  0.0401
21385W        W24605  11.460  16.984  11.324 -0.3446  0.1246  0.0236
21386W        W24606  10.914  14.210   3.193 -0.0218 -0.3175 -0.1267
21387W        W24607   8.371  17.938   0.618  0.0045  0.4946  0.1052
21388W        W24608  13.608   1.585   3.258  0.2920  0.0627 -0.2057
21389W        W24609   5.749   1.477  13.263  0.0249 -0.2438  0.0288
21390W        W24610   6.108  13.905  15.440  0.0039  0.1839  0.0665
21391W        W24611   8.088  17.505   1.008  0.1441  0.2528  0.1556
21392W        W24612  12.043   1.793  14.981  0.1140  0.2316  0.2195
21393W        W24613   4.286   7.443   6.975 -0.3377 -0.2058  0.3673
21394W        W24614   7.005  13.388  13.369 -0.2592  0.0364 -0.1187
21395W        W24615   6.248  17.701  14.347 -0.1280 -0.1238 -0.1480
21396W        W24616   7.859   2.526   2.438 -0.1538  0.3041 -0.2131
21397W        W24617   7.460   1.336  10.673 -0.0742 -0.2833  0.0043
21398W        W24618   8.852   2.209   4.112  0.1041  0.1774 -0.0168
21399W        W24619   8.286  14.895  14.616 -0.0055 -0.0499 -0.1879
21400W        W24620  15.131  16.455  13.336  0.3339 -0.2444 -0.2319
21401W        W24621   6.935  13.385  10.842  0.1635  0.1384 -0.2898
21402W        W24622   4.312   3.118  15.359 -0.0290 -0.0946  0.1060
21403W        W24623   8.114   9.363   2.814  0.1748 -0.0309 -0.3679
21404W        W24624   6.665   0.412  15.709  0.2747  0.0471 -0.1283
21405W        W24625  13.453   1.023  13.998  0.0068 -0.1210  0.1124
21406W        W24626  13.891   6.142   6.806  0.0518  0.4794  0.2183
21407W        W24627  14.000   7.087   6.661  0.1039  0.0107 -0.0696
21408W        W24628  11.887   5.628  15.933 -0.0204  0.3440  0.2508
21409W        W24629   8.572  15.901   4.897  0.2558 -0.1048  0.2229
21410W        W24630  16.551   0.841  16.910  0.1461 -0.0353 -0.0444
21411W        W24631  14.005   1.971   5.107 -0.1551  0.0982  0.2196
21412W        W24632   9.126   1.407  18.053  0.3498 -0.0192 -0.1944
21413W        W24633   4.393  14.823   2.680  0.1583  0.1124  0.2278
21414W        W24634  12.654   0.773  18.058  0.3780 -0.2923  0.2935
21415W        W24635   5.406   0.591  13.271  0.0703 -0.0855 -0.1896
21416W        W24636  12.937   6.871  17.943 -0.0837 -0.0156 -0.0127
21417W        W24637   6.499   2.007  15.217 -0.0245 -0.3009  0.3913
21418W        W24638  14.385   3.684  15.578  0.1126  0.0058  0.2566
21419W        W24639   5.033   4.078  10.469  0.4549  0.0825 -0.0319
21420W        W24640   0.962   3.566   9.280 -0.0651 -0.0402  0.1821
21421W        W24641   1.493   2.768  12.187 -0.1049  0.2249  0.1244
21422W        W24642  13.932   2.518   1.217 -0.1055  0.2507  0.3771
21423W        W24643  17.515   2.685  15.504  0.2356 -0.1673  0.0365
21424W        W24644  12.248   6.097  17.430 -0.0524  0.0277 -0.2186
21425W        W24645  17.372   7.634  15.385  0.0474 -0.1638 -0.0050
21426W        W24646  12.127   5.485   3.051  0.1354  0.1908 -0.1611
21427W        W24647   7.334   5.135  17.096 -0.0679 -0.1202  0.1982
21428W        W24648   9.713  17.405   4.106 -0.0592 -0.0050  0.0625
21429W        W24649   4.725   6.704  15.113 -0.0698 -0.3829 -0.0384
21430W        W24650  12.474   6.368   1.877 -0.1892  0.0826  0.0178
21431W        W24651   8.684  15.311  12.158  0.0979  0.0427 -0.0956
21432W        W24652  17.570  18.141  11.898  0.2672 -0.0568  0.1140
21433W        W24653   7.587   4.904  15.121 -0.3918 -0.1640  0.1091
21434W        W24654   7.709   2.179  15.527  0.2095  0.0630 -0.4827
21435W        W24655  10.811  16.494  15.810 -0.1252  0.0872  0.0301
21436W        W24656  10.665  14.514   3.573 -0.1628 -0.1968  0.3451
21437W        W24657   4.622  11.344  15.652  0.0770  0.0297 -0.0627
21438W        W24658   2.161  16.030  11.462 -0.0988  0.0684 -0.1755
21439W        W24659   9.686   1.317  18.144 -0.0832 -0.0118  0.2752
21440W        W24660   9.743   2.111  11.550 -0.2156  0.1271  0.1437
21441W        W24661   8.336  17.918   1.129  0.2641  0.0820 -0.1727
21442W        W24662  11.312   2.773   1.440  0.0551  0.2007 -0.2131
21443W        W24663   5.674  11.235  17.595 -0.1826  0.1370 -0.1251
21444W        W24664  14.222   5.040  16.036  0.0564  0.0423  0.0943
21445W        W24665   5.768   1.052  16.436  0.0939 -0.1447  0.2551
21446W        W24666  14.518  17.919  18.266 -0.2877  0.0406 -0.2216
21447W        W24667  11.406   2.750  11.590 -0.1610 -0.1843 -0.1004
21448W        W24668  11.872   5.639   9.353 -0.0088  0.0314 -0.3222
21449W        W24669   7.002   6.773   6.798 -0.0444 -0.0964 -0.2732
21450W        W24670   1.616  16.652   4.202 -0.0098  0.3101 -0.1666
21451W        W24671   8.242   5.269   0.795  0.1137  0.2428 -0.0894
21452W        W24672   5.012  17.407  16.677 -0.1045 -0.1273 -0.1377
21453W        W24673  10.592   6.782  17.519 -0.1349 -0.0387 -0.0282
21454W        W24674   5.285   0.405   3.226  0.0410  0.1795 -0.0537
21455W        W24675  10.419   2.374  10.805 -0.0954 -0.0815 -0.0576
21456W        W24676   7.497   1.442  16.190 -0.2154  0.0259 -0.2311
21457W        W24677  11.626   4.543   4.564  0.1691 -0.1962  0.1531
21458W        W24678  11.735   5.906  13.857 -0.1343 -0.2207  0.2041
21459W        W24679  12.580  15.714   4.350 -0.0932 -0.2152 -0.0378
21460W        W24680   2.182   2.491   1.466 -0.1372  0.0264  0.0863
21461W        W24681   4.017   2.363  11.804 -0.0441  0.3123  0.2477
21462W        W24682  13.796  14.898  17.219 -0.0225 -0.0463 -0.2147
21463W        W24683   3.495   2.454  10.758  0.1510 -0.2796  0.1048
21464W        W24684  14.170   5.421   0.985  0.0825  0.2550 -0.0454
21465W        W24685  13.609  17.794  17.182 -0.0221  0.0842  0.0415
21466W        W24686  12.434   6.847  18.095 -0.0857 -0.2029  0.1481
21467W        W24687   9.755  14.217  12.272  0.0439 -0.0445  0.0241
21468W        W24688   7.931   3.072  15.006  0.2836  0.0003  0.3873
21469W        W24689  12.636   0.072  17.097 -0.1090 -0.3975 -0.1184
21470W        W24690   8.225  17.172  16.692  0.0408 -0.2371  0.1907
21471W        W24691   1.535   3.989   7.903 -0.1509 -0.2194 -0.0083
21472W        W24692   4.611   2.844   3.859  0.3090 -0.0809  0.4963
21473W        W24693   9.712  16.708   2.179 -0.2285 -0.3513  0.0267
21474W        W24694   9.895   2.219  15.064  0.2322 -0.0832  0.3774
21475W        W24695  11.298  18.071  11.050  0.1056  0.2395  0.1756
21476W        W24696   9.564   3.744  13.973  0.0411  0.1203 -0.1843
21477W        W24697   7.930   3.590   0.785  0.1096  0.3822 -0.0084
21478W        W24698  16.386  15.363  13.491 -0.0835  0.0799 -0.0234
21479W        W24699   7.377   0.749   4.893  0.2118  0.0094 -0.0272
21480W        W24700  12.548   4.575   7.370 -0.1969 -0.1858 -0.0751
21481W        W24701   4.019  17.316  10.093  0.1166  0.1341 -0.1295
21482W        W24702   1.817   6.218   2.674 -0.2597 -0.0637 -0.1645
21483W        W24703   9.889  17.839   0.577 -0.0597  0.1827 -0.1107
21484W        W24704   4.509   3.648  16.031  0.1444  0.1440 -0.3001
21485W        W24705   7.792   5.160  14.002 -0.2160 -0.1104 -0.2249
21486W        W24706   9.176   5.182   5.147  0.1122 -0.0267 -0.0973
21487W        W24707   5.503   6.840  17.376 -0.1607 -0.0228  0.0626
21488W        W24708   7.151   3.960  15.966 -0.0071 -0.0356 -0.3465
21489W        W24709  11.113   3.891   7.792 -0.0523  0.2649  0.1203
21490W        W24710  16.646   0.385  15.245 -0.2176 -0.0563  0.5831
21491W        W24711   4.185  16.516   1.737 -0.0507  0.1563 -0.0313
21492W        W24712   0.782   1.803  17.873 -0.1407  0.1311 -0.2376
21493W        W24713   4.926  15.270  13.892 -0.2666 -0.0106  0.1221
21494W        W24714  15.298   4.902   3.372 -0.3216  0.2496  0.1249
21495W        W24715  10.892  16.822  15.018  0.0530  0.0648  0.1412
21496W        W24716  13.178  14.197  12.383  0.2962  0.1959  0.0492
21497W        W24717   7.711   4.062  11.945 -0.1899  0.0295  0.2716
21498W        W24718   8.323   0.933   5.798  0.0519  0.1848 -0.2890
21499W        W24719   7.075  16.951  14.047  0.2983 -0.1592 -0.1104
21500W        W24720   7.605   2.550  13.704  0.2866  0.0870  0.2092
21501W        W24721   3.435   5.861   1.970 -0.0677 -0.1210  0.0151
21502W        W24722  11.206   2.538  16.556 -0.1969 -0.1587  0.4343
21503W        W24723   2.888   9.707   0.608 -0.0245  0.4460  0.2772
21504W        W24724   9.787   5.060  16.763 -0.1990  0.0559  0.0046
21505W        W24725  10.024   0.564   0.670 -0.1540  0.1234 -0.0614
21506W        W24726   5.906   9.271  14.252 -0.2558  0.1153 -0.1412
21507W        W24727   7.881  14.260  13.796  0.2075 -0.2000  0.1759
21508W        W24728   8.523   2.813  15.891  0.1245 -0.0620  0.0877
21509W        W24729   8.741   5.649  15.551 -0.2186 -0.3110 -0.1644
21510W        W24730  10.280   0.618   7.498 -0.0078 -0.2019  0.0395
21511W        W24731  13.499   7.486  17.002  0.1258 -0.0550  0.3221
21512W        W24732   9.526   1.708   5.120  0.2736 -0.0453  0.0590
21513W        W24733  11.033   2.785   9.229  0.2005 -0.0499 -0.1916
21514W        W24734  11.378   3.558  16.507  0.0049 -0.2690  0.1304
21515W        W24735  10.633  15.570  14.967  0.1141 -0.0714 -0.1166
21516W        W24736  12.552   9.718   3.732  0.2244  0.1715  0.0493
21517W        W24737   5.521   4.127  13.920 -0.0553  0.0878  0.0961
21518W        W24738  14.161   5.094  13.090  0.0808  0.1302  0.1483
21519W        W24739   7.038   0.746   1.345 -0.0378  0.0376 -0.1102
21520W        W24740   7.314  14.276  15.785  0.0593 -0.0375 -0.0150
21521W        W24741  16.661   7.818   9.457  0.2299  0.1504 -0.2413
21522W        W24742   4.604   3.183  14.088 -0.3136 -0.1347 -0.0078
21523W        W24743  10.046  10.686  17.489 -0.1720  0.1275 -0.2531
21524W        W24744   8.159   2.845   3.510 -0.0013 -0.0198 -0.6565
21525W        W24745   2.593   5.814   4.305  0.0156 -0.1584  0.1046
21526W        W24746   6.138  17.596  12.395  0.0212 -0.0385 -0.0138
21527W        W24747   9.464  15.538  11.954 -0.2249  0.1916  0.0099
21528W        W24748   8.125   4.345  14.368  0.0612  0.3432  0.0438
21529W        W24749   5.558   4.483  16.890 -0.3803 -0.0320  0.1643
21530W        W24750  10.552   3.701   0.348 -0.1317  0.3250 -0.0743
21531W        W24751   5.190  17.229  16.277  0.0920 -0.1135  0.0551
21532W        W24752  12.848   0.815   2.606 -0.3047  0.0707  0.2043
21533W        W24753   6.415   2.171   3.990 -0.1691  0.0727 -0.1840
21534W        W24754   8.941  17.447  11.766  0.1011 -0.0661  0.0595
21535W        W24755   6.743  17.289  14.718  0.3128  0.0998  0.0783
21536W        W24756  18.250   6.469   0.583  0.0811 -0.2861  0.0440
21537W        W24757   2.157  11.066  14.199  0.1199  0.1075 -0.0479
21538W        W24758   5.115   5.680  14.139 -0.0114  0.2826 -0.1876
21539W        W24759   5.794   1.979  17.406  0.0022 -0.0842  0.0993
21540W        W24760   3.434  18.023   6.085  0.2440 -0.0212  0.1707
21541W        W24761  10.374   3.174  11.621 -0.0414  0.2776  0.1895
21542W        W24762   5.776   0.564  17.353  0.2657 -0.1518  0.2182
21543W        W24763  15.022   4.674   1.828  0.2904 -0.0122 -0.0112
21544W        W24764   7.062  17.226  13.184  0.1029 -0.0260  0.2606
21545W        W24765   5.183   8.239  15.795 -0.3210  0.0272  0.0030
21546W        W24766  11.671   0.766   0.931 -0.4133 -0.2075  0.0570
21547W        W24767   9.146   3.772   4.186  0.0542 -0.0763  0.4659
21548W        W24768  11.462   6.198  15.424 -0.2078 -0.2594 -0.1362
21549W        W24769   3.044   6.533  11.692  0.0317 -0.3780 -0.1012
21550W        W24770  17.190  13.978  16.164  0.0378  0.0119 -0.0536
21551W        W24771   6.228   3.198  15.542  0.0288 -0.0343  0.1577
21552W        W24772  16.022   4.981   0.320 -0.2035  0.1368 -0.2133
21553W        W24773   9.587   9.178  12.490 -0.0250  0.3046  0.3911
21554W        W24774   8.220   3.272   2.446 -0.1795 -0.2169  0.0628
21555W        W24775   4.214   2.724  15.056  0.1151  0.1437  0.0013
21556W        W24776   5.896   7.899  16.844 -0.2891 -0.1633  0.0035
21557W        W24777  10.472   2.346  16.436 -0.1062 -0.1032 -0.0197
21558W        W24778   7.394   4.556   6.122 -0.3822 -0.1060 -0.0219
21559W        W24779   8.945  12.569  13.420  0.2774  0.1185 -0.1333
21560W        W24780  10.345  16.807   8.882  0.1006  0.1131  0.3027
21561W        W24781  17.993  13.383   3.102 -0.1782  0.1708  0.0658
21562W        W24782   8.799   0.081  12.282  0.0638  0.2960 -0.2207
21563W        W24783  11.040   0.978  12.902 -0.2246 -0.2611 -0.2173
21564W        W24784  12.201   7.946  16.694 -0.0692 -0.5715  0.0781
21565W        W24785   3.205   2.971   0.904 -0.0734 -0.3649  0.0442
21566W        W24786   9.595   1.537  14.665 -0.1135 -0.2895 -0.1644
21567W        W24787   5.164  17.103  13.866  0.0697 -0.3561  0.0677
21568W        W24788  15.722   0.440  17.083  0.0210  0.0880  0.2306
21569W        W24789   4.508  15.891   4.127 -0.2179 -0.2210  0.0836
21570W        W24790   6.466  11.660  12.823  0.0250  0.1560  0.0588
21571W        W24791  12.971  17.727  10.736  0.0798  0.1012 -0.1536
21572W        W24792   1.268   7.622  16.086 -0.1787  0.3872  0.1913
21573W        W24793   7.867   4.554  12.005 -0.0201 -0.0653  0.0257
21574W        W24794  12.831   3.454   1.087 -0.0807  0.0218 -0.0333
21575W        W24795   5.906   0.106  17.519  0.3229  0.1415  0.4165
21576W        W24796  16.733   1.338  16.974 -0.2301 -0.2377  0.1856
21577W        W24797  12.467  17.566   0.995  0.0372 -0.1500  0.0897
21578W        W24798   6.868   3.004  13.294  0.0779 -0.1986  0.2769
21579W        W24799  10.751  18.267  13.509 -0.1174 -0.1434 -0.0142
21580W        W24800   1.284   3.704   2.271 -0.0809  0.0161 -0.1649
21581W        W24801   4.207   9.282  12.989  0.1905  0.2191 -0.0160
21582W        W24802   6.121   5.626  16.910  0.3836 -0.0034 -0.0969
21583W        W24803   6.545   7.854  16.056  0.2275 -0.3193 -0.0328
21584W        W24804   7.396   7.329  17.143  0.0273  0.0115  0.0243
21585W        W24805  10.953   0.420  15.124  0.2479  0.2284 -0.0527
21586W        W24806  12.094   1.947  15.532  0.0639 -0.1074  0.1853
21587W        W24807   3.342   3.587   0.508 -0.0566  0.0277 -0.0945
21588W        W24808  13.870   5.318   3.943  0.1584 -0.0012 -0.1277
21589W        W24809   6.673   3.511  15.421 -0.1227  0.0873 -0.0224
21590W        W24810   6.887  14.386  11.869  0.3338 -0.1696 -0.0678
21591W        W24811  13.916   3.081   5.416 -0.2479 -0.1476  0.0867
21592W        W24812   1.899   6.217   4.655 -0.0947 -0.0632  0.3990
21593W        W24813  12.380  18.239   2.584  0.1504 -0.1992  0.1620
21594W        W24814   6.933  10.842  13.795  0.1193  0.0585  0.3204
21595W        W24815   6.705   3.561   3.782  0.4675  0.2915  0.2025
21596W        W24816  12.135   1.388  16.249  0.0250  0.2241 -0.0802
21597W        W24817   8.388   0.849  13.564 -0.1713 -0.1133 -0.1675
21598W        W24818   9.222   2.814   7.123 -0.2610 -0.0596 -0.1301
21599W        W24819   9.975   1.880   4.823 -0.0879  0.4519  0.0025
21600W        W24820  15.150  16.907  11.253 -0.0007 -0.0113  0.0053
21601W        W24821   9.874   4.128  15.242 -0.0151  0.1500 -0.1646
21602W        W24822  12.096   1.520  15.771  0.1260  0.0766 -0.1375
21603W        W24823  13.258   7.984  17.033 -0.0733 -0.1454  0.1300
21604W        W24824  13.941   1.883  16.400  0.3019  0.0161  0.1096
21605W        W24825   6.379  17.409  16.032  0.1490  0.1384 -0.1349
21606W        W24826  10.492   9.839  13.513 -0.0403 -0.0572  0.1821
21607W        W24827   5.964  13.928  12.039 -0.1427  0.0279  0.0911
21608W        W24828  14.040  10.238  16.857  0.0536 -0.1613  0.1520
21609W        W24829  10.301   6.287   3.752 -0.1065  0.3026 -0.0635
21610W        W24830   4.450   1.115  18.187  0.2767 -0.1212 -0.0366
21611W        W24831  14.089   1.383  14.581 -0.1796  0.2867 -0.0872
21612W        W24832   4.326   3.108   3.353  0.0566  0.1290  0.1482
21613W        W24833  10.457   7.073   1.522  0.0552  0.0642 -0.2618
21614W        W24834   6.793   5.113  12.294  0.1511  0.0265 -0.0966
21615W        W24835  11.856   6.930  17.110 -0.2964  0.5578 -0.0686
21616W        W24836   2.394  13.227   4.275 -0.2012 -0.1442 -0.0434
21617W        W24837  10.720   1.021  14.941  0.0082  0.0345  0.1447
21618W        W24838   6.284  16.354   3.349  0.0658  0.0158 -0.0058
21619W        W24839  15.149   8.335  17.970  0.4909  0.2716  0.2223
21620W        W24840   5.155  14.245   9.556 -0.1552  0.0279 -0.2427
21621W        W24841  13.256  12.424  11.642 -0.0330  0.2741  0.0800
21622W        W24842   6.169   4.553  15.460  0.1824  0.1765 -0.0009
21623W        W24843  11.899   5.007  14.798  0.1138  0.0755 -0.0219
21624W        W24844   8.626   4.200   1.542  0.1430 -0.2072  0.1355
21625W        W24845   1.277   6.448   3.578  0.0233  0.3007  0.4496
21626W        W24846   3.189   0.537   2.152 -0.0080  0.1484 -0.1088
21627W        W24847  14.279   1.826  13.139 -0.0797 -0.0982  0.0754
21628W        W24848   7.254  16.391  14.563 -0.0097  0.0946  0.2318
21629W        W24849   6.675  15.637  10.890 -0.0214 -0.0067 -0.0966
21630W        W24850  12.305   5.454  16.160  0.0765 -0.1622 -0.0512
21631W        W24851  12.972  14.859  13.644 -0.1044  0.0646 -0.1146
21632W        W24852  17.001  13.879   2.962  0.1259  0.0830 -0.4016
21633W        W24853   2.914   8.773   1.178  0.0836  0.2885 -0.0163
21634W        W24854   9.845   4.688  17.059 -0.0634 -0.0228 -0.1189
21635W        W24855  12.257  16.834   1.568  0.3153  0.2450  0.0087
21636W        W24856   4.387   8.439   4.937 -0.0462  0.1857 -0.2634
21637W        W24857   5.173   1.223   0.316 -0.0067  0.1429 -0.1228
21638W        W24858   0.038  10.496   0.717 -0.0185  0.0825  0.0264
21639W        W24859   9.556   0.146  15.228 -0.1856  0.3627 -0.0470
21640W        W24860  11.441   1.696  14.922  0.0192  0.1783 -0.2781
21641W        W24861   3.488   0.168   6.819  0.0715 -0.1243 -0.2055
21642W        W24862  17.223   6.493   0.942 -0.1000 -0.1436 -0.2007
21643W        W24863   7.486   2.675   5.939 -0.3182 -0.0914 -0.0996
21644W        W24864  12.219   8.860   2.572  0.2794 -0.1496 -0.2560
21645W        W24865   5.854  14.949  12.278  0.1480  0.1305  0.2479
21646W        W24866   4.521   1.841   5.981  0.1360  0.1442 -0.2571
21647W        W24867  11.194  15.110   3.101  0.0402  0.0680  0.3533
21648W        W24868  11.555  15.116   0.110  0.3016  0.0609  0.2490
21649W        W24869   5.285   3.517   7.876  0.2243 -0.0335 -0.2068
21650W        W24870   7.698   3.034  10.031  0.0045 -0.2890  0.1740
21651W        W24871  13.771   0.463   3.964 -0.3192 -0.3222  0.2732
21652W        W24872  15.591   1.811   2.292 -0.0086 -0.0902 -0.0595
21653W        W24873   8.454  15.575  14.369  0.0363  0.2512 -0.0424
21654W        W24874  11.369   5.485  16.312 -0.0132  0.0443 -0.0324
21655W        W24875   9.133   6.291  17.762  0.2441  0.2465  0.0309
21656W        W24876   4.710   8.448  15.574  0.5259 -0.0504 -0.1069
21657W        W24877  15.891   2.909   0.100 -0.3890  0.4173  0.2014
21658W        W24878   6.025  14.558  17.142  0.3245 -0.2320 -0.0825
21659W        W24879   8.561  15.570  16.561  0.1671 -0.1674 -0.1031
21660W        W24880  15.175   1.623   0.170  0.0807 -0.1033 -0.0566
21661W        W24881   6.726   3.876   3.378  0.2623  0.0648  0.1666
21662W        W24882  10.214   6.730  15.648  0.0461  0.0409 -0.2453
21663W        W24883   9.827   3.408  16.985  0.2041 -0.1321 -0.0500
21664W        W24884   5.166  17.958  13.273 -0.0862  0.1227  0.0452
21665W        W24885   5.035   3.895   1.227 -0.1046 -0.0826 -0.0832
21666W        W24886  11.145   2.689  12.922  0.1765 -0.2146  0.0159
21667W        W24887   8.085   4.649   0.575 -0.2857 -0.0035 -0.0673
21668W        W24888   9.963   6.726   4.702  0.2613  0.0932 -0.0270
21669W        W24889   0.580   2.344   3.156 -0.2265  0.2031  0.1039
21670W        W24890   8.640   0.720   4.021 -0.1092 -0.4466  0.0389
21671W        W24891   6.121   2.496  17.599  0.3020  0.1755  0.2212
21672W        W24892   7.332  14.205  14.028  0.0555  0.0572 -0.3005
21673W        W24893  12.047   1.198   2.581  0.0313  0.1241  0.1773
21674W        W24894  10.439   3.753  16.365 -0.0322 -0.3558 -0.1241
21675W        W24895  14.800   6.678   4.044 -0.1222 -0.1928 -0.2293
21676W        W24896   4.166  15.822  14.672  0.0415 -0.0990  0.1430
21677W        W24897   5.314  18.031   1.383  0.0478 -0.2597  0.1248
21678W        W24898   7.133   3.849  16.451  0.3934 -0.3758 -0.0945
21679W        W24899   9.822   2.179  13.029 -0.0659 -0.4558  0.0488
21680W        W24900  12.600   6.512  14.539  0.0829  0.1601  0.0390
21681W        W24901   9.981   2.374   0.781  0.0923  0.0822  0.1131
21682W        W24902  17.893   0.155   0.363 -0.0882 -0.0335 -0.1621
21683W        W24903  10.914   0.307   6.882 -0.2844  0.0712 -0.3179
21684W        W24904   4.451   1.893   0.658  0.0094 -0.2188 -0.1197
21685W        W24905   6.037   0.731  17.774 -0.2355 -0.2343  0.0541
21686W        W24906  10.611   1.321   1.374 -0.0535  0.2854  0.1103
21687W        W24907   6.001   2.826   9.885  0.0706 -0.1921  0.0398
21688W        W24908   6.067   2.954   1.506 -0.0356 -0.0757 -0.3622
21689W        W24909   6.171   0.547   1.155 -0.1459 -0.1836  0.2332
21690W        W24910  11.485   4.007   7.434  0.0593 -0.0892  0.3214
21691W        W24911   6.900  15.658   1.008  0.0341  0.4023 -0.0499
21692W        W24912   7.369   6.933  15.723 -0.0633 -0.0151 -0.1347
21693W        W24913  10.536  10.435   3.102  0.1744  0.3364  0.1112
21694W        W24914   8.085   2.180   0.777 -0.1097  0.2507  0.1577
21695W        W24915   6.475   5.949   3.051 -0.0616 -0.1882 -0.4137
21696W        W24916   5.388  14.868   4.049 -0.2909  0.1228 -0.0868
21697W        W24917   7.012  10.849  12.642 -0.0980 -0.2208  0.1846
21698W        W24918   9.798   3.334   8.570  0.2440  0.4121 -0.3480
21699W        W24919   8.813   2.937   1.286  0.1528 -0.1296 -0.1274
21700W        W24920  14.762  17.476   4.097 -0.0852  0.2204 -0.0956
21701W        W24921  11.087   0.112   2.581  0.0619 -0.2656 -0.2367
21702W        W24922   8.457  11.429   0.628 -0.1204  0.1301 -0.4870
21703W        W24923  14.085   6.514  15.454 -0.2901 -0.0226 -0.2228
21704W        W24924  15.248   4.943   7.800  0.2173  0.0868 -0.0265
21705W        W24925   6.882   1.925   6.939 -0.0048  0.1598 -0.3341
21706W        W24926   8.703   7.124   6.091 -0.3920  0.1543 -0.2981
21707W        W24927   3.560   1.036   6.504 -0.2451  0.1168  0.1411
21708W        W24928   9.814   5.959  10.526  0.0012  0.2686  0.1486
21709W        W24929  12.124  11.329   5.830 -0.1774 -0.0698 -0.1180
21710W        W24930   8.623   5.527   1.619 -0.1373  0.0340 -0.1238
21711W        W24931   7.553   4.370   2.443  0.2269 -0.0727 -0.0794
21712W        W24932  12.308   4.093  11.567 -0.4757  0.0355 -0.1586
21713W        W24933   1.646   8.032   9.099 -0.0613 -0.1051  0.3120
21714W        W24934  12.796   2.881  10.041 -0.4728  0.0085 -0.1015
21715W        W24935  15.154   7.043  11.846 -0.0792  0.1444 -0.1863
21716W        W24936   2.876   1.883   5.001  0.0421 -0.4674  0.0482
21717W        W24937   3.408   7.725  16.176  0.1378  0.0014 -0.0194
21718W        W24938  13.248   5.635   3.947 -0.2741 -0.0638  0.0380
21719W        W24939  11.723   2.506   0.032  0.1771 -0.1992 -0.1422
21720W        W24940  10.550  11.910   3.857  0.0238 -0.0468 -0.1716
21721W        W24941  11.366  12.776   4.135 -0.1939  0.0210 -0.0048
21722W        W24942  10.595   5.934   6.242 -0.2719 -0.3059  0.1171
21723W        W24943   5.843   7.186   6.534  0.1887  0.2257 -0.3058
21724W        W24944  17.651   1.758   6.743 -0.0422 -0.2331 -0.0767
21725W        W24945  14.646   8.060  18.255 -0.2826  0.1304  0.1128
21726W        W24946  11.087   6.015  16.229 -0.1425  0.1966 -0.3691
21727W        W24947   5.061   3.689   3.961  0.0618 -0.1209  0.0490
21728W        W24948  12.783   4.060   1.580  0.2569  0.1453 -0.0133
21729W        W24949  16.768   5.924  17.150  0.0095  0.0824 -0.1721
21730W        W24950  13.965  10.211  13.298  0.0962  0.0336  0.1459
21731W        W24951  12.549   9.952   2.131 -0.0124  0.0574 -0.5090
21732W        W24952   1.704   4.700   2.949  0.2796  0.0013 -0.0914
21733W        W24953   0.645   1.948   7.145 -0.0329  0.0172 -0.1385
21734W        W24954  11.340   5.436   2.943  0.1104  0.1655  0.1670
21735W        W24955  10.262  16.434   5.539 -0.0345  0.2294  0.0739
21736W        W24956  12.505   5.647   6.760  0.2581  0.1967 -0.1185
21737W        W24957   7.925   8.599   4.631  0.2928  0.2539 -0.1429
21738W        W24958  17.573   5.988  17.480  0.4518  0.2120  0.3578
21739W        W24959  12.554   6.541   5.729  0.0247  0.1605 -0.2095
21740W        W24960  13.914   3.229  14.577 -0.0388 -0.2389  0.0130
21741W        W24961  13.327   6.522   4.308  0.2470  0.3453 -0.0090
21742W        W24962  14.741   8.486  12.094  0.1050 -0.0960 -0.2887
21743W        W24963  13.536   6.603   6.569 -0.0340 -0.1319 -0.1336
21744W        W24964   8.803   7.224  12.995  0.3082 -0.3063  0.0029
21745W        W24965   4.999   7.433   3.067  0.1807  0.0586  0.0401
21746W        W24966   6.627   6.707  13.887 -0.0234 -0.1094 -0.0219
21747W        W24967  10.336  14.635   1.402  0.4420  0.1257  0.0222
21748W        W24968   9.754   0.951   4.651 -0.1697  0.0709  0.0884
21749W        W24969   4.773  14.151   2.837  0.0180 -0.2062 -0.0856
21750W        W24970   4.271   9.476  15.388  0.1163 -0.2488 -0.1463
21751W        W24971  16.881   7.133   5.053 -0.1859  0.2351  0.1893
21752W        W24972  10.805  15.760   0.873  0.5116  0.0052  0.0604
21753W        W24973   6.136   9.834   1.999 -0.0438 -0.0061  0.1747
21754W        W24974   5.345   1.634   7.944 -0.0911  0.0460 -0.1211
21755W        W24975   6.467   2.534   3.537  0.1922 -0.1293 -0.1346
21756W        W24976   9.718   5.751   0.599  0.1872  0.0271  0.2428
21757W        W24977  16.331   6.376   6.192  0.2303 -0.2358 -0.3335
21758W        W24978  10.878  11.975   6.898  0.0188  0.1769 -0.0432
21759W        W24979  10.709   4.399   2.289 -0.0568  0.0639 -0.1134
21760W        W24980   9.752   2.050  12.448  0.2293 -0.4216  0.2688
21761W        W24981  10.613   7.560   0.682 -0.2034 -0.4200  0.4029
21762W        W24982  11.785   0.702   2.230  0.0032 -0.1471  0.0658
21763W        W24983   8.221   4.305   0.289 -0.0370  0.1471  0.1001
21764W        W24984  12.618   3.779   2.963  0.0782  0.0491  0.1210
21765W        W24985  17.287   7.963  17.962  0.3325  0.0003  0.2865
21766W        W24986  16.074   6.719  15.262  0.4504  0.2004 -0.0010
21767W        W24987   9.207   5.648  14.213 -0.0472 -0.2172 -0.0189
21768W        W24988   6.519   3.256   5.769  0.0744  0.1873  0.1809
21769W        W24989  12.186   3.983   3.098  0.2323 -0.1240 -0.0154
21770W        W24990   5.858   6.686   4.254 -0.0945 -0.2479  0.2130
21771W        W24991   8.382   0.665   7.428  0.0407  0.2123 -0.1661
21772W        W24992  11.618   7.275  16.432 -0.0584  0.1501 -0.0038
21773W        W24993  11.646   5.809   3.128  0.1787 -0.1487  0.2551
21774W        W24994   4.806  17.264  10.486  0.0767  0.1123  0.0102
21775W        W24995   8.259   2.184   5.005 -0.0360  0.0733  0.0020
21776W        W24996  15.269   0.443   2.559  0.0237 -0.0151 -0.0315
21777W        W24997  13.283   2.592   5.718 -0.1307  0.0864 -0.0241
21778W        W24998   8.752  17.307  17.132  0.1197 -0.0748 -0.3049
21779W        W24999   7.898  17.101   4.738  0.0731 -0.1671  0.1062
21780W        W25000   6.659   8.591   1.915 -0.1938  0.0930  0.1121
21781W        W25001   1.527   5.671  12.600 -0.1554 -0.1089  0.2460
21782W        W25002  10.199  11.724   3.254 -0.1159  0.1604 -0.2356
21783W        W25003  14.676   0.435   2.101 -0.1596 -0.3137  0.1479
21784W        W25004   2.898  13.489  15.708 -0.2299 -0.1470  0.0153
21785W        W25005   6.990  18.206   4.724  0.1269  0.4788 -0.1807
21786W        W25006   8.949   9.275   2.080 -0.2382 -0.1334 -0.0719
21787W        W25007  13.020  13.299   9.784  0.1659  0.0374  0.0878
21788W        W25008   4.926   3.359   8.386  0.3764  0.1384 -0.0161
21789W        W25009  11.681   4.979   0.154 -0.2141  0.1370  0.0543
21790W        W25010   9.616  10.902  17.702 -0.1611  0.0833 -0.0756
21791W        W25011   9.890   2.977   4.487 -0.0116 -0.1513  0.2682
21792W        W25012   7.795   1.909   7.168 -0.3035 -0.1212 -0.1302
21793W        W25013  16.371   8.128   3.299  0.1643 -0.2166 -0.2527
21794W        W25014   4.752  15.326   0.710  0.0231 -0.0480 -0.1945
21795W        W25015  13.761   3.785  10.900  0.2458 -0.3828 -0.0354
21796W        W25016   3.012   8.668   2.826  0.0114 -0.1645 -0.1329
21797W        W25017  11.815   1.619   9.115  0.1811  0.0592  0.0156
21798W        W25018   9.512  10.655   9.896  0.1136 -0.1624  0.0402
21799W        W25019   0.831   7.869  10.061 -0.1774 -0.3435  0.1569
21800W        W25020  15.165   6.583   8.026  0.0817  0.1851  0.0241
21801W        W25021   4.314   5.511   3.294 -0.0360 -0.1236 -0.0713
21802W        W25022   3.616  10.680  10.712 -0.2840  0.2146  0.2366
21803W        W25023  17.992   4.779   2.559 -0.0356 -0.0201 -0.0769
21804W        W25024  11.587   6.657  17.528  0.3120 -0.0126  0.1200
21805W        W25025   7.737   4.350   3.315  0.1473 -0.0455 -0.0339
21806W        W25026  14.281  11.666   4.804  0.2004  0.4364  0.3350
21807W        W25027   8.103   0.942   0.498 -0.3136  0.3860 -0.0148
21808W        W25028  10.273   7.491   1.271 -0.2197 -0.2426 -0.2877
21809W        W25029  12.125   5.164   3.495  0.0140  0.0752 -0.2144
21810W        W25030   5.076   3.285  14.212 -0.1634  0.1476  0.1831
21811W        W25031  11.290   1.882  17.374 -0.1176  0.0040  0.1453
21812W        W25032   8.688   2.385   1.964 -0.1698  0.2953  0.1880
21813W        W25033  17.302   2.167   7.418 -0.3471  0.0405  0.5814
21814W        W25034   7.127   7.015   7.251  0.0994  0.0222 -0.2608
21815W        W25035  11.536   8.633   0.739  0.0190  0.0127 -0.0969
21816W        W25036  16.395   2.313  17.069  0.1502  0.0632 -0.0923
21817W        W25037   4.257   4.383  18.138 -0.1347  0.1080 -0.1032
21818W        W25038  11.435   7.165  11.220  0.1825  0.0844 -0.0151
21819W        W25039  13.294   9.194   3.419 -0.2109  0.0822  0.0344
21820W        W25040  14.652  10.381   5.918  0.3309 -0.1584 -0.1012
21821W        W25041   6.390   4.526   0.783  0.2080 -0.2526  0.5395
21822W        W25042  14.493   2.752   3.848 -0.3189  0.4082 -0.0586
21823W        W25043  13.150   7.706   5.787 -0.0187  0.1225 -0.0811
21824W        W25044  15.396  11.999   2.931  0.2559 -0.3050  0.2465
21825W        W25045   6.497   5.684   1.952  0.1054  0.2276  0.4322
21826W        W25046   6.495   7.176   4.018  0.0821 -0.0001 -0.0134
21827W        W25047   4.248  11.769  11.009  0.0168  0.0207  0.0913
21828W        W25048  13.060   8.847   0.448 -0.2476  0.0734 -0.1957
21829W        W25049   6.299   1.574   1.538 -0.4622  0.1102 -0.0712
21830W        W25050  10.324   5.135  12.222  0.0390 -0.1369  0.0210
21831W        W25051   4.978   4.551  18.193 -0.0870 -0.1474  0.1054
21832W        W25052   4.238   9.898   0.615  0.1752  0.2118 -0.0076
21833W        W25053  13.899   8.375   6.654  0.1788 -0.2558 -0.1858
21834W        W25054   9.007   5.755   5.245  0.0279 -0.0909  0.4305
21835W        W25055  12.399   9.532   1.896  0.1819 -0.0402 -0.0222
21836W        W25056   6.466   2.747   2.552 -0.2422  0.3082 -0.1170
21837W        W25057   8.930   5.661   2.911  0.4497  0.2011  0.0628
21838W        W25058   6.117   7.163  15.814 -0.1861 -0.1920 -0.1054
21839W        W25059   9.955   6.834   4.016  0.0029  0.0813 -0.3020
21840W        W25060  10.364   3.446   7.584  0.0757  0.1312 -0.0499
21841W        W25061   8.896  10.036   2.967 -0.0127 -0.1409 -0.1464
21842W        W25062   7.641   7.817   0.421 -0.6843  0.1466 -0.0308
21843W        W25063   5.497  17.405   2.761 -0.2029  0.3242  0.3055
21844W        W25064   6.789   5.223  11.806  0.0069  0.1151 -0.1799
21845W        W25065  17.273   2.029   8.701  0.1210 -0.1740 -0.1706
21846W        W25066   5.131   8.294   1.977  0.0864  0.1893 -0.1199
21847W        W25067   6.479   0.774  18.177  0.2450  0.1495 -0.0201
21848W        W25068  13.167   7.387  13.409 -0.0842 -0.1053 -0.0683
21849W        W25069  14.045   2.791   9.727  0.1071 -0.0940 -0.1587
21850W        W25070   0.420  14.540   7.387 -0.0382  0.0533  0.0467
21851W        W25071  10.496   6.263   6.689 -0.1112 -0.0281  0.0100
21852W        W25072  12.284   6.476   4.027 -0.0157 -0.0586 -0.0802
21853W        W25073   7.888   6.759   3.972  0.1902 -0.1448  0.1631
21854W        W25074  10.330   8.336   8.999  0.2849 -0.0887 -0.1592
21855W        W25075   6.004   3.336   5.575  0.1957  0.0759  0.1386
21856W        W25076   8.762   4.422   5.097  0.0289 -0.2361  0.0501
21857W        W25077   7.155  12.843  15.273  0.1671 -0.1542 -0.2529
21858W        W25078  13.239   5.367  16.145  0.1922 -0.0935 -0.0924
21859W        W25079   9.005   9.887  16.778 -0.1497  0.0957  0.2124
21860W        W25080   9.793   0.701   6.020  0.0456 -0.1436 -0.1582
21861W        W25081   5.148  11.648   5.374 -0.0932 -0.0549 -0.1573
21862W        W25082   5.114   6.061  11.416 -0.3097  0.0340 -0.2712
21863W        W25083  14.720  16.975   4.109  0.1240  0.0983  0.1437
21864W        W25084  10.720   6.606   1.900  0.2488 -0.0131 -0.0949
21865W        W25085   4.906  12.714  14.641 -0.1254  0.0913 -0.2735
21866W        W25086  15.996   4.505   4.357  0.0049 -0.0940 -0.1043
21867W        W25087  12.521   8.402  18.017  0.1521 -0.0796 -0.1605
21868W        W25088  11.207   3.073   2.937  0.1572  0.0108 -0.0131
21869W        W25089  12.531  15.365  17.452  0.2125 -0.1343 -0.0520
21870W        W25090   9.821   4.378   5.597  0.2256  0.1817  0.0044
21871W        W25091   4.458   5.584   1.205  0.5034  0.0603  0.1607
21872W        W25092   5.866   3.888   0.734  0.0472 -0.0927  0.0222
21873W        W25093   6.281  10.549   6.912 -0.1486 -0.0116  0.0043
21874W        W25094  12.894  10.745  17.385 -0.3380  0.2097 -0.0878
21875W        W25095  13.397  10.409   3.817  0.1744  0.0973 -0.3049
21876W        W25096  11.972   1.584  13.175  0.3830  0.0352  0.1861
21877W        W25097   9.658   4.287  17.267  0.1759  0.0619 -0.0913
21878W        W25098  13.736   7.573   7.838 -0.1941 -0.2563 -0.0529
21879W        W25099   8.559   1.725  13.902  0.1575  0.3820 -0.2581
21880W        W25100  13.240   7.148   2.800  0.3810  0.2476  0.1564
21881W        W25101   6.351  15.936   3.645 -0.0549  0.0895 -0.2174
21882W        W25102   9.045   9.312   2.729 -0.0248 -0.0318  0.2358
21883W        W25103   5.243   7.116  17.082 -0.0517 -0.3773 -0.0709
21884W        W25104   2.646   6.209  17.695  0.1546 -0.1946 -0.1617
21885W        W25105   7.438   0.160   5.806  0.0493 -0.1988 -0.3019
21886W        W25106  17.004   7.348  17.268 -0.0602  0.3470 -0.3508
21887W        W25107   7.669   1.247   4.118 -0.1677 -0.1560  0.0838
21888W        W25108   2.208  17.978   3.925 -0.0515  0.5035  0.0195
21889W        W25109   4.580  11.130   1.740 -0.1722  0.2351  0.3114
21890W        W25110   7.442   6.472  13.344  0.1522 -0.0334  0.1302
21891W        W25111   3.186   2.603   1.468  0.2994  0.0301 -0.0052
21892W        W25112   6.653   0.352   4.327  0.0386 -0.1708 -0.0481
21893W        W25113   7.599   6.315   3.708  0.1355 -0.0803  0.0445
21894W        W25114   8.739  10.507  15.690  0.2169 -0.0839 -0.1693
21895W        W25115  11.122  13.506  13.442  0.1552 -0.1417  0.1338
21896W        W25116  15.796   6.108   3.036  0.0409 -0.0749  0.0589
21897W        W25117   5.561   7.315   3.730 -0.3273  0.1052  0.0663
21898W        W25118   4.565   2.199  17.151 -0.2956 -0.2181 -0.0734
21899W        W25119  12.941   5.300   6.898 -0.3424 -0.3324 -0.1751
21900W        W25120   4.270   1.681  17.513 -0.0801 -0.0791 -0.3179
21901W        W25121  18.067   0.777   8.761  0.1585 -0.1364 -0.1254
21902W        W25122  10.663   7.558   1.563  0.0479  0.0291 -0.1618
21903W        W25123  14.254   5.945   1.056 -0.1805 -0.1077 -0.1524
21904W        W25124   9.940   2.360   8.806 -0.0550  0.0131  0.1017
21905W        W25125   4.716   4.944   9.397  0.1632  0.2538 -0.0088
21906W        W25126   5.450   6.980   1.399 -0.1882  0.1198 -0.0009
21907W        W25127   7.198   5.088   4.408  0.1002  0.1512  0.0113
21908W        W25128   7.277  11.527  15.470  0.1100  0.2895 -0.0800
21909W        W25129  11.381   3.171   4.830 -0.0215  0.2857  0.0246
21910W        W25130  10.142   9.622  12.006  0.3029  0.0338 -0.0536
21911W        W25131   7.378   8.267   1.246 -0.1906  0.1257 -0.2345
21912W        W25132   4.758  18.014   5.079  0.0167 -0.1220  0.0940
21913W        W25133  11.804   1.827   5.576 -0.1944 -0.0178  0.0076
21914W        W25134   3.470   5.759   3.514 -0.0181  0.1130  0.1747
21915W        W25135  12.422   9.037  15.526  0.1397 -0.4128  0.2269
21916W        W25136   9.333   4.786  12.010 -0.0389  0.0021  0.2019
21917W        W25137   5.154  12.675   6.707  0.1791  0.1607 -0.2512
21918W        W25138   8.164   1.628   3.393 -0.0573  0.2235 -0.2517
21919W        W25139   7.696   0.952  11.470  0.1867 -0.0831 -0.1557
21920W        W25140   7.002   7.610   6.479 -0.0719  0.0449 -0.3348
21921W        W25141  11.146   8.505   8.438  0.0404  0.1348  0.0192
21922W        W25142   4.638  11.109   6.299 -0.3379 -0.1067 -0.0541
21923W        W25143   7.728   2.021   3.276  0.1296  0.2016 -0.1625
21924W        W25144   7.497   7.898   7.334 -0.0041  0.0432 -0.1594
21925W        W25145   5.814   8.269   6.463  0.0866  0.0481 -0.2015
21926W        W25146   8.933   5.309   3.412 -0.4177  0.2876 -0.1751
21927W        W25147   8.740   0.236  14.558  0.0234  0.1102  0.2301
21928W        W25148   6.478   6.499   6.337 -0.1776  0.3067 -0.3095
21929W        W25149  10.732   2.217  10.453  0.0138  0.1287  0.2985
21930W        W25150   0.820  15.712  14.203 -0.1726  0.0241  0.1866
21931W        W25151   4.216   2.082   7.841  0.2729 -0.1267  0.0534
21932W        W25152  12.002  16.164  17.144 -0.1304 -0.0659 -0.2638
21933W        W25153   4.358  11.765  14.386 -0.4408 -0.0079 -0.3007
21934W        W25154  10.520  15.877   5.719  0.0409  0.2203  0.1628
21935W        W25155   3.355   5.405   3.046 -0.0124  0.3298 -0.0808
21936W        W25156   8.638   3.355   2.117  0.1725 -0.1692 -0.1924
21937W        W25157  14.038   7.657   8.410  0.1196  0.0818  0.1971
21938W        W25158   8.682   4.622  16.848  0.1743  0.0612  0.5020
21939W        W25159   6.580   1.894   9.914 -0.1204 -0.2250  0.0983
21940W        W25160  10.852  10.614   1.628 -0.0731 -0.3923  0.2038
21941W        W25161   7.060  14.837   6.797  0.2505  0.0196 -0.3013
21942W        W25162   5.869   8.563   4.875 -0.1588 -0.1408 -0.1165
21943W        W25163   6.310   4.639   5.499 -0.3404 -0.0955 -0.3214
21944W        W25164  14.378   0.219   7.766  0.0919  0.0430  0.0035
21945W        W25165  15.709   3.567  18.221 -0.0133 -0.1755  0.0768
21946W        W25166   9.585   5.578   8.020 -0.0661 -0.0734 -0.2974
21947W        W25167   1.552   9.603  16.942 -0.1115  0.1973 -0.1557
21948W        W25168  14.764  12.110   0.674 -0.1802  0.1475  0.3736
21949W        W25169  10.542  16.299  14.814 -0.1167  0.1213  0.1859
21950W        W25170  13.005   2.986  17.951 -0.2033  0.2508 -0.0479
21951W        W25171   9.916   4.885   4.314 -0.0752  0.1763 -0.1627
21952W        W25172  12.416   8.792  16.338 -0.0588 -0.0224  0.1761
21953W        W25173   8.221   4.125  18.099 -0.4078 -0.0995  0.1342
21954W        W25174  14.917   4.770   8.928 -0.2242  0.0107 -0.0451
21955W        W25175  14.727   6.314   0.971  0.1617  0.1881 -0.0086
21956W        W25176  15.832   3.376   3.892  0.0117 -0.2331  0.1770
21957W        W25177  11.388   0.777   8.203  0.0644 -0.1395 -0.0151
21958W        W25178   5.269  10.498   5.374 -0.1936 -0.0544  0.0509
21959W        W25179  13.973   4.848   5.375  0.0908  0.1766 -0.2131
21960W        W25180   7.530   4.201   6.594 -0.3405  0.1029  0.0957
21961W        W25181   8.747   4.573   1.767 -0.0279  0.0493 -0.1508
21962W        W25182   4.892  14.288  13.869  0.0170 -0.0931  0.1272
21963W        W25183   7.930   4.964   1.926 -0.0855 -0.0245  0.2937
21964W        W25184   4.072   9.260  17.248 -0.1896  0.2150  0.0883
21965W        W25185   6.839  16.357   8.683 -0.2232  0.1171  0.2244
21966W        W25186  14.514   0.891   4.960 -0.0379 -0.0294  0.1927
21967W        W25187   8.701   3.441   5.144 -0.1617 -0.0709 -0.2582
21968W        W25188   6.298  16.557   1.683  0.0823  0.0079 -0.3339
21969W        W25189   6.893   3.586   5.369  0.0842  0.2175  0.2068
21970W        W25190   8.128   6.650  16.295  0.0346 -0.0587  0.1867
21971W        W25191   9.440  15.601  16.836 -0.0819  0.1086  0.1907
21972W        W25192  15.362   8.610   0.392  0.0004 -0.3456  0.0309
21973W        W25193   7.349  16.413   8.824  0.0250 -0.0453  0.0945
21974W        W25194   9.166   8.009  17.103 -0.0587 -0.0510  0.1661
21975W        W25195  16.793   3.320   2.560 -0.0864  0.1901 -0.0897
21976W        W25196  14.920   9.049   3.309 -0.2257 -0.0231 -0.2863
21977W        W25197   8.903  10.831   4.346 -0.0268 -0.0981  0.0654
21978W        W25198  11.647   6.458   4.909  0.0346 -0.0302  0.0100
21979W        W25199  12.616  11.475   9.370  0.3748 -0.0289  0.0111
21980W        W25200  10.773   6.415   8.807  0.1636 -0.1356 -0.0992
21981W        W25201  15.067   6.858   8.633  0.3807  0.0461  0.4076
21982W        W25202  12.569   4.548   4.287 -0.2117  0.3091  0.1193
21983W        W25203  13.447   1.591   3.727 -0.2875 -0.1309 -0.3095
21984W        W25204  14.426   9.792   1.129 -0.1950 -0.2141 -0.0313
21985W        W25205  10.776   2.258  18.170  0.0440 -0.1932 -0.1664
21986W        W25206   2.551   2.222   2.789 -0.1796  0.1442 -0.0341
21987W        W25207  15.103   7.838  17.892  0.1360  0.4217  0.0975
21988W        W25208  11.564   4.747   3.531 -0.1150 -0.0612  0.1078
21989W        W25209   9.787   9.073   1.364 -0.2442 -0.2086  0.0715
21990W        W25210   3.571  13.705   5.261 -0.1513  0.2046  0.0807
21991W        W25211  12.647   7.945   3.510 -0.3705  0.3779 -0.0635
21992W        W25212  13.015   0.542   3.555  0.0438  0.2043  0.0688
21993W        W25213  10.057   1.725   3.157 -0.1164 -0.0719 -0.0591
21994W        W25214  15.967  13.096  14.907  0.1635  0.1574 -0.0644
21995W        W25215   8.843   2.436  16.467  0.0412 -0.0027  0.1618
21996W        W25216   2.631  15.976   6.171  0.1673 -0.0410 -0.0079
21997W        W25217   6.417   2.725   9.608  0.0321 -0.0219 -0.1004
21998W        W25218   6.891   4.585  18.146 -0.1016 -0.1791 -0.2319
21999W        W25219  10.193   0.219  11.755 -0.1119  0.3272  0.0813
22000W        W25220  11.038   9.147  16.261 -0.0230 -0.5289 -0.0132
22001W        W25221   2.631  12.113  12.263 -0.0878 -0.3480  0.3059
22002W        W25222  17.504   9.453   3.308  0.0548 -0.0372  0.1503
22003W        W25223   7.937   6.690   1.120 -0.0027  0.0177 -0.0852
22004W        W25224   1.639   5.600   0.553 -0.2023 -0.1145 -0.1188
22005W        W25225   4.466   3.758  12.507  0.0219 -0.1225  0.0696
22006W        W25226   7.314   2.273   2.401  0.0354  0.0915 -0.0422
22007W        W25227  13.988   8.877   1.357  0.0528 -0.2897  0.1183
22008W        W25228  13.806   5.220   0.599  0.1130  0.0567  0.0818
22009W        W25229  11.735  18.169   8.327 -0.0653 -0.2467 -0.1058
22010W        W25230   6.346   5.384   9.677  0.0211  0.0316  0.1912
22011W        W25231   8.011  17.677   5.724  0.1497  0.2084 -0.1704
22012W        W25232   9.300  12.264   0.414  0.1858  0.1396  0.6110
22013W        W25233   9.699   3.825   4.953 -0.1687  0.3292  0.0826
22014W        W25234  14.236   7.575  16.288  0.1632 -0.0190 -0.0058
22015W        W25235  10.734  14.160   6.683  0.1873 -0.3645  0.0749
22016W        W25236  10.903   1.092   3.139 -0.0438  0.0225  0.1757
22017W        W25237   7.409   0.754  17.858  0.1104 -0.1658 -0.3467
22018W        W25238  10.963   2.569   1.798  0.0329  0.3198 -0.0784
22019W        W25239   3.499   8.194  16.590  0.0172  0.1260  0.2565
22020W        W25240   8.327   3.512   1.068  0.3434  0.3618  0.3431
22021W        W25241  10.076  13.697   2.477 -0.2443  0.1378 -0.1316
22022W        W25242  11.887   4.410   3.253  0.2244  0.1321  0.3211
22023W        W25243  15.953  13.600  16.020 -0.0794  0.0778 -0.0592
22024W        W25244   5.431   7.307  12.217 -0.1229 -0.2701  0.1903
22025W        W25245   2.988   1.524   1.233  0.0273  0.4773  0.4451
22026W        W25246   5.593  16.729  11.672  0.1258  0.0716  0.1237
22027W        W25247   9.687  16.208  13.057 -0.3098  0.0664  0.1388
22028W        W25248  12.953   7.273  16.683 -0.2820 -0.3012 -0.1131
22029W        W25249  14.448   8.012   1.976  0.0848 -0.5735  0.0068
22030W        W25250  13.940   6.089   7.435 -0.1637  0.1125 -0.0782
22031W        W25251   4.620   4.318   3.724 -0.1458  0.0329  0.3572
22032W        W25252   8.248   0.822   6.577  0.0900  0.5176 -0.0370
22033W        W25253   1.929   9.234   2.883 -0.0597 -0.3699  0.1269
22034W        W25254   8.808   3.958   4.929 -0.1300 -0.1607 -0.3219
22035W        W25255   5.850   4.398   1.500  0.1003 -0.3981  0.0674
22036W        W25256  14.775  12.774  16.402 -0.0058 -0.0637 -0.1041
22037W        W25257  11.530  11.069   1.865  0.2520 -0.0460  0.2059
22038W        W25258   1.484  16.807   9.654 -0.0588 -0.0427  0.3197
22039W        W25259  12.753  10.137   0.076  0.0032 -0.1306 -0.0720
22040W        W25260  13.546  11.200  15.942  0.0316  0.3048  0.1523
22041W        W25261   5.587   6.346   6.294 -0.0894  0.2284  0.0570
22042W        W25262  13.895   8.635   7.252  0.2293  0.1898 -0.3748
22043W        W25263   4.826  12.479   1.942 -0.0449  0.3353 -0.1817
22044W        W25264   7.656  17.924   4.027 -0.3244  0.4593 -0.2028
22045W        W25265  17.827   3.432   5.560  0.4444  0.2211  0.0075
22046W        W25266  10.106  15.320  12.643 -0.1493 -0.0586 -0.0904
22047W        W25267  14.598   3.013  17.955 -0.0590 -0.6621 -0.1398
22048W        W25268   9.587   5.607  15.932 -0.0028  0.0195  0.0960
22049W        W25269  16.117   5.589  11.010 -0.0003 -0.1744  0.1151
22050W        W25270  10.687   0.346   2.127 -0.2091  0.1653  0.2033
22051W        W25271   5.746   2.915   3.001 -0.0693 -0.0462 -0.0026
22052W        W25272   9.594   4.991  18.118  0.3465 -0.1248 -0.0014
22053W        W25273   9.425   8.494   2.622 -0.3917 -0.0656  0.0653
22054W        W25274  11.498   1.663   3.002 -0.1321 -0.1048  0.2250
22055W        W25275  10.643   6.890   8.956  0.0283  0.0515  0.0596
22056W        W25276   7.104  18.139  17.599  0.0836 -0.5389 -0.0555
22057W        W25277   9.429   1.474   3.016  0.0431 -0.0320 -0.1036
22058W        W25278  11.644   8.502   8.210  0.0231 -0.2320 -0.3301
22059W        W25279  13.261  17.354   7.284 -0.1390  0.0520  0.1568
22060W        W25280   6.320  11.232   4.806 -0.3503  0.2501  0.1727
22061W        W25281   7.735   1.478   2.034  0.1719 -0.0644 -0.0615
22062W        W25282  11.945   0.160   7.907  0.2203  0.5002  0.0091
22063W        W25283   8.468   8.515  17.498  0.1905 -0.0633 -0.0936
22064W        W25284   8.834   6.807  15.268 -0.2144 -0.1882 -0.1481
22065W        W25285   8.869  10.682  17.241 -0.3832  0.2129  0.2201
22066W        W25286   7.612  15.135   8.457 -0.0000  0.0287  0.0834
22067W        W25287  13.320   6.472  17.828 -0.1759 -0.1339 -0.3071
22068W        W25288   7.088   8.414   0.113 -0.2130  0.0126 -0.3697
22069W        W25289  11.372   2.977   8.232  0.0917  0.0560 -0.1843
22070W        W25290  12.637   7.850   5.571 -0.0107 -0.1489 -0.1857
22071W        W25291  11.082   2.752   6.606  0.1979 -0.0577  0.2492
22072W        W25292   9.343   5.974   2.033 -0.0094  0.0293  0.1719
22073W        W25293   3.331   4.594  17.998 -0.0006 -0.0035 -0.3878
22074W        W25294  10.560   7.036   0.674  0.2403  0.1512 -0.4109
22075W        W25295  11.310   6.857  12.393  0.1872  0.0129  0.1397
22076W        W25296  11.543   0.237  11.336  0.0827  0.2490 -0.2042
22077W        W25297   8.557   9.810   4.811 -0.0023 -0.3752 -0.0247
22078W        W25298  12.410   8.349   5.582 -0.2618 -0.0792 -0.0366
22079W        W25299   4.651   1.775   7.813 -0.0247  0.1595 -0.0062
22080W        W25300   2.159   2.882   8.380  0.2350 -0.1008  0.0314
22081W        W25301  13.871   6.773   2.101 -0.0361 -0.0404  0.4595
22082W        W25302  12.191   1.484   0.762  0.2431  0.1774  0.1249
22083W        W25303  14.545   7.090   8.758 -0.1112  0.0902  0.0373
22084W        W25304  11.321   6.143  17.265  0.0206  0.0049 -0.4692
22085W        W25305   9.779  10.410   9.113  0.4672  0.2842 -0.2592
22086W        W25306  14.583   6.185   6.722  0.1430 -0.2741 -0.1033
22087W        W25307  10.794  13.937   5.856 -0.1996 -0.1201  0.0001
22088W        W25308   8.821   1.057  14.618  0.2204  0.1017 -0.1499
22089W        W25309   7.773   2.902   3.092 -0.0630  0.2087 -0.1639
22090W        W25310   8.959   1.661   3.068 -0.1436 -0.0212 -0.1551
22091W        W25311   6.323   6.942   6.100 -0.3048 -0.2700 -0.0830
22092W        W25312   7.008   5.172   5.907 -0.2299  0.1136 -0.2195
22093W        W25313   5.540   4.453   5.983  0.1698 -0.1794 -0.1052
22094W        W25314  10.150   0.674   8.002 -0.0216  0.1720 -0.1266
22095W        W25315  11.220  10.759   2.914  0.2675 -0.1130 -0.0385
22096W        W25316   6.386   9.504   4.292  0.0113  0.2958  0.1119
22097W        W25317   3.188   4.622   5.700  0.1238 -0.3000 -0.0571
22098W        W25318   5.039   4.287   5.744  0.0995  0.1852 -0.0410
22099W        W25319   4.611   8.731  14.710 -0.3335 -0.0781 -0.0990
22100W        W25320   8.026   1.775   0.485  0.0440 -0.1240 -0.0218
22101W        W25321  14.316   7.730  10.025 -0.2280  0.1274  0.0614
22102W        W25322  15.958  10.727   5.872 -0.1116  0.1610  0.1403
22103W        W25323  11.001  10.753  11.183  0.0295 -0.0143 -0.0552
22104W        W25324   8.025   1.415   9.635  0.2605 -0.0079 -0.0856
22105W        W25325  11.488  14.314   3.839  0.1788 -0.0236  0.1742
22106W        W25326  14.688   4.058  10.290  0.3438 -0.2186  0.3460
22107W        W25327  11.090   1.957   7.976  0.3202 -0.0320  0.0267
22108W        W25328   8.061   5.146  15.111  0.1849  0.0617 -0.3323
22109W        W25329   8.093  13.208   6.325  0.0754  0.0990  0.3446
22110W        W25330  15.150  10.076   8.588 -0.1314 -0.1211  0.0297
22111W        W25331   6.326   0.510   8.250 -0.0232 -0.1537  0.1939
22112W        W25332  11.599   9.021   2.877  0.0565  0.1628  0.0216
22113W        W25333  14.488   4.427   8.812  0.4873  0.0989 -0.3900
22114W        W25334   8.189   5.694   7.500  0.0625  0.3184 -0.3780
22115W        W25335   5.922   4.390   1.027  0.0629 -0.0231 -0.0537
22116W        W25336  10.566   8.590   6.775  0.0141  0.1089 -0.0340
22117W        W25337   3.781   2.396   5.536 -0.1066 -0.3531  0.1559
22118W        W25338   9.052   9.565   8.263 -0.0180  0.2370 -0.1901
22119W        W25339   4.776  10.908   4.593  0.1335 -0.0636  0.0444
22120W        W25340   8.085   6.455  10.048  0.1081 -0.2434  0.3895
22121W        W25341   7.821   8.267   4.205 -0.1300  0.2250 -0.2876
22122W        W25342   6.150   2.887   0.997 -0.1524 -0.2192 -0.1011
22123W        W25343  17.048  11.517  16.700  0.0228  0.1831 -0.2489
22124W        W25344   5.504   3.708   4.962  0.3009 -0.1727  0.1782
22125W        W25345   0.369   5.970   1.812  0.3987  0.1704  0.4063
22126W        W25346   9.931   1.147   7.063  0.0546  0.0175 -0.1656
22127W        W25347  12.965   7.608   3.692 -0.1201 -0.1774 -0.0477
22128W        W25348  13.134  10.003   2.385 -0.0007 -0.2356 -0.4177
22129W        W25349   5.838   2.498   2.230 -0.0831 -0.1286  0.1617
22130W        W25350   3.965   5.281  17.088  0.1174 -0.0436 -0.1957
22131W        W25351  10.976   2.781  14.667 -0.0015 -0.0408  0.1006
22132W        W25352   8.758  10.825   9.259  0.0037 -0.0155  0.0241
22133W        W25353   8.493  14.407   3.177  0.2586  0.1942  0.3750
22134W        W25354  15.492   3.348   4.431  0.0215  0.2038  0.3034
22135W        W25355   1.430   2.465   3.392  0.3294 -0.0598  0.1137
22136W        W25356   7.270   8.479   5.988  0.0975  0.2755  0.6935
22137W        W25357   6.981  10.642   5.619 -0.1306  0.0538 -0.0014
22138W        W25358   0.568   8.131   2.509  0.0633 -0.0204  0.4078
22139W        W25359   8.465   5.911  12.029  0.0057  0.0888  0.0531
22140W        W25360  12.383   6.560   2.710 -0.0499 -0.1518 -0.0051
22141W        W25361  10.808   5.320   7.432 -0.0864  0.1593  0.1649
22142W        W25362   6.743   3.081  16.235 -0.1142  0.1685  0.3399
22143W        W25363   9.613   3.106   7.275  0.2208 -0.0628  0.1015
22144W        W25364   5.517  12.304   7.165 -0.1789  0.4358 -0.4306
22145W        W25365  12.100   2.804  10.798 -0.0000  0.1400  0.0276
22146W        W25366  13.465   5.012   6.415  0.0517 -0.3064  0.1414
22147W        W25367   8.427  13.929   2.881 -0.0730 -0.1754  0.0954
22148W        W25368  11.763   7.579  12.835 -0.0288 -0.0475 -0.2212
22149W        W25369  14.584  11.304   9.771 -0.0084  0.3491 -0.1162
22150W        W25370   4.366  12.546   5.531  0.2822  0.0224  0.0051
22151W        W25371   3.169   0.838   3.982 -0.3004  0.2701 -0.1420
22152W        W25372  14.875   7.956   6.455  0.3667  0.0043 -0.1941
22153W        W25373  12.257   7.010   2.437 -0.1475 -0.1403 -0.1640
22154W        W25374  14.395   8.479   5.446  0.0656  0.2185  0.0249
22155W        W25375   7.636   6.067   5.276  0.2905  0.2300 -0.2402
22156W        W25376  16.470   5.795  12.833 -0.0491  0.3920 -0.1826
22157W        W25377  10.304   5.951   4.486  0.0163  0.1707  0.2839
22158W        W25378   9.598   3.441   9.037 -0.2864  0.0401  0.1244
22159W        W25379  12.725   9.597  16.261  0.1019  0.2334 -0.0549
22160W        W25380  11.948   1.943   5.071  0.2319  0.0005  0.2175
22161W        W25381  16.574   4.896   0.384  0.0152 -0.1770 -0.2696
22162W        W25382   8.497  17.558   5.671  0.2348 -0.0975 -0.2219
22163W        W25383   0.883   1.541   3.765  0.0047  0.2234 -0.0633
22164W        W25384  15.563   0.130   1.923  0.3671 -0.1762 -0.3494
22165W        W25385   6.845   3.527   1.584  0.1459 -0.1815 -0.0753
22166W        W25386  13.843   3.257   9.776  0.0375  0.1077  0.0197
22167W        W25387   3.867   3.515   8.424 -0.2010  0.1800 -0.2537
22168W        W25388  12.413   9.002   6.957  0.0763  0.1182  0.2453
22169W        W25389   5.736   2.030   9.378 -0.1419 -0.1236  0.1310
22170W        W25390  11.909   6.232   8.040 -0.0288  0.1675  0.1699
22171W        W25391   9.022  10.436   5.687  0.2228 -0.0152 -0.1027
22172W        W25392   4.881   5.743  13.075  0.0432 -0.2641 -0.0467
22173W        W25393   8.372   5.630  10.816 -0.2437 -0.0904 -0.2118
22174W        W25394   8.381   0.968   4.792  0.4021  0.2703 -0.0549
22175W        W25395  14.621   0.004   4.537 -0.1060  0.1284 -0.1300
22176W        W25396   9.226   7.923  11.759 -0.1229 -0.1200 -0.1435
22177W        W25397  12.193   8.258   5.138  0.0189  0.0068  0.2372
22178W        W25398   8.756  17.200   1.783  0.2206  0.0635  0.1152
22179W        W25399  15.151   4.178   7.028  0.3378 -0.1228 -0.3185
22180W        W25400  13.735   9.230  15.430  0.2104 -0.1912 -0.0881
22181W        W25401   2.589   3.221   3.920 -0.0346  0.0389  0.1698
22182W        W25402  14.416   9.768   2.732  0.0324 -0.2030  0.4440
22183W        W25403  12.949   4.009  10.690  0.2043 -0.0641  0.2581
22184W        W25404  12.517   3.666   1.426  0.1731 -0.1504  0.2056
22185W        W25405  12.780   5.053  11.852 -0.1873 -0.1718  0.0265
22186W        W25406   0.301   5.882   6.129 -0.0394  0.2425 -0.0604
22187W        W25407  17.138  13.548   3.794  0.1423  0.0440  0.2126
22188W        W25408  16.650  10.401   8.378 -0.4750 -0.0616  0.1666
22189W        W25409  13.858   8.320   4.151  0.1906  0.0819  0.2873
22190W        W25410   8.312   9.582   3.246  0.2472  0.0541  0.2679
22191W        W25411  16.005   4.445   8.050 -0.1641  0.1419 -0.2045
22192W        W25412  15.022   2.092   4.299 -0.0133 -0.0671 -0.0951
22193W        W25413  11.392   1.538   0.159  0.1953  0.1048 -0.0688
22194W        W25414   8.811   6.589  16.491  0.2266 -0.1895 -0.1431
22195W        W25415   5.950   0.175  16.932  0.0806 -0.2117 -0.2385
22196W        W25416  11.995   3.429   8.103 -0.1555 -0.1029 -0.0226
22197W        W25417   5.735  12.212   5.848  0.0939  0.4383 -0.1940
22198W        W25418  14.654   6.025   3.916 -0.0014  0.1319  0.2652
22199W        W25419  12.736   4.278   7.850 -0.0573  0.1317 -0.1175
22200W        W25420  10.758   2.402  16.060 -0.1554  0.1207 -0.0631
22201W        W25421  14.935   3.709   5.188  0.0095 -0.0288 -0.0806
22202W        W25422  12.165   0.554   3.882  0.1636  0.0611  0.1972
22203W        W25423   4.252   6.882   5.892 -0.1580  0.0810 -0.1033
22204W        W25424  12.041   7.097   9.825  0.0209  0.0142 -0.0440
22205W        W25425  12.871   3.901   5.740 -0.0295  0.3459 -0.0400
22206W        W25426  13.619   8.975   7.578  0.3040  0.0010 -0.1776
22207W        W25427  16.196  10.033  11.361 -0.2204 -0.0925 -0.1838
22208W        W25428  16.578   5.611   5.195  0.0490  0.1786 -0.2498
22209W        W25429   5.999   9.645   6.394  0.1364  0.1466  0.0640
22210W        W25430  10.732   7.121  10.528  0.1846 -0.2149  0.0693
22211W        W25431  10.706  15.283   3.195  0.0578 -0.5632 -0.1048
22212W        W25432   5.100   4.197   8.462  0.2452  0.2859  0.1089
22213W        W25433  14.644  15.416   1.274  0.1928  0.1755 -0.1217
22214W        W25434   6.890  12.272   3.842 -0.0176  0.0952 -0.1759
22215W        W25435   5.109   2.301   9.896 -0.2733 -0.2315 -0.3009
22216W        W25436   5.418  10.483   7.169 -0.3613 -0.0731  0.1894
22217W        W25437  15.636   5.824   9.446 -0.1529 -0.2037 -0.2809
22218W        W25438   8.248   3.842  15.445 -0.2480  0.2449 -0.0017
22219W        W25439   5.055   9.529   4.257  0.1956  0.3668  0.0437
22220W        W25440   8.285   8.081   1.662  0.3471  0.0068  0.1484
22221W        W25441   2.145   4.033   5.198 -0.0822 -0.1266  0.0289
22222W        W25442  13.542   5.921   5.247  0.2062 -0.0784  0.4047
22223W        W25443   8.215   4.052   8.272  0.0059 -0.0203 -0.0492
22224W        W25444  15.092   5.513   6.928 -0.0285 -0.0029  0.1244
22225W        W25445  15.618   6.570   3.115  0.0116 -0.2952 -0.0457
22226W        W25446  13.016   6.518   6.708 -0.0093 -0.1423 -0.2496
22227W        W25447  11.825   8.256   9.533  0.0690 -0.1432 -0.1159
22228W        W25448  11.630   0.614   4.914 -0.0339 -0.2278  0.1310
22229W        W25449   6.695   9.283   3.876 -0.1502 -0.0189 -0.3024
22230W        W25450   5.197   3.203  14.824  0.0192 -0.2009  0.0444
22231W        W25451   9.157   1.253   5.068  0.0120 -0.0978  0.2090
22232W        W25452  12.465   8.061   0.770 -0.0552  0.2301 -0.1220
22233W        W25453  12.331   7.971   5.929 -0.0717 -0.0278  0.0149
22234W        W25454   7.242   7.926   5.317 -0.2291 -0.0685 -0.1301
22235W        W25455  16.067   8.150   9.894  0.0674 -0.0727  0.0257
22236W        W25456  11.118   4.894   7.470  0.0759 -0.0364  0.3197
22237W        W25457  15.730   9.843   9.654  0.2915  0.0251 -0.3054
22238W        W25458  16.635   8.555   6.818 -0.1535 -0.0593  0.1565
22239W        W25459   6.953   6.440   6.292  0.0087  0.1729 -0.0240
22240W        W25460   8.326  12.435  11.729 -0.1308  0.0149  0.0825
22241W        W25461   7.032   5.750   5.607  0.4041 -0.1441 -0.2390
22242W        W25462   6.915  16.939   3.508 -0.0944 -0.3759  0.0545
22243W        W25463   1.762   8.494   7.473  0.1614  0.0007 -0.0545
22244W        W25464   7.854  11.349   7.551  0.1688 -0.0290 -0.0946
22245W        W25465  13.812   2.027  12.662 -0.0750 -0.0855 -0.2017
22246W        W25466  10.742   3.186  12.058 -0.0007 -0.0128 -0.4454
22247W        W25467   7.725   1.485   3.677 -0.2077  0.1091  0.0292
22248W        W25468   7.403   8.783   6.949 -0.1037 -0.2671  0.5603
22249W        W25469  13.059   1.239   0.474 -0.0756 -0.2408  0.2509
22250W        W25470  10.539  11.534   1.241 -0.2209  0.3621  0.0703
22251W        W25471   7.692  15.655  16.520 -0.2825 -0.1247  0.1952
22252W        W25472   6.235   1.869   9.160  0.0196  0.1122 -0.1037
22253W        W25473   8.933   2.034   6.369  0.0752 -0.0742  0.0969
22254W        W25474   8.751  14.545  16.380 -0.0704  0.0995 -0.0204
22255W        W25475   5.080   1.696   6.727 -0.1325  0.1647 -0.0056
22256W        W25476   3.630  10.257   3.834  0.0299  0.0771 -0.0394
22257W        W25477  11.714  10.781   8.922  0.0239  0.3037  0.0925
22258W        W25478   9.787  17.109  12.836  0.0954 -0.0456 -0.0666
22259W        W25479  11.454   2.224   2.673  0.1696 -0.4981  0.0012
22260W        W25480   5.795   3.526   7.175 -0.1738  0.0714 -0.0249
22261W        W25481  11.106   4.108   2.924  0.0837  0.2176 -0.0437
22262W        W25482  10.995   1.668  12.241  0.2741 -0.0685 -0.0211
22263W        W25483  15.102  11.450  12.869  0.1564 -0.0254  0.1249
22264W        W25484  10.053  16.419   2.338  0.2145 -0.0351  0.3408
22265W        W25485   6.727  17.297  17.857 -0.0927  0.3938 -0.2074
22266W        W25486  11.730  16.399   7.730  0.3171  0.5506 -0.2034
22267W        W25487   5.707   6.850   9.955  0.3751 -0.3884  0.0786
22268W        W25488   4.910   4.496   7.883  0.4730 -0.2373  0.1175
22269W        W25489  10.172   8.106  13.039  0.0323 -0.1161 -0.1694
22270W        W25490   7.654   0.886   7.623  0.0038 -0.0151  0.1430
22271W        W25491  15.637  18.101   4.279 -0.3098  0.1715 -0.1906
22272W        W25492  10.969   3.790   5.374  0.0494 -0.0325 -0.1446
22273W        W25493  15.308   5.420   5.415  0.2156 -0.0814  0.0430
22274W        W25494  12.261   3.755   4.934 -0.0540  0.0138 -0.2368
22275W        W25495  13.839   5.958  10.655 -0.1801  0.0836  0.0105
22276W        W25496  15.427   8.962  15.923  0.1739  0.0657 -0.0407
22277W        W25497  15.555   6.919   7.923  0.2718 -0.2595 -0.0909
22278W        W25498   5.921   5.836  12.377 -0.0807  0.0242 -0.1080
22279W        W25499  11.512   8.228   5.192 -0.1213 -0.1405 -0.0611
22280W        W25500  18.236   4.353   4.644 -0.0937  0.0640  0.0014
22281W        W25501  12.113   3.863   1.717 -0.0071  0.0911  0.1105
22282W        W25502  12.311   5.326   9.239  0.1209 -0.1389  0.2186
22283W        W25503  13.184   5.484   5.262  0.0726  0.0198  0.0211
22284W        W25504  11.765   6.348   2.307  0.4020  0.1404  0.0774
22285W        W25505  12.995   9.995   8.995 -0.1823  0.0704 -0.1058
22286W        W25506  13.757   4.374  11.190  0.0748 -0.3224  0.0299
22287W        W25507  17.637   3.586   8.822 -0.0238  0.0308  0.3523
22288W        W25508   7.367  16.549   4.448  0.2247 -0.0787 -0.0840
22289W        W25509   9.800  12.348   5.614  0.0727 -0.0802  0.1376
22290W        W25510  15.741   8.238  10.293  0.1235  0.0338 -0.2051
22291W        W25511  12.433   5.747   2.788  0.0124 -0.1639  0.2596
22292W        W25512  11.845   6.631  12.401 -0.0558 -0.0555 -0.3944
22293W        W25513  14.913   4.552  10.400  0.2364 -0.2662  0.5062
22294W        W25514   8.489  16.279   3.924  0.0710 -0.0282  0.3480
22295W        W25515   9.894   2.771   6.576 -0.0628  0.0970 -0.1386
22296W        W25516  12.439  18.194  11.951  0.4392  0.1827 -0.0240
22297W        W25517   6.910   8.721   6.353  0.0021 -0.1305  0.0336
22298W        W25518  12.509   5.744  11.392  0.3283  0.0165 -0.1354
22299W        W25519   6.038   6.677   5.734 -0.1667 -0.2454  0.1493
22300W        W25520  13.757   2.129   8.589  0.2045  0.2819  0.0556
22301W        W25521  13.072   1.021   3.407 -0.0794  0.3044 -0.0591
22302W        W25522  15.804   8.178   7.760 -0.1312  0.0351 -0.0586
22303W        W25523  12.144   9.155   2.142 -0.0103  0.0161  0.0682
22304W        W25524  14.630   6.695   3.592 -0.1109  0.1920 -0.0517
22305W        W25525   4.261   8.674   9.111  0.0987 -0.1041  0.1966
22306W        W25526  14.020   7.749   3.148  0.0262 -0.3166  0.2140
22307W        W25527   8.094   8.047  12.639  0.2109  0.1015  0.0268
22308W        W25528   6.750   6.952   8.046 -0.1224 -0.0639  0.0821
22309W        W25529   7.901  16.209   7.521  0.2256 -0.2757  0.0708
22310W        W25530  11.881   5.202   1.376  0.2636  0.0096 -0.1285
22311W        W25531   3.925   2.745  17.931  0.0243  0.2608  0.1520
22312W        W25532   9.044   6.867   6.426 -0.3777 -0.2639 -0.1741
22313W        W25533   9.037   1.324   3.420 -0.0286  0.1033 -0.0792
22314W        W25534  13.759   6.618   8.416 -0.1857 -0.0204 -0.0749
22315W        W25535  13.202   9.631   3.185  0.2990 -0.2961  0.2144
22316W        W25536   9.926   3.981   3.572 -0.1534  0.3063 -0.2030
22317W        W25537   7.676  14.041   4.111  0.0296  0.0486 -0.1587
22318W        W25538   6.898   1.299   2.362  0.2624 -0.0209 -0.3826
22319W        W25539  11.400  15.198   2.583  0.2095  0.0355  0.3432
22320W        W25540   8.285   3.114   5.254 -0.3189  0.0376 -0.0596
22321W        W25541   8.450   1.498  10.461 -0.5067  0.2498  0.0967
22322W        W25542   7.531   2.043   4.529 -0.2927 -0.2086  0.0204
22323W        W25543   8.463   8.941  17.812 -0.0134 -0.1897 -0.1833
22324W        W25544   9.459   6.653  16.178 -0.2050 -0.0328  0.2116
22325W        W25545   7.904   8.885   6.996 -0.1035  0.0154 -0.1895
22326W        W25546  12.957   8.506  11.256 -0.0705 -0.3664  0.0273
22327W        W25547  11.221   6.613   4.701 -0.0995  0.2492  0.1162
22328W        W25548  16.114   2.442   5.624  0.0346 -0.1319 -0.1644
22329W        W25549   5.422   5.024  11.559  0.2203  0.1784  0.0678
22330W        W25550   8.277  17.939   5.419 -0.0398 -0.1049  0.0958
22331W        W25551  17.402   7.602   0.056 -0.0182 -0.3166 -0.0368
22332W        W25552   9.062  10.194  11.321 -0.2449 -0.1537 -0.2794
22333W        W25553  14.922   6.268   7.578  0.1135 -0.2048  0.0485
22334W        W25554  11.200  17.460   2.564 -0.1313  0.1294  0.1151
22335W        W25555   6.787   2.844   3.076  0.1327  0.1848 -0.1040
22336W        W25556   3.176   1.070   7.769  0.0448 -0.1284  0.2895
22337W        W25557  15.890   3.338   6.315  0.0025  0.0729 -0.0410
22338W        W25558   4.430   6.515   9.966  0.2064 -0.0068 -0.1940
22339W        W25559   7.991   3.237   4.516  0.0955  0.0869 -0.1194
22340W        W25560   8.134  14.340   6.042  0.1148 -0.0406 -0.0872
22341W        W25561  11.036   9.303  12.130  0.6505  0.0354 -0.1669
22342W        W25562   8.635   2.447   3.610  0.2514 -0.2298 -0.0280
22343W        W25563   9.384   5.950   2.564 -0.1031 -0.1219  0.2109
22344W        W25564  17.671   4.241   8.007  0.0402  0.1413  0.3232
22345W        W25565  10.902   1.217   7.546 -0.1655  0.1232 -0.1867
22346W        W25566  14.081   2.994   3.309  0.0102 -0.1033 -0.1094
22347W        W25567   9.302  15.326   3.006 -0.2023 -0.3890  0.3608
22348W        W25568  13.882  11.558   9.577  0.1136 -0.3608 -0.1290
22349W        W25569  15.141   4.022   3.137  0.2188 -0.1988  0.2099
22350W        W25570   9.722   8.225  11.986 -0.1283 -0.1077  0.0489
22351W        W25571   5.649   3.950   2.234 -0.1786  0.4427 -0.0283
22352W        W25572  13.117   7.795  10.321 -0.3653 -0.1371 -0.0308
22353W        W25573   8.212   5.172   1.528  0.0174  0.0007 -0.2926
22354W        W25574   1.000   5.063   6.849 -0.1773 -0.0660  0.1388
22355W        W25575   7.445   0.570   5.479 -0.1704 -0.0096 -0.1343
22356W        W25576  16.707  16.687   3.759 -0.1793  0.2134 -0.0991
22357W        W25577   9.107   6.931   3.186  0.0649 -0.0559  0.1375
22358W        W25578  13.532  10.937   5.525  0.3006  0.3185  0.0060
22359W        W25579  10.697   5.765   1.540  0.0225 -0.2371 -0.2121
22360W        W25580   1.696   6.875  18.232  0.0409 -0.0457  0.1234
22361W        W25581  17.617   5.569   2.952 -0.1085 -0.0015  0.0167
22362W        W25582   6.055  15.594   0.670 -0.0027  0.0138  0.0654
22363W        W25583  11.373   2.290   1.735 -0.0371  0.0193  0.0962
22364W        W25584  15.449  14.004  17.278 -0.1483 -0.1375 -0.0860
22365W        W25585  14.062   8.536   8.237 -0.0015 -0.0582  0.0982
22366W        W25586  15.247   3.698   0.014 -0.0778 -0.0185 -0.0485
22367W        W25587   6.796   4.364   3.116  0.1936 -0.3115 -0.0271
22368W        W25588   6.530   4.051   6.260  0.1138 -0.0744  0.0602
22369W        W25589   9.308   4.142  10.360  0.4060  0.1815  0.0303
22370W        W25590   7.418   2.984   7.094 -0.0222 -0.0749 -0.1375
22371W        W25591   2.360   6.087   0.596 -0.0824 -0.0272 -0.0432
22372W        W25592  16.416  14.816   1.401  0.4948  0.0037  0.4046
22373W        W25593   9.391  18.129   5.966 -0.0017  0.1435  0.0972
22374W        W25594  10.234   6.307   9.478 -0.0346 -0.1480  0.0490
22375W        W25595  18.194   1.644   3.380  0.3294  0.0892 -0.0459
22376W        W25596   5.707   5.439  11.504  0.0088 -0.3299  0.0674
22377W        W25597   5.263   6.861   8.424 -0.1567  0.2715  0.0076
22378W        W25598  12.993   4.774   7.759  0.0636 -0.1303 -0.0499
22379W        W25599  16.356   6.381  14.999 -0.0770  0.0359 -0.1381
22380W        W25600   9.203   3.267   6.976 -0.0567 -0.1391 -0.0107
22381W        W25601  10.178   8.139   5.871  0.2200 -0.1031 -0.0241
22382W        W25602  13.216   1.906   8.468 -0.0623  0.0229 -0.0648
22383W        W25603   1.452   1.613   9.492  0.0581 -0.1951  0.1377
22384W        W25604   4.337   4.311  13.241  0.0804  0.1702 -0.2020
22385W        W25605  11.365   1.886   8.420  0.0585 -0.0701  0.2018
22386W        W25606   6.050   5.101   8.312 -0.1321  0.2748  0.1147
22387W        W25607   3.963   2.608   6.386  0.1302  0.1166  0.0916
22388W        W25608   4.885   2.104  11.823  0.3181  0.0618  0.0438
22389W        W25609  10.425   1.106  10.446 -0.0098 -0.1957 -0.3809
22390W        W25610   8.547   7.255  11.755 -0.0401 -0.1961 -0.0333
22391W        W25611   4.816  10.906   7.117  0.0411 -0.0183  0.0040
22392W        W25612   2.479   5.121   3.865 -0.0175 -0.0467 -0.0383
22393W        W25613  14.131  11.656   6.840 -0.1168 -0.0347  0.2430
22394W        W25614   5.540  17.544   3.418 -0.0099 -0.2034  0.1204
22395W        W25615  17.513  16.238   1.538 -0.3326 -0.2109  0.0603
22396W        W25616   9.834   5.223   3.811  0.1380  0.2504  0.0921
22397W        W25617  12.985   4.962   7.294  0.0026  0.0837  0.1607
22398W        W25618  10.243   3.408   1.574  0.0139  0.0405 -0.1999
22399W        W25619   6.142   3.891   2.824 -0.0982  0.0598  0.3947
22400W        W25620  10.502   7.303   6.352  0.0329  0.1491 -0.2403
22401W        W25621   9.462   4.194  18.145  0.2726  0.2213  0.1029
22402W        W25622  11.664   6.316   2.980  0.1190 -0.2313 -0.2969
22403W        W25623   7.257   1.973   3.265 -0.2111 -0.1292  0.1656
22404W        W25624  11.723   8.664  11.532  0.0360  0.1313 -0.0118
22405W        W25625   6.141   2.770  16.880  0.1068 -0.0541 -0.2494
22406W        W25626  15.003   9.185  10.549 -0.1990 -0.2714  0.0938
22407W        W25627  13.841   8.221   5.317 -0.0066  0.1630  0.1615
22408W        W25628   4.697  11.637   7.773  0.0922  0.1142  0.1171
22409W        W25629  15.755   3.462  12.009 -0.3202 -0.0110  0.0637
22410W        W25630  12.715  10.270   1.621 -0.1101  0.1725  0.0880
22411W        W25631  10.075   5.452   0.768  0.0769  0.2551 -0.0880
22412W        W25632  15.698   3.138   2.275 -0.1397 -0.2298 -0.2092
22413W        W25633  13.897   3.314  17.372 -0.1188 -0.1961  0.0655
22414W        W25634   5.885   0.438  10.270 -0.0526 -0.0983 -0.1984
22415W        W25635   7.507  11.980   9.168  0.0922 -0.2230 -0.0987
22416W        W25636  11.617   4.755   1.480 -0.0984  0.0502 -0.1248
22417W        W25637  14.690   2.907   8.425 -0.0984 -0.2055  0.0291
22418W        W25638  11.035   3.208   0.412 -0.0357  0.1130 -0.0507
22419W        W25639  16.191   0.078  10.405 -0.3360  0.0205  0.0689
22420W        W25640   8.916   1.125   1.127  0.1653  0.0722  0.2278
22421W        W25641  13.675  10.530  17.456 -0.0576 -0.2223  0.1813
22422W        W25642  12.032   2.761  12.757 -0.1891  0.0261  0.2444
22423W        W25643   8.495   4.261   8.618 -0.2561  0.0976 -0.0382
22424W        W25644  11.985   2.285  16.044 -0.0669  0.4242  0.0152
22425W        W25645  14.859   9.778   7.078 -0.0570  0.0099 -0.0794
22426W        W25646   2.576  14.003   4.119 -0.1738 -0.0242  0.3046
22427W        W25647   8.672   6.910  12.274  0.2645 -0.2414 -0.2900
22428W        W25648  14.974   6.355   6.312 -0.2645  0.3399 -0.2111
22429W        W25649   4.940   5.435   5.668  0.3931  0.0704  0.2518
22430W        W25650  14.881   4.821   3.567  0.2087 -0.0091 -0.1825
22431W        W25651   1.990   4.803   1.095  0.1436  0.1441 -0.1880
22432W        W25652   8.588   7.505   9.059 -0.0689 -0.0216 -0.1449
22433W        W25653   5.735   4.778   9.092  0.1252 -0.2035  0.0516
22434W        W25654  10.196   3.861   5.336 -0.1069 -0.0576  0.0939
22435W        W25655   6.446  12.818   0.201  0.2119  0.2398  0.3284
22436W        W25656  15.068  12.533   7.942  0.2706  0.0251 -0.1286
22437W        W25657   8.176   1.734   6.911  0.1288 -0.3364  0.3247
22438W        W25658  14.088   1.714   8.643 -0.1692  0.0625  0.0979
22439W        W25659  11.159   0.722   2.903 -0.1718 -0.1148 -0.0861
22440W        W25660  17.124   6.059   8.510  0.3349  0.0527  0.0609
22441W        W25661  16.830   1.223   2.688 -0.1679 -0.1268 -0.0450
22442W        W25662   6.669   2.589   6.551  0.0973 -0.2264 -0.1296
22443W        W25663   8.909  17.978   3.308  0.0109 -0.1285  0.2085
22444W        W25664   0.715  10.209   8.396 -0.0821  0.0428  0.0796
22445W        W25665   2.306  16.992   3.724 -0.1419  0.3102 -0.0464
22446W        W25666   7.875   5.947  11.350  0.0360 -0.1248 -0.0162
22447W        W25667   7.276   7.414   8.325 -0.0122 -0.3884  0.2851
22448W        W25668   9.995   6.750   3.104  0.2074 -0.0602  0.1859
22449W        W25669  10.614   4.123   2.696  0.0787 -0.2923  0.4638
22450W        W25670   3.751   8.524   0.041 -0.0296  0.1398  0.2992
22451W        W25671  10.519   3.509   5.186 -0.0123 -0.1849 -0.1516
22452W        W25672   8.126   6.941   6.702  0.1240 -0.1779 -0.1472
22453W        W25673  15.862  10.284   2.719 -0.1452  0.0597 -0.4255
22454W        W25674  17.325   8.168   4.273  0.0784 -0.1993  0.0692
22455W        W25675  10.642   7.841   5.914  0.0147 -0.1406 -0.0111
22456W        W25676   9.290   4.257   2.896  0.0719 -0.3411  0.0380
22457W        W25677  11.571  11.260   7.294  0.1072 -0.1204 -0.2005
22458W        W25678   8.827   5.796   1.966  0.2061  0.0869 -0.1542
22459W        W25679  12.325   1.275  17.376 -0.2717  0.0371 -0.1892
22460W        W25680   9.083   4.841   3.488  0.2177 -0.3714  0.1277
22461W        W25681  16.234   4.900   8.197 -0.2021  0.1140 -0.1604
22462W        W25682   7.262   4.795  13.766  0.0365 -0.0708  0.0753
22463W        W25683  13.248   7.898  13.496 -0.1720  0.2893  0.0775
22464W        W25684  12.036   1.806  10.640 -0.1741  0.1743 -0.0293
22465W        W25685   5.992   7.248   8.102  0.1657  0.3169  0.0018
22466W        W25686   2.103   9.377   5.917 -0.2935  0.1403 -0.0291
22467W        W25687   6.793   6.902   5.893 -0.2369  0.0836 -0.1171
22468W        W25688  17.293   3.194   5.546  0.4027  0.0433  0.0553
22469W        W25689   2.600   5.871   7.702  0.0783 -0.2565  0.1322
22470W        W25690   9.493   6.741   3.388 -0.0168  0.0687  0.1371
22471W        W25691  15.024   7.292  17.840  0.0590 -0.0153 -0.1060
22472W        W25692   9.127  11.599   1.128 -0.1600 -0.2673 -0.1068
22473W        W25693   7.057   3.692   3.009  0.0471  0.2891  0.0024
22474W        W25694   4.789   3.050   1.934  0.1287 -0.0226  0.1587
22475W        W25695   5.539  16.217  16.621 -0.0001 -0.0136 -0.0777
22476W        W25696   9.132  10.725   8.338 -0.1453  0.3310 -0.0641
22477W        W25697  16.635   3.867   0.484  0.2271  0.0257  0.2222
22478W        W25698   2.276  10.703   8.302  0.1000  0.2379 -0.0472
22479W        W25699  11.151   9.165  13.996  0.0177  0.0119 -0.0496
22480W        W25700  12.367   5.587   4.275  0.1176  0.4746  0.0401
22481W        W25701   4.373   8.216   6.680  0.0427 -0.0622 -0.0066
22482W        W25702   4.474  11.440  10.395 -0.0996  0.0490 -0.0180
22483W        W25703   9.552   7.592  10.146  0.2586 -0.1970 -0.0688
22484W        W25704   2.851   8.260   6.587 -0.2291 -0.1046  0.0305
22485W        W25705   9.661   5.276  10.523 -0.0107 -0.1060 -0.1597
22486W        W25706  14.917   2.108   2.682 -0.0368  0.1612 -0.2793
22487W        W25707   8.313  12.952  17.755  0.2280 -0.1165  0.0539
22488W        W25708   6.876   8.043  11.346 -0.3848 -0.3392  0.0249
22489W        W25709   5.237   6.667  10.448 -0.2251  0.2959  0.1393
22490W        W25710   6.751  12.914   5.216 -0.3112  0.0732 -0.1629
22491W        W25711   3.138   6.596  14.989  0.2084 -0.2353  0.2351
22492W        W25712   9.672   4.580   7.829  0.3880  0.1933  0.2649
22493W        W25713   0.733  12.317   9.098  0.0739 -0.0303  0.0209
22494W        W25714  13.319  12.744   8.043 -0.2324  0.0709  0.0725
22495W        W25715  11.029   4.877  16.717  0.1834  0.3726 -0.1469
22496W        W25716  11.425   5.815  15.876 -0.2447  0.0990 -0.0291
22497W        W25717   7.624   8.043   9.428 -0.0323 -0.2331  0.2102
22498W        W25718   7.414  13.015   1.933 -0.2372  0.0688 -0.0729
22499W        W25719  10.304   8.547  13.398 -0.1752  0.3946 -0.0509
22500W        W25720  11.415   8.963   8.543  0.0229 -0.2762 -0.1319
22501W        W25721  13.487  13.521  10.871 -0.0199 -0.1494  0.0508
22502W        W25722  11.582   7.342   5.046 -0.0069  0.3723 -0.1296
22503W        W25723  15.061  18.143   5.897 -0.1572 -0.1819  0.3485
22504W        W25724   8.699   8.789  14.921 -0.1315 -0.2213 -0.2072
22505W        W25725   4.231   0.907  10.013  0.0916  0.3152 -0.0404
22506W        W25726   9.812   9.264  11.695 -0.0942  0.0253 -0.2578
22507W        W25727  10.279   7.092  14.588  0.2296  0.4071  0.0593
22508W        W25728   2.390   1.671   2.014  0.1823  0.0511  0.0923
22509W        W25729  13.047  13.059  12.628 -0.0621  0.2495  0.0012
22510W        W25730  14.255   9.723   8.497 -0.0400  0.0909 -0.1282
22511W        W25731  10.795   4.873  10.897  0.0640  0.0603 -0.0495
22512W        W25732   7.964   5.312   5.865 -0.2065 -0.1438  0.1640
22513W        W25733  12.082   9.162  14.927 -0.1456  0.4337  0.0226
22514W        W25734   8.926   6.359   5.458 -0.2230 -0.3780  0.3640
22515W        W25735  15.560   2.120  13.699  0.1320 -0.3188  0.1622
22516W        W25736  13.622   2.353  10.539 -0.1425 -0.0831 -0.2452
22517W        W25737  10.706  10.975  10.348  0.3707  0.0667 -0.1706
22518W        W25738   9.671  12.921   9.939  0.1670  0.0984 -0.0735
22519W        W25739   5.783  14.328   7.268 -0.1872 -0.1009  0.1662
22520W        W25740  13.555  13.136   4.570 -0.1639  0.0386  0.4579
22521W        W25741  10.734   3.378  11.314 -0.1204 -0.0048  0.0515
22522W        W25742  13.325   5.313  13.201  0.0731 -0.2797  0.0754
22523W        W25743  14.714  10.869  12.495  0.0221 -0.1048  0.1793
22524W        W25744  11.844   6.472   0.384 -0.1775  0.2244 -0.0919
22525W        W25745   7.458  17.678   9.599 -0.0275 -0.1955  0.1383
22526W        W25746   1.191   6.503  16.991 -0.2659 -0.3474  0.2708
22527W        W25747   1.146  11.715   6.307 -0.1259 -0.0258  0.1817
22528W        W25748   9.656   5.707  13.970 -0.2537 -0.0167  0.2598
22529W        W25749  13.464   8.106  13.095 -0.2339 -0.0950  0.0147
22530W        W25750  13.439   7.204   1.930 -0.1255 -0.0230  0.3037
22531W        W25751  15.584   5.199   8.144  0.0746 -0.2543  0.0643
22532W        W25752   7.051   4.110   6.341 -0.2329 -0.1685  0.0029
22533W        W25753  10.411   0.096   5.576 -0.1692 -0.0975  0.0735
22534W        W25754   3.936   4.142   8.705 -0.1498 -0.0728 -0.2278
22535W        W25755   7.070  17.756   1.404 -0.1575 -0.1269 -0.5000
22536W        W25756   9.500   6.925   4.562  0.2621 -0.1770 -0.1269
22537W        W25757  11.082   7.020   9.968 -0.1047 -0.2113  0.1760
22538W        W25758  14.026   4.487   9.156 -0.1798  0.1623  0.0086
22539W        W25759   9.265  16.390   0.623  0.2083  0.2575 -0.0581
22540W        W25760  14.295   0.116   8.901 -0.3161  0.1854  0.4287
22541W        W25761  12.975   5.260  14.721  0.1445 -0.0487 -0.1238
22542W        W25762  11.541  13.776   1.328 -0.1797  0.1576 -0.0008
22543W        W25763   9.164   5.700   7.820 -0.0058 -0.0232  0.0399
22544W        W25764  13.244   3.787  10.250  0.0638  0.0880  0.0968
22545W        W25765   9.280   7.796   6.791 -0.0794 -0.0836  0.0601
22546W        W25766  11.212   6.907   5.998  0.1464  0.0297 -0.1299
22547W        W25767   4.474  17.441  11.360 -0.0009  0.0426  0.0246
22548W        W25768   7.865   2.164   8.483 -0.1398  0.2535 -0.1922
22549W        W25769   5.639   7.933   4.070 -0.1026  0.0390 -0.3617
22550W        W25770  11.845   2.744  11.767  0.0394  0.0270 -0.0571
22551W        W25771  11.888  17.937  12.200 -0.0200  0.2790  0.1041
22552W        W25772  10.523  17.010   4.055 -0.2443 -0.3395  0.3692
22553W        W25773   5.462   2.702   5.849  0.0463 -0.4410  0.0859
22554W        W25774   4.317   7.341  13.474  0.3432  0.1325  0.0690
22555W        W25775  13.174   7.188  11.652  0.1384  0.0131  0.2687
22556W        W25776  11.535   8.797   9.477 -0.0272  0.2476 -0.1056
22557W        W25777   8.627   2.817   6.850 -0.0619 -0.2225 -0.1128
22558W        W25778   6.372   1.939   5.799 -0.1515  0.1965  0.1887
22559W        W25779   9.858  11.500  12.412 -0.1955 -0.3586 -0.0582
22560W        W25780   1.467   4.572   8.155 -0.3751  0.1879  0.1827
22561W        W25781  13.549   2.493   6.706 -0.4204  0.2627  0.1849
22562W        W25782  12.615   0.416  12.248 -0.1205 -0.0010 -0.0623
22563W        W25783  13.121   1.544   8.941  0.2633 -0.2176 -0.2941
22564W        W25784  17.265  17.987  16.133  0.1082  0.0444 -0.0244
22565W        W25785   9.748   7.944  12.525 -0.2123  0.0098 -0.0832
22566W        W25786  15.669   4.768   5.859  0.0370 -0.2432  0.0196
22567W        W25787   7.224   7.063  11.467 -0.2830  0.1265  0.1652
22568W        W25788  10.369  12.643  14.824  0.1702 -0.1295 -0.0329
22569W        W25789   4.349  10.947  13.115 -0.6398 -0.2256 -0.2176
22570W        W25790   9.616  15.087  11.811  0.0181  0.0248  0.1286
22571W        W25791  14.611  17.070   1.546 -0.0881  0.1255 -0.0908
22572W        W25792  14.660   2.525   4.341 -0.0905  0.1858  0.0491
22573W        W25793   6.938   8.312   5.625  0.1836  0.4745 -0.4099
22574W        W25794  10.768   6.290  14.060  0.0850 -0.1515 -0.2354
22575W        W25795  16.170   3.507   7.633 -0.0582  0.1535 -0.1001
22576W        W25796  15.159   8.788   9.804 -0.0315  0.0479  0.1363
22577W        W25797  13.638   4.508  13.179 -0.2223  0.1507 -0.1280
22578W        W25798   2.014   5.349   6.938  0.1063  0.0175  0.2304
22579W        W25799  13.191  16.575   9.564 -0.0343  0.0346  0.0762
22580W        W25800   7.149   1.858  10.648 -0.1426 -0.3009 -0.0450
22581W        W25801   6.791  17.916  12.787  0.1103  0.0474 -0.2111
22582W        W25802  15.434   6.596   6.211 -0.0670 -0.0242 -0.0329
22583W        W25803   4.866   1.462  16.045  0.2117 -0.0558  0.0455
22584W        W25804  12.243  12.816   2.126  0.1807 -0.2738  0.2668
22585W        W25805   5.216   9.245  15.976 -0.3295 -0.0443  0.1720
22586W        W25806  18.023   9.610   0.856 -0.2508 -0.1345  0.0004
22587W        W25807   0.602   3.235   7.848 -0.2031 -0.1969  0.1159
22588W        W25808  17.903   8.792  11.331  0.0912  0.0598  0.0208
22589W        W25809  12.176   4.261  10.313  0.0167 -0.0493 -0.0123
22590W        W25810  11.428   8.337   9.180  0.1686  0.1434  0.3888
22591W        W25811  16.080   7.737  10.189  0.4463 -0.3358 -0.1023
22592W        W25812   8.161   6.687   8.578  0.0112  0.1834  0.2332
22593W        W25813   6.603   6.156   0.253  0.3696  0.0200  0.0852
22594W        W25814  14.397  13.577  10.834 -0.2366 -0.1279 -0.0925
22595W        W25815   8.440   1.648   3.005 -0.2103  0.0411  0.0938
22596W        W25816  10.804  12.791   8.988  0.3277  0.1060 -0.2310
22597W        W25817   8.032   3.351  12.618  0.2522 -0.0210  0.1613
22598W        W25818  13.000  11.917  16.979  0.1481  0.0560 -0.1155
22599W        W25819  13.596   6.513  10.600 -0.1487 -0.0571 -0.2621
22600W        W25820  12.188  13.456  10.126  0.0865 -0.2724  0.0090
22601W        W25821  13.726   7.050  11.547  0.0289 -0.2248 -0.2080
22602W        W25822   2.732   4.822   6.969 -0.1683  0.0414 -0.3947
22603W        W25823  10.811  16.338   7.718 -0.2381 -0.0756 -0.2641
22604W        W25824   8.408   4.814  17.780 -0.2489  0.0860 -0.1427
22605W        W25825  16.235   8.958  13.309  0.1862 -0.1093 -0.1726
22606W        W25826  16.843   6.497   8.478 -0.1851  0.0842 -0.0160
22607W        W25827   8.700   6.664  10.083 -0.0487 -0.2183  0.1556
22608W        W25828   9.955   7.186   7.747  0.2552 -0.1269 -0.1451
22609W        W25829  10.343   5.629   2.622  0.1098  0.1141 -0.1639
22610W        W25830  15.399   8.709  11.290 -0.2834  0.0117  0.1153
22611W        W25831  15.756   9.772  12.633 -0.0500 -0.0398  0.0583
22612W        W25832   7.455   7.788   3.471  0.1023  0.1244  0.2008
22613W        W25833  16.885   4.302   6.745  0.0974 -0.1725  0.1294
22614W        W25834   5.031  12.211  10.203 -0.3735 -0.0109 -0.0898
22615W        W25835   8.284  14.111  13.558  0.4767 -0.0101  0.1192
22616W        W25836   9.987   2.836  11.264  0.4018 -0.0945  0.2291
22617W        W25837  14.634   5.062   9.665  0.3070  0.4430 -0.2475
22618W        W25838   5.880   3.320   9.759  0.2781  0.1685 -0.2384
22619W        W25839  17.126   6.342   2.687  0.0376  0.1589 -0.1003
22620W        W25840   5.985   4.895   7.815  0.0078  0.0770 -0.1802
22621W        W25841   8.566   5.185   9.608  0.0865  0.1980  0.2375
22622W        W25842   7.203  11.503   5.304 -0.3354  0.0762  0.2052
22623W        W25843   8.756   2.216   5.600 -0.1431 -0.2760  0.0252
22624W        W25844  12.613   0.753   1.203 -0.0604  0.0408  0.0229
22625W        W25845  17.431   7.196   9.168  0.2031 -0.0154  0.3343
22626W        W25846   9.395   4.755  11.465  0.0255 -0.0952 -0.1327
22627W        W25847   2.143   6.305  16.934  0.1277  0.5474 -0.2740
22628W        W25848  13.955   2.294   6.312 -0.0897 -0.3401  0.3866
22629W        W25849  12.671   8.979  12.126  0.0390  0.0157 -0.0764
22630W        W25850   6.562   9.097   1.871 -0.1020  0.0634 -0.1982
22631W        W25851  14.518  13.110  11.660 -0.1116 -0.0797  0.2040
22632W        W25852   8.337   1.199  10.009  0.1723  0.2292  0.0397
22633W        W25853  12.587   4.556  12.187  0.2939  0.1905 -0.0273
22634W        W25854  12.057   8.161   7.991 -0.2942 -0.2513 -0.0287
22635W        W25855   7.984   5.782  13.397 -0.0613 -0.0283  0.0987
22636W        W25856  14.404   4.590   7.484 -0.2945  0.2442 -0.0558
22637W        W25857   9.389   6.515   3.829 -0.1559 -0.3108 -0.2680
22638W        W25858  10.105   2.975  10.359 -0.2425 -0.1366 -0.1996
22639W        W25859  11.434   8.070  14.536 -0.0686 -0.4033 -0.0390
22640W        W25860   7.043   6.579  13.143  0.2388  0.1294  0.1654
22641W        W25861   4.571   6.599  14.160  0.0269  0.0464 -0.0062
22642W        W25862   9.182   7.360   0.354  0.1209 -0.2968  0.0099
22643W        W25863  13.171   8.998  11.224 -0.1439 -0.3915  0.2663
22644W        W25864  13.882   4.054  11.941 -0.0771  0.0624 -0.1353
22645W        W25865   6.868   9.219  16.951  0.2058 -0.0928  0.0215
22646W        W25866  13.049  17.845   3.350  0.1788  0.1192  0.1110
22647W        W25867   6.383   3.114   6.424  0.1841 -0.1762 -0.0727
22648W        W25868  13.167   4.681   2.866  0.0811 -0.2325 -0.0600
22649W        W25869   7.192  10.440  14.848 -0.0606 -0.3292 -0.1165
22650W        W25870   2.812   6.086   5.316  0.1929 -0.2985  0.1412
22651W        W25871   0.845   9.828   6.148 -0.1888  0.0773 -0.0375
22652W        W25872   7.541   5.852  12.992 -0.1432  0.0826 -0.1132
22653W        W25873  17.016   9.010  11.093 -0.1281 -0.0848 -0.0366
22654W        W25874  15.654  10.308   5.914  0.1052  0.2219 -0.0401
22655W        W25875  11.761   5.383  12.349 -0.1944 -0.2040  0.2573
22656W        W25876  10.219   4.421  11.407 -0.0229  0.1208  0.0690
22657W        W25877   3.998   0.481   7.706  0.0372 -0.2638 -0.2969
22658W        W25878   7.065  11.399  16.710 -0.1267  0.1243 -0.0344
22659W        W25879  11.353   8.765   6.294 -0.3999  0.1053 -0.0560
22660W        W25880   7.516   2.074   8.127  0.0024  0.2002  0.0660
22661W        W25881   0.878  15.010   9.724  0.2716 -0.4371  0.3266
22662W        W25882   7.388   4.596   8.169  0.1213  0.1545 -0.1878
22663W        W25883   7.994   8.047   8.173 -0.0053  0.0206 -0.0553
22664W        W25884  10.658   5.916   8.734  0.0541 -0.1007 -0.2145
22665W        W25885   7.333  11.245   9.731  0.1743 -0.0862 -0.2224
22666W        W25886   9.860   5.549  16.376 -0.0920 -0.0492 -0.1788
22667W        W25887  15.295  15.918   8.170  0.1074  0.1445 -0.1302
22668W        W25888   9.497   5.454   7.501 -0.0310  0.2112  0.3587
22669W        W25889   6.094   3.569  16.609  0.0652 -0.0464 -0.0324
22670W        W25890  18.203   4.719  12.618 -0.0967  0.1452  0.0504
22671W        W25891   9.990   6.195  15.668  0.1457  0.0037 -0.0581
22672W        W25892  15.375   5.271  11.907  0.0697  0.1455  0.1191
22673W        W25893   7.351   2.202   9.240  0.0399  0.2240  0.2858
22674W        W25894  13.752   5.693  11.460 -0.2707 -0.4047 -0.1410
22675W        W25895  14.776   6.815   2.184  0.1333  0.1312 -0.1319
22676W        W25896   9.648   9.642  10.031 -0.4149 -0.2923 -0.0424
22677W        W25897  11.921   8.398   9.995  0.0398  0.0233 -0.1658
22678W        W25898  14.558   9.242  15.517  0.4712 -0.2045 -0.0406
22679W        W25899   6.412   0.866   9.045 -0.1595  0.0114 -0.1179
22680W        W25900  11.750   4.575   8.913 -0.0321 -0.1788 -0.1832
22681W        W25901  12.852  17.080   8.696  0.2045  0.2032  0.2764
22682W        W25902   9.481  10.703   7.416 -0.3462 -0.1567  0.1850
22683W        W25903   6.253   6.136  17.236 -0.1374  0.2754 -0.0214
22684W        W25904  13.864  17.403   8.533  0.2205 -0.0527 -0.0911
22685W        W25905   8.740   8.657   9.221 -0.0508  0.1296 -0.1572
22686W        W25906  13.332   9.546  13.328 -0.1113 -0.1489  0.1149
22687W        W25907  13.395   4.628   9.925  0.0823  0.0900 -0.0582
22688W        W25908  11.818   7.735   8.491 -0.1774  0.1284 -0.1877
22689W        W25909   8.091   9.000   4.951 -0.1518 -0.2005 -0.0809
22690W        W25910  11.250   3.382   5.365 -0.0472 -0.1809 -0.1082
22691W        W25911  12.595  10.868  11.136  0.0889 -0.0405 -0.0495
22692W        W25912   1.063  17.363  14.859  0.0006  0.0638  0.0706
22693W        W25913  17.852   3.512  10.182  0.2205 -0.1931  0.1303
22694W        W25914   9.446   3.631  10.196 -0.4566  0.2440 -0.1086
22695W        W25915   9.076   2.746  11.144 -0.1507 -0.0103 -0.0071
22696W        W25916  11.101  15.560   6.502 -0.1326 -0.2298 -0.0290
22697W        W25917  15.200  10.256   6.727 -0.2793 -0.2182  0.2199
22698W        W25918   1.078   6.578  14.759 -0.0035  0.1609  0.1466
22699W        W25919   8.541   2.934  14.028  0.0244 -0.0339 -0.0722
22700W        W25920  12.483   6.429  10.862 -0.1182 -0.0401 -0.0557
22701W        W25921   8.152   7.870  13.131 -0.1820  0.0539 -0.3472
22702W        W25922  11.686   4.397   8.303  0.0096 -0.2419  0.1381
22703W        W25923  11.438   3.978  10.368 -0.2757  0.0321  0.1736
22704W        W25924   0.536  16.024  12.179  0.3237  0.0049 -0.1228
22705W        W25925  12.783  10.168   7.559 -0.1552  0.0250 -0.1208
22706W        W25926  13.840   7.806   4.045 -0.3493 -0.0470 -0.0174
22707W        W25927   9.457  16.618  12.038 -0.0420  0.0706  0.1033
22708W        W25928  12.402   9.312   8.905  0.1002  0.1220  0.2104
22709W        W25929   7.792   3.162  16.334 -0.0562  0.3362  0.1036
22710W        W25930  12.882   0.023   3.562  0.0747  0.0415 -0.1399
22711W        W25931   0.048   5.983  11.298  0.1267  0.2038 -0.0873
22712W        W25932  10.467   8.205  10.932 -0.1601 -0.2296  0.0625
22713W        W25933  16.889   6.150  10.584 -0.0835 -0.5850 -0.2397
22714W        W25934   3.661  10.522   8.532  0.3683 -0.0871 -0.2053
22715W        W25935   4.348   5.819   3.959 -0.4200 -0.0710  0.0498
22716W        W25936   0.494   4.686   6.234 -0.1819  0.0652 -0.2872
22717W        W25937  13.538   6.347   9.343  0.0886 -0.0827  0.0109
22718W        W25938   7.638  17.736   4.586 -0.0305  0.1380  0.1705
22719W        W25939   8.492   9.255  13.922  0.1343 -0.0736  0.1150
22720W        W25940   9.389   8.815  12.237  0.1622  0.0950  0.1392
22721W        W25941  11.022   7.453   6.155  0.2448 -0.0559  0.2415
22722W        W25942  14.957  10.609   8.092 -0.1909 -0.2893  0.1653
22723W        W25943   9.250   4.820   2.597  0.2741 -0.0721 -0.3782
22724W        W25944  13.829  13.522   7.308 -0.1584  0.2561  0.2217
22725W        W25945  10.716   6.182   0.809 -0.2834  0.2728  0.2211
22726W        W25946   8.585   5.255  12.947  0.1238  0.4223 -0.0403
22727W        W25947   3.178   1.984  12.522  0.2057  0.1295 -0.0256
22728W        W25948   8.627   2.653   8.099 -0.1641 -0.2418 -0.2071
22729W        W25949   9.191  17.600   3.667 -0.0083  0.0601 -0.1384
22730W        W25950  10.664   1.358  15.848  0.3586 -0.1040  0.2791
22731W        W25951   5.391   7.726   7.990 -0.2626  0.3650 -0.1559
22732W        W25952  13.466  11.733   4.100 -0.1091  0.0592  0.2868
22733W        W25953   9.798   3.712   9.784  0.0756 -0.3197 -0.3625
22734W        W25954   6.675   9.458  12.531  0.0168  0.0135 -0.0959
22735W        W25955  14.186   5.020  11.501 -0.1793 -0.0203  0.0527
22736W        W25956   7.764   4.613  13.945  0.0198  0.0746 -0.0051
22737W        W25957  11.256   3.538  10.170 -0.1844  0.0278  0.2795
22738W        W25958   5.177  16.515  13.802  0.1049 -0.3396 -0.0341
22739W        W25959  12.173   4.261   7.613  0.3299 -0.2499 -0.0157
22740W        W25960   9.317   7.922   5.796 -0.2086  0.0373 -0.0490
22741W        W25961  10.333  13.209   7.833 -0.1146 -0.1378  0.0396
22742W        W25962  13.273   4.783   5.972  0.4011 -0.0345  0.0110
22743W        W25963   7.648  17.671  10.075 -0.0494  0.0440 -0.0221
22744W        W25964   9.607  17.744   5.513  0.3487  0.1681  0.0427
22745W        W25965  15.104  10.657   8.540 -0.3687  0.0033 -0.1363
22746W        W25966   3.374   5.431  10.859 -0.0806 -0.1698  0.0461
22747W        W25967  12.608   6.043   8.951  0.0839 -0.0438  0.0142
22748W        W25968   9.411   4.486  14.611  0.0532 -0.0699 -0.3702
22749W        W25969   2.810  16.843   3.498  0.1616  0.1244  0.0631
22750W        W25970   6.639   2.033  10.952  0.0429  0.0123 -0.1254
22751W        W25971   8.477   1.396   8.785  0.6215  0.3128  0.0824
22752W        W25972   9.165   4.755   7.763 -0.3482 -0.2356  0.2134
22753W        W25973   1.061   1.662   1.523  0.1730 -0.1447  0.2342
22754W        W25974   6.674   3.754   7.135  0.0172  0.0393  0.1895
22755W        W25975   5.732  12.035   7.616 -0.1135  0.0015 -0.2266
22756W        W25976  11.730   2.471  10.721 -0.0757  0.0977  0.0508
22757W        W25977  15.246  13.029  16.245  0.1524 -0.2935 -0.0292
22758W        W25978   6.578   5.662   4.755  0.2967 -0.1615 -0.0465
22759W        W25979   9.015  11.773  11.688 -0.0414  0.0531 -0.3488
22760W        W25980  10.122   4.840   9.501 -0.0934  0.0847  0.0932
22761W        W25981   5.748   7.727   6.025  0.3220  0.1905  0.1526
22762W        W25982  11.502   8.600  14.233 -0.2342 -0.3365 -0.1434
22763W        W25983  12.394   3.312   9.457  0.0739  0.0217 -0.0354
22764W        W25984  10.172   5.452  11.456 -0.2408  0.0750 -0.0466
22765W        W25985   7.470   7.602   6.289  0.0079 -0.1408  0.0575
22766W        W25986   8.153   5.428   9.378 -0.2879 -0.4163 -0.2795
22767W        W25987  14.064  11.355   0.845  0.2349  0.3300 -0.0277
22768W        W25988  14.151   2.718   6.768  0.0470 -0.0635 -0.3369
22769W        W25989  13.262  13.689   3.742 -0.1446  0.1956 -0.0986
22770W        W25990   3.730   8.591   8.680 -0.1239  0.0020  0.2229
22771W        W25991  12.479   6.787  10.450  0.0084  0.3202  0.0577
22772W        W25992   6.089  10.912   9.753  0.0314  0.1751  0.3532
22773W        W25993  15.499  10.916  11.445 -0.0933  0.1512  0.2350
22774W        W25994  15.140   6.862  17.692  0.1766  0.1724  0.1148
22775W        W25995   9.926   2.456  10.983  0.1858  0.1865  0.4410
22776W        W25996  12.835   6.653  11.176  0.0235 -0.4386  0.2544
22777W        W25997  12.365   1.396  12.417  0.2327 -0.0877  0.1485
22778W        W25998   9.680   5.776   5.564  0.1091 -0.3966  0.0023
22779W        W25999  14.881  10.716  14.847  0.0398  0.0775 -0.1043
22780W        W26000   2.261   2.494   9.283 -0.0333  0.0792  0.0933
22781W        W26001  12.884   3.532   3.434 -0.1569 -0.0224  0.1351
22782W        W26002   0.388   6.123  10.940  0.2706  0.2108  0.1617
22783W        W26003   6.646  17.874  10.023  0.0537  0.1272  0.2152
22784W        W26004   4.933  13.357  11.396 -0.0951  0.1430  0.1640
22785W        W26005   9.349   8.648  10.393  0.0435  0.2194  0.1512
22786W        W26006  12.505   4.661   7.854 -0.1653 -0.0052  0.0017
22787W        W26007   5.871   6.306  10.767  0.2593 -0.0812  0.3604
22788W        W26008   9.218  12.308  10.065  0.1549  0.1006 -0.0946
22789W        W26009  16.338  10.734  11.942  0.0828 -0.1723  0.2668
22790W        W26010  11.407   4.444   3.142 -0.0012 -0.0257 -0.2083
22791W        W26011   1.534  13.362  14.968  0.1512  0.3326  0.0080
22792W        W26012  15.718   6.370   2.607 -0.2800  0.0082 -0.0807
22793W        W26013   3.257  16.317   8.793 -0.0578 -0.0438 -0.2069
22794W        W26014   7.754   1.552  13.995 -0.1418 -0.1142  0.2205
22795W        W26015   0.437   3.063   8.748  0.1269 -0.1421  0.3342
22796W        W26016   9.172   8.278   6.958  0.0054 -0.0369  0.1181
22797W        W26017  10.109   9.734   9.375 -0.1274  0.1711 -0.3442
22798W        W26018  11.818   7.869  15.881 -0.0058  0.0514 -0.0184
22799W        W26019   9.377   3.306  15.940  0.1432 -0.0094 -0.0581
22800W        W26020  11.823   2.947   6.060  0.0602  0.0218  0.1400
22801W        W26021  10.154   4.027   4.883  0.4038  0.2925 -0.1539
22802W        W26022  11.947  18.221   0.265  0.1434 -0.1620  0.3759
22803W        W26023  11.431   6.677   0.190  0.0285  0.0820  0.0650
22804W        W26024   6.331   5.108  12.043 -0.1983 -0.1275  0.0314
22805W        W26025   6.009  12.287  14.868 -0.2344 -0.0365 -0.1731
22806W        W26026   1.846   8.800  10.551 -0.1989  0.1816 -0.0366
22807W        W26027  12.644   6.171  11.284  0.1995 -0.0559  0.3109
22808W        W26028   8.793   9.631  15.276  0.0296 -0.5078 -0.0707
22809W        W26029  10.345   1.183  12.027  0.1290  0.0753  0.0111
22810W        W26030  16.919   7.479  12.506  0.1959  0.1441  0.5683
22811W        W26031   9.700   7.153  10.591  0.1027 -0.1365  0.0385
22812W        W26032   4.652   2.448   5.814  0.1909  0.2207  0.0435
22813W        W26033  12.018  11.034  10.848 -0.1709 -0.0668  0.1132
22814W        W26034   5.206   0.666  11.012  0.0839 -0.0980 -0.1639
22815W        W26035  14.219   7.407   7.023 -0.2876 -0.2672 -0.0994
22816W        W26036   9.728   4.226  10.676 -0.1249  0.2765  0.0109
22817W        W26037  14.015   9.691  10.512 -0.1499 -0.0935  0.0078
22818W        W26038  16.706   1.377  10.933  0.1198 -0.0645 -0.3590
22819W        W26039   7.174   2.764   6.447 -0.1668 -0.0326 -0.1727
22820W        W26040  17.758   4.142  11.016  0.2246 -0.1946  0.0291
22821W        W26041   3.829   1.684   8.530  0.0397 -0.2626 -0.0890
22822W        W26042   2.491  10.376   7.843  0.0348 -0.2528  0.3251
22823W        W26043  15.753  10.246  13.760 -0.1945 -0.0984 -0.1755
22824W        W26044   8.722   6.256   7.022  0.0769 -0.2451  0.1606
22825W        W26045  10.098  12.617   8.402 -0.0708 -0.1460  0.1269
22826W        W26046   1.760  14.921  16.983 -0.2377 -0.0961 -0.0288
22827W        W26047   5.964   0.081   5.864  0.0717 -0.4073 -0.0133
22828W        W26048  11.175   3.661   9.478  0.0261  0.2540 -0.1200
22829W        W26049   8.816   2.355   8.478  0.0367  0.1631  0.2278
22830W        W26050   5.500   4.030   5.691 -0.1090  0.0412  0.3178
22831W        W26051  12.178   6.631  10.069 -0.1602 -0.0092 -0.0431
22832W        W26052  13.410  17.307  11.028  0.0712 -0.0531 -0.1339
22833W        W26053   3.419   3.978   7.602  0.0324 -0.3998 -0.3314
22834W        W26054   0.729  17.932  14.526 -0.0593  0.0048 -0.1495
22835W        W26055  15.965   1.645   6.952  0.1642  0.0672 -0.0574
22836W        W26056  11.685   5.964   6.391 -0.1615  0.1616 -0.0097
22837W        W26057  12.510   3.366  12.267 -0.3202  0.0157 -0.0892
22838W        W26058  10.281  11.768   9.322 -0.0734 -0.1614  0.0405
22839W        W26059  15.946   9.754  15.741 -0.1693  0.0254 -0.1091
22840W        W26060  14.634   3.536   8.657 -0.0853 -0.1922 -0.0911
22841W        W26061  13.460   3.190  13.482  0.0678 -0.0146 -0.2767
22842W        W26062  11.940   3.281   3.516 -0.1181  0.0564  0.0017
22843W        W26063   5.369   5.335  14.467  0.0657 -0.1040 -0.0480
22844W        W26064  13.702  13.673  10.430 -0.0903  0.1061 -0.1825
22845W        W26065   6.558   7.035  14.771  0.0176  0.2659 -0.0484
22846W        W26066   8.577  10.156   6.433  0.1277  0.0736  0.1283
22847W        W26067   7.196   7.871  13.274 -0.3068  0.1718 -0.1745
22848W        W26068   5.906   5.660  17.471  0.1885  0.2001 -0.2275
22849W        W26069   5.429  17.902   7.056 -0.2719 -0.2030  0.0929
22850W        W26070  13.239  15.627   6.372  0.0779  0.0965 -0.0049
22851W        W26071   6.974   4.533   9.354  0.0589  0.4329 -0.2387
22852W        W26072   7.911  17.650   1.977 -0.1663  0.1297  0.0948
22853W        W26073   5.872   1.046   7.406  0.1244  0.4015  0.1441
22854W        W26074  16.295   6.860  10.704  0.2439  0.1747 -0.2994
22855W        W26075  14.146   3.799  13.598 -0.0790 -0.0746 -0.1126
22856W        W26076  10.072   9.896  10.248  0.1332  0.1330 -0.1058
22857W        W26077  10.919  15.867  14.580  0.1623 -0.2964 -0.2334
22858W        W26078   5.591   4.809   0.342 -0.2686  0.0304  0.1096
22859W        W26079  10.324  10.962   8.024 -0.0275 -0.1856 -0.1190
22860W        W26080  13.034   1.779   6.924  0.0509  0.0723  0.1388
22861W        W26081  16.827   9.795  10.524  0.3781 -0.1237  0.1783
22862W        W26082  17.539  11.031   9.069 -0.0550  0.1553  0.1481
22863W        W26083  11.415  12.092  11.972  0.1159 -0.1583  0.0921
22864W        W26084  11.122   5.842   9.911  0.1308  0.2291  0.0296
22865W        W26085  11.359   7.773   5.252  0.1308 -0.1132 -0.1765
22866W        W26086   6.397   9.305  16.363  0.1967  0.1887  0.1340
22867W        W26087   1.878   0.183  16.341 -0.2901  0.0650  0.2700
22868W        W26088  10.646   8.393  12.994 -0.0487 -0.2491 -0.1283
22869W        W26089   9.729  10.942  14.843 -0.0178  0.4424 -0.2059
22870W        W26090   8.450  12.886   8.842 -0.0531  0.0727 -0.0538
22871W        W26091  10.572  12.100  10.085 -0.1715  0.1932 -0.0782
22872W        W26092  11.350  17.583  14.380 -0.1574 -0.1462  0.2262
22873W        W26093  11.426   8.478   9.843 -0.1103 -0.1682  0.1956
22874W        W26094   8.344   2.521  16.241  0.0038 -0.2364  0.2148
22875W        W26095   7.125   1.861  16.256 -0.0947  0.0559 -0.2095
22876W        W26096   8.835   9.348  11.005  0.1773  0.0631 -0.3217
22877W        W26097  12.952   3.432  13.614 -0.2492  0.0131 -0.0974
22878W        W26098  14.102   2.304   8.924 -0.1342 -0.0359 -0.1974
22879W        W26099  13.066   3.881  12.814  0.1006 -0.0052 -0.2045
22880W        W26100   5.591  14.692  12.638 -0.0436 -0.0395  0.3768
22881W        W26101   4.454   6.478  15.507 -0.0058 -0.2043 -0.0601
22882W        W26102   3.219   5.412   7.183  0.0407  0.0109  0.1424
22883W        W26103   3.958   8.249  13.914 -0.0875 -0.0950  0.2793
22884W        W26104   1.950   9.506  12.023 -0.1090  0.1232 -0.1489
22885W        W26105  15.287   9.652  12.595 -0.1522 -0.3364  0.3277
22886W        W26106  15.045   7.028  10.969  0.1812  0.1645  0.1519
22887W        W26107   7.533   5.501  16.758 -0.1368 -0.2086  0.0033
22888W        W26108  15.747  10.677   9.596  0.5435  0.1090 -0.3254
22889W        W26109   8.554  14.751   5.948  0.1930 -0.1362 -0.2112
22890W        W26110   6.244  17.627  16.635 -0.0116 -0.1157  0.1139
22891W        W26111  11.090   6.840  11.916 -0.0532 -0.0298  0.2973
22892W        W26112   8.480   1.217  16.880 -0.2705  0.1109  0.2133
22893W        W26113  10.851   0.823  15.809 -0.1863 -0.2540 -0.0398
22894W        W26114   1.037  17.253  17.853 -0.1061 -0.0559 -0.2629
22895W        W26115  13.294   9.497  13.872  0.0443 -0.0938 -0.0642
22896W        W26116  11.407  10.459  14.263  0.1173  0.0171  0.3887
22897W        W26117  13.414   9.930  14.091 -0.0646  0.0970  0.1782
22898W        W26118   6.531   8.411  10.024  0.0499 -0.0853 -0.0218
22899W        W26119  14.250   4.038  11.173  0.3069  0.1644 -0.0648
22900W        W26120  14.420   1.565  16.253  0.2582  0.1260  0.1895
22901W        W26121  12.470  16.164   9.615 -0.2067 -0.0232  0.2165
22902W        W26122   5.429   2.864  15.767  0.0913  0.3222 -0.0856
22903W        W26123  16.472  18.025   1.325  0.1490 -0.2847 -0.3087
22904W        W26124   7.268   3.128  11.117  0.0048 -0.1790 -0.0625
22905W        W26125   3.400   0.761  14.902 -0.2860 -0.1109 -0.0594
22906W        W26126  10.994   3.985  16.465 -0.0416  0.2134 -0.0589
22907W        W26127  16.176  15.214  10.532  0.1986  0.0776 -0.3781
22908W        W26128   9.640  17.631  16.592  0.0245  0.3382  0.3729
22909W        W26129  10.260   0.971  14.738  0.0228  0.1911 -0.3189
22910W        W26130   9.502   9.925   9.207  0.0742 -0.0609 -0.4130
22911W        W26131  10.932   7.539  16.487  0.1833  0.0637  0.0074
22912W        W26132   6.283   5.133   5.332  0.1522  0.0619  0.0484
22913W        W26133  16.933   8.901   0.975 -0.2180 -0.1187  0.1677
22914W        W26134  13.630   9.775   7.342 -0.0260  0.2322 -0.1111
22915W        W26135  11.362   6.831  16.646  0.0147 -0.0282 -0.0147
22916W        W26136  10.331   1.434  18.144  0.0099 -0.0586 -0.1052
22917W        W26137   5.743   5.740   4.303 -0.1546 -0.1709 -0.0691
22918W        W26138   7.278   1.259   2.818  0.1049 -0.2535  0.2282
22919W        W26139   8.660  17.593  14.651 -0.3134  0.1085  0.0496
22920W        W26140   7.720   6.517   9.606 -0.3571  0.1784  0.0991
22921W        W26141   4.691   5.063  16.818  0.0044 -0.0295 -0.3837
22922W        W26142   3.512   4.394   3.004  0.1769  0.2999 -0.0848
22923W        W26143   8.990   4.578  16.453  0.2492  0.0487  0.0291
22924W        W26144   7.618   7.358  15.681 -0.2815  0.3694  0.1038
22925W        W26145   9.847   4.638  15.405 -0.0827 -0.1363 -0.2008
22926W        W26146  12.912   2.808  11.814  0.1331 -0.0569  0.1027
22927W        W26147  12.488   8.992  13.373 -0.1916  0.0050 -0.1379
22928W        W26148   1.736   2.334   5.351 -0.0374  0.2379 -0.0813
22929W        W26149   9.409   4.645  16.721  0.0295  0.1754 -0.0736
22930W        W26150   1.639   5.357  16.174 -0.2362 -0.2253 -0.1286
22931W        W26151  13.753   5.733   0.922 -0.1465  0.0283 -0.1038
22932W        W26152   8.966   4.973   1.520  0.0804 -0.1154  0.1064
22933W        W26153   4.901  13.184  14.269  0.1580 -0.2259  0.2527
22934W        W26154   8.808   6.672  18.013 -0.1132  0.0365 -0.0043
22935W        W26155  12.414   4.982  10.980  0.1565 -0.3069  0.0460
22936W        W26156  11.513  10.014  12.073  0.0036  0.0928 -0.0227
22937W        W26157  11.207   8.339  10.840  0.3735  0.1851 -0.2378
22938W        W26158   5.315   1.932  12.522  0.0727 -0.0340 -0.3133
22939W        W26159   5.184   3.982  18.091 -0.0949  0.0562  0.0968
22940W        W26160   9.512   8.292  17.341 -0.0995  0.0146  0.0875
22941W        W26161  12.621   7.100  12.608 -0.0468 -0.2203  0.0423
22942W        W26162   8.999  11.229   9.064  0.0653 -0.0097  0.3573
22943W        W26163   6.681   2.595  14.029 -0.0253  0.0647  0.1260
22944W        W26164   4.138  10.308   8.522  0.1389  0.1478 -0.1777
22945W        W26165   9.109   3.486   5.496 -0.1378 -0.0523  0.0517
22946W        W26166   7.031  16.800  17.927  0.0184 -0.1182  0.0874
22947W        W26167   1.633   4.906  17.222  0.1162 -0.0163  0.3984
22948W        W26168  11.634   0.497  12.343 -0.2100 -0.2379  0.0380
22949W        W26169  13.583  13.112   9.482  0.0522 -0.3626  0.0235
22950W        W26170  10.412  17.823  15.678  0.1838 -0.3084  0.3078
22951W        W26171  14.026   4.881   7.757  0.2431  0.1203  0.0084
22952W        W26172   2.653  12.597  12.278 -0.1177 -0.1995  0.1053
22953W        W26173  12.168   8.663  13.505  0.2814  0.0530  0.1388
22954W        W26174  15.155   3.904   0.520  0.1280  0.4256  0.0702
22955W        W26175   6.360   4.436   7.928 -0.3118 -0.1323 -0.1942
22956W        W26176  11.391   9.598  10.342 -0.1449 -0.1822  0.0824
22957W        W26177   5.174   4.860  17.717  0.1051 -0.0929 -0.0408
22958W        W26178   3.582   9.230   2.857 -0.2320 -0.0476  0.2930
22959W        W26179  10.022   3.738  16.704  0.0483 -0.2814  0.0777
22960W        W26180   7.485   7.264  16.216 -0.0209  0.2086 -0.0571
22961W        W26181   4.294   3.342  10.854  0.0282  0.1420 -0.1100
22962W        W26182  12.961  16.463  12.115 -0.0148  0.0014  0.3013
22963W        W26183   3.719   7.580  17.593 -0.0355 -0.0762  0.1257
22964W        W26184  10.229  10.773  10.469  0.0027  0.2921  0.1457
22965W        W26185  13.380   5.534   0.530 -0.2211 -0.2820 -0.1813
22966W        W26186   7.260   7.628  10.522  0.1305  0.0419  0.2843
22967W        W26187  12.029   7.468   6.750 -0.0538  0.2549 -0.1125
22968W        W26188  11.177  13.276   6.904  0.4188  0.0442 -0.2100
22969W        W26189   8.528   5.158  14.877  0.1142  0.2418  0.0348
22970W        W26190  12.128   6.117  11.370 -0.0125  0.1898 -0.0962
22971W        W26191   6.520   3.142   9.361 -0.0927  0.1022 -0.0734
22972W        W26192   9.846   6.294  14.262 -0.2412  0.2717  0.0844
22973W        W26193  11.508   0.980  13.063  0.1141  0.1652 -0.1361
22974W        W26194   6.852   4.025   9.678  0.1119 -0.1662 -0.1186
22975W        W26195  12.670   3.487  16.672 -0.1230 -0.0032 -0.0953
22976W        W26196   4.919   6.374  12.188 -0.3488  0.0488  0.2588
22977W        W26197  13.702   1.413  16.240  0.2460  0.0780  0.0739
22978W        W26198  12.358   4.318  17.973 -0.2541 -0.0971 -0.0062
22979W        W26199   5.543   8.319  16.086 -0.2806  0.0725 -0.0346
22980W        W26200  11.174   7.126  18.178 -0.2658  0.2876  0.3135
22981W        W26201  11.789   7.173  12.540  0.1363 -0.1058 -0.2045
22982W        W26202   4.289   2.050   3.791 -0.0517 -0.0389  0.0909
22983W        W26203   8.512   7.510  16.421  0.1263 -0.3795 -0.1471
22984W        W26204   4.450  14.351  12.096 -0.0069 -0.2918 -0.1017
22985W        W26205  14.857  17.333  15.322 -0.2493  0.1535 -0.0761
22986W        W26206  10.350   3.765  15.360  0.2814 -0.1280  0.1442
22987W        W26207  15.033  13.722  14.378  0.2320  0.1621  0.1676
22988W        W26208  12.311   0.437  11.223 -0.0645 -0.2615  0.0488
22989W        W26209   0.386   0.217  10.212 -0.2306 -0.0209 -0.2389
22990W        W26210  11.554   7.728  12.423 -0.2158  0.0771 -0.0124
22991W        W26211   4.327   8.171   8.715 -0.3079 -0.4354  0.0398
22992W        W26212  15.448  16.411   6.471  0.0262  0.1536  0.1557
22993W        W26213  11.980   5.620   1.736  0.3145  0.3269 -0.2150
22994W        W26214  14.916   8.257  15.174 -0.0760  0.1499 -0.1943
22995W        W26215   6.621  18.144  17.864  0.0992  0.1218  0.0785
22996W        W26216   4.060   9.638   7.308 -0.1169  0.3043 -0.2767
22997W        W26217   9.788   8.601  13.908 -0.0451 -0.0048  0.1087
22998W        W26218   6.353   9.898  16.029 -0.0521  0.0890  0.0535
22999W        W26219   6.627   3.937  15.870  0.3951  0.1110 -0.2553
23000W        W26220  15.749  10.880  17.405  0.0188 -0.2869 -0.0015
23001W        W26221   0.164   8.379  17.613 -0.0995 -0.2960 -0.3908
23002W        W26222  13.710   1.513  17.073 -0.1730 -0.2114  0.0323
23003W        W26223  13.027  11.433  18.048 -0.1582 -0.0415 -0.3012
23004W        W26224  10.243   4.267  13.782 -0.1518  0.1874  0.1728
23005W        W26225  11.717   4.052  12.912 -0.0854 -0.4195  0.2457
23006W        W26226   6.175  16.423  16.915  0.2841 -0.1317 -0.0864
23007W        W26227  10.245   6.853  13.587 -0.2404 -0.1878  0.0729
23008W        W26228  12.742   7.893  14.431  0.0258  0.2745  0.3284
23009W        W26229   5.163   1.991   9.529  0.2428 -0.2866  0.0096
23010W        W26230   5.927   8.658  15.800  0.1209 -0.3894  0.3345
23011W        W26231  13.043  10.379   9.421 -0.2032  0.0830  0.1344
23012W        W26232  11.568   8.385  11.937 -0.1165 -0.0680  0.1267
23013W        W26233   8.818   8.133  13.847  0.3938  0.0256  0.0202
23014W        W26234   8.985   4.069  11.459  0.0436  0.1399  0.0847
23015W        W26235  13.923   7.684  17.207 -0.1328 -0.2004 -0.1067
23016W        W26236   8.707   0.099   9.101 -0.0995 -0.2748 -0.1431
23017W        W26237   5.495   7.936  13.645 -0.0654 -0.1661  0.0932
23018W        W26238  12.413   8.290   8.977 -0.0646  0.0720  0.4546
23019W        W26239   9.254   2.743  12.055 -0.2838  0.2358  0.0188
23020W        W26240   2.029   1.603  12.581  0.1352 -0.0864  0.2654
23021W        W26241  10.320   2.534  17.316  0.0784 -0.0074  0.1867
23022W        W26242   4.053   3.220  16.652 -0.0106 -0.1160 -0.1115
23023W        W26243  17.932   3.479  16.174 -0.2603 -0.1689 -0.0434
23024W        W26244  15.791   3.135   9.068  0.1188 -0.0548  0.0600
23025W        W26245  15.728   5.711   8.886 -0.0506  0.1844  0.0162
23026W        W26246   4.917   3.535   2.122 -0.1847  0.4210  0.1942
23027W        W26247   5.747   1.773  11.527 -0.3683  0.2916 -0.0031
23028W        W26248   5.233   7.086  11.750  0.3941  0.3691 -0.0302
23029W        W26249   8.490  13.350  13.872 -0.0373  0.0836 -0.0718
23030W        W26250  11.845   3.500  11.134  0.2411  0.0696 -0.2042
23031W        W26251   1.105   2.889   1.903 -0.0042  0.0098  0.0870
23032W        W26252   3.567   6.143   7.491 -0.1013  0.1902  0.0322
23033W        W26253   5.682  18.122   5.479 -0.0695  0.1273 -0.2945
23034W        W26254  15.158  10.909  15.861  0.2871 -0.1316  0.3884
23035W        W26255   4.623   0.480   9.931  0.1241 -0.3822  0.3125
23036W        W26256   8.815   2.166  11.463  0.1560  0.2001  0.1696
23037W        W26257   9.992  17.550  11.059 -0.1554  0.1747  0.0381
23038W        W26258  16.745   3.103   4.492 -0.1286 -0.2573  0.2247
23039W        W26259   7.001   1.112   7.961 -0.4532 -0.2120 -0.0423
23040W        W26260  11.284   9.356   0.086 -0.0595 -0.0845 -0.0987
23041W        W26261   9.711   1.338   1.109  0.0971  0.0127  0.1396
23042W        W26262  11.794  12.542   1.655  0.2941  0.5090 -0.2364
23043W        W26263  13.583  10.659  14.647 -0.1050  0.1438  0.0022
23044W        W26264   6.144   4.456  17.904 -0.0396 -0.0428 -0.1699
23045W        W26265  13.024   4.796   0.722  0.0144  0.0481  0.2250
23046W        W26266   8.343   6.234   4.138 -0.1186 -0.1646 -0.3063
23047W        W26267  17.232  12.125   3.688  0.0672  0.0050 -0.0862
23048W        W26268   5.674   2.780  12.690  0.2075 -0.0236 -0.0592
23049W        W26269   9.228   9.522   9.209 -0.0601  0.2689  0.0664
23050W        W26270  11.925   2.359  13.513 -0.1580  0.2060  0.1832
23051W        W26271   9.902  10.126   9.754 -0.0362 -0.0942 -0.3541
23052W        W26272   2.097   3.024   5.829  0.1555 -0.2352  0.2281
23053W        W26273   3.025   0.339  16.222 -0.1321 -0.0034  0.3723
23054W        W26274   1.436   3.886   9.281  0.0530 -0.1867 -0.0771
23055W        W26275  10.354  11.298  10.702 -0.1350  0.3907  0.1366
23056W        W26276   5.523   1.802   8.394  0.2101 -0.3437  0.0449
23057W        W26277  10.355   0.805  13.762  0.2179  0.0637 -0.0768
23058W        W26278   7.376   9.968  13.614  0.0981  0.2733 -0.1270
23059W        W26279   2.091   3.889  12.951  0.0673  0.0523 -0.0940
23060W        W26280   4.568   2.589  12.651 -0.2625 -0.0854 -0.1152
23061W        W26281   4.877   7.966  14.202 -0.0101 -0.2237  0.1947
23062W        W26282   5.170   8.013  16.276  0.1752  0.0207 -0.3176
23063W        W26283   8.123   2.570   5.307  0.0002 -0.1800 -0.2557
23064W        W26284   0.759  10.340  10.838 -0.3010 -0.0404  0.3783
23065W        W26285  12.444   3.404  10.305  0.3177  0.0479  0.1379
23066W        W26286  12.055   4.041  15.262  0.2284  0.1397 -0.1703
23067W        W26287   7.153  13.678  11.238 -0.0340 -0.1347 -0.2118
23068W        W26288  15.311   3.071  10.306 -0.2859  0.0781  0.3005
23069W        W26289   9.374  17.079  12.505  0.0527  0.0894 -0.0416
23070W        W26290   4.690   2.578  16.821 -0.1884 -0.0118  0.0709
23071W        W26291   7.756   6.125  14.977 -0.0689 -0.0922 -0.1164
23072W        W26292   8.171  13.022  13.574  0.4468 -0.0977 -0.0306
23073W        W26293   7.813   4.009   7.696  0.0240 -0.1341 -0.3893
23074W        W26294   2.104   3.841   8.471 -0.0109 -0.3115  0.2431
23075W        W26295  11.466  15.581  12.788 -0.1693  0.0818 -0.2018
23076W        W26296   8.944   1.473   6.454 -0.1244  0.1503 -0.1643
23077W        W26297   0.082   5.259  10.569  0.2590  0.1767 -0.1333
23078W        W26298  11.841   4.102  11.805  0.3333 -0.3619 -0.3239
23079W        W26299   8.244   8.855  16.595  0.0823 -0.0738 -0.0186
23080W        W26300   8.725   7.179   8.189 -0.2840  0.1453  0.4024
23081W        W26301   8.809   6.697  14.048 -0.0459 -0.0842 -0.0363
23082W        W26302   9.363   9.368  14.025 -0.2329 -0.1193 -0.1964
23083W        W26303   7.362   2.117  14.478  0.2087 -0.1510  0.0229
23084W        W26304   9.762   3.066  15.106  0.1113 -0.0591  0.4298
23085W        W26305  13.884  14.865  10.103 -0.1634  0.1526 -0.1088
23086W        W26306   0.416   4.737  18.091 -0.2602  0.0756 -0.1676
23087W        W26307  17.713   7.151  11.228 -0.2486 -0.0146 -0.0721
23088W        W26308   4.417   6.244  13.246  0.0214  0.1153  0.0932
23089W        W26309   7.245  15.785  15.642 -0.1646 -0.3217  0.0354
23090W        W26310   8.098   2.761   6.746  0.2822 -0.1769 -0.0085
23091W        W26311  10.245   2.035  12.477 -0.2051  0.1593 -0.0545
23092W        W26312   0.519   5.968   0.864 -0.0840  0.0413 -0.0859
23093W        W26313   9.989  10.916  16.908  0.1061 -0.0872  0.0862
23094W        W26314  10.885  14.239  16.157 -0.0234 -0.1155  0.0368
23095W        W26315   4.080   2.511  14.215  0.1594  0.1889 -0.1659
23096W        W26316   6.513   4.624  12.545 -0.0953  0.2740  0.2205
23097W        W26317  14.039   2.816  13.310 -0.2075  0.3891  0.0271
23098W        W26318   2.006  17.408  12.759  0.0835  0.2158  0.0302
23099W        W26319   9.710  10.594  15.194  0.0557  0.0594  0.1964
23100W        W26320  11.080   2.071  14.186 -0.0977  0.0729 -0.2405
23101W        W26321  15.034   2.990  16.159  0.3968  0.2663 -0.2217
23102W        W26322  14.245   7.946  17.571  0.0105  0.0295  0.2261
23103W        W26323  15.562   6.926   4.341 -0.2096 -0.1182 -0.3391
23104W        W26324  11.560   6.784  16.112 -0.2112 -0.1538 -0.0251
23105W        W26325   0.791  11.096  18.155 -0.2580  0.2409  0.0643
23106W        W26326   6.813  14.863  12.128  0.2035  0.0453  0.4788
23107W        W26327   3.741   2.297   4.579 -0.0573  0.1165 -0.2147
23108W        W26328   9.911   6.519  16.069  0.2747  0.1185  0.0274
23109W        W26329  11.571   5.309   8.044  0.3283  0.3415 -0.0176
23110W        W26330  12.542   8.492   2.671  0.1218 -0.0216 -0.0844
23111W        W26331  16.021   3.948  16.060 -0.0275 -0.0863 -0.1495
23112W        W26332  14.721   4.356   0.333 -0.1884 -0.2119  0.2424
23113W        W26333   1.521   5.719   2.637 -0.1150 -0.1166  0.0488
23114W        W26334  15.313   4.586   9.752  0.0090  0.1363 -0.2214
23115W        W26335   1.656   2.667  17.546 -0.2759 -0.1179 -0.0340
23116W        W26336  16.017   0.500  10.630  0.4462  0.2241 -0.1441
23117W        W26337   8.201   0.903  15.786  0.2676  0.0006  0.2599
23118W        W26338   5.344   3.151  10.213 -0.0722  0.0630 -0.1981
23119W        W26339  13.713   3.569  14.894 -0.3843 -0.2577  0.0545
23120W        W26340  15.120   7.950  13.524 -0.2680 -0.0729 -0.0204
23121W        W26341   5.309   6.002   9.390 -0.0899  0.0459 -0.0031
23122W        W26342   7.622   4.626  14.661  0.0065 -0.2676 -0.0982
23123W        W26343  12.666   0.300   2.843 -0.0232  0.0298  0.2412
23124W        W26344   4.750   3.516  11.212 -0.3575  0.0121  0.1157
23125W        W26345  16.735   3.078  15.467 -0.2174 -0.3655 -0.1982
23126W        W26346  12.273  10.470  13.975 -0.1298 -0.0937 -0.2914
23127W        W26347   4.675   2.955   8.566 -0.0950  0.1116 -0.1639
23128W        W26348   1.987   4.106  12.210 -0.0268 -0.4987 -0.0670
23129W        W26349   0.168  12.428   0.804  0.0355 -0.1186 -0.1719
23130W        W26350  10.689   3.816  12.785  0.0264  0.1213  0.0517
23131W        W26351   7.466   6.206   9.969 -0.0081 -0.0116  0.1067
23132W        W26352   2.509   4.817   1.230 -0.2174 -0.0445  0.0605
23133W        W26353   6.097   0.888  12.532 -0.0147  0.0826 -0.0519
23134W        W26354   0.403   8.522  13.895  0.0477  0.1365 -0.0067
23135W        W26355  12.554   1.341  15.787 -0.0628 -0.2563 -0.0301
23136W        W26356  16.942   8.459  11.306 -0.2033 -0.1235  0.0003
23137W        W26357   7.449   4.060   7.351 -0.1774  0.0319  0.3358
23138W        W26358   0.947   8.061   8.386 -0.0426 -0.0008  0.2242
23139W        W26359  10.106   7.217  13.308 -0.1318  0.0037 -0.2758
23140W        W26360   4.301   0.223  16.344 -0.0967 -0.1433  0.0662
23141W        W26361   9.634   7.521   7.481  0.1764  0.0091 -0.0962
23142W        W26362   7.974  13.771  12.447 -0.1812  0.2322 -0.2992
23143W        W26363   3.287  13.171  18.036  0.0887  0.0281 -0.1680
23144W        W26364  14.320   4.849  16.570 -0.0196  0.1026 -0.0928
23145W        W26365   3.949   3.352  10.011  0.0591  0.1922  0.0732
23146W        W26366   9.370   7.406  17.847  0.2923  0.0389 -0.2201
23147W        W26367  12.021   3.476   1.427 -0.3292  0.1174  0.1616
23148W        W26368  14.977   3.264   9.747  0.0055 -0.0521 -0.2425
23149W        W26369   5.842   5.142  15.774  0.0633 -0.2547 -0.0778
23150W        W26370   8.102   7.981  13.607 -0.0050 -0.0685  0.3950
23151W        W26371  15.229   4.921   6.887 -0.2173 -0.0951 -0.0748
23152W        W26372  12.201   1.814   8.731  0.1337 -0.0243  0.0305
23153W        W26373  14.049   8.497   9.238  0.1502 -0.1098 -0.0750
23154W        W26374  12.446   5.037  12.272  0.0272 -0.1389 -0.3009
23155W        W26375  11.041   3.833   8.966 -0.0428 -0.1500  0.1589
23156W        W26376  15.289  17.209  16.829 -0.0914 -0.3275 -0.0199
23157W        W26377   7.643  16.028  12.601  0.1485  0.3029  0.2192
23158W        W26378  10.927   8.679  16.479  0.1087  0.2030  0.1543
23159W        W26379   7.146   5.540  12.942  0.0122  0.0395 -0.1995
23160W        W26380   8.238   1.580  16.686 -0.0963  0.0564  0.2474
23161W        W26381  17.112   8.767  18.237  0.0646 -0.1644  0.1969
23162W        W26382  11.741   1.401  11.685 -0.0657  0.1998 -0.0506
23163W        W26383   8.798   6.057   4.279  0.5291 -0.1065 -0.2679
23164W        W26384   9.589   7.910  11.158  0.0342  0.3887  0.0784
23165W        W26385   4.327   9.593  16.861  0.0857  0.1509 -0.1222
23166W        W26386   8.191   3.420  16.578 -0.0022  0.1196  0.0867
23167W        W26387   4.969   2.669  15.838 -0.1622  0.4855 -0.0975
23168W        W26388   9.815   4.647  11.184  0.3089  0.2448 -0.1038
23169W        W26389  11.925   8.805   1.833 -0.3125 -0.2107 -0.1637
23170W        W26390   8.718   6.045   3.094  0.1808  0.1823 -0.3866
23171W        W26391   7.811  15.228   7.568 -0.4178 -0.3930  0.0747
23172W        W26392   8.746   7.156  10.416 -0.0495 -0.0024  0.1176
23173W        W26393   7.753   4.198   0.180 -0.2934  0.1950 -0.2228
23174W        W26394  10.885   6.982  14.292 -0.1415  0.2292 -0.0025
23175W        W26395   9.331   3.111  14.103 -0.1943 -0.0052  0.1160
23176W        W26396   6.567  10.814  12.807  0.0537 -0.2678  0.2082
23177W        W26397  12.074   1.325  10.432 -0.1037  0.2625  0.0949
23178W        W26398   6.998   2.238  17.937 -0.2024 -0.0035 -0.1984
23179W        W26399   6.280   7.502  16.433  0.1414  0.1324 -0.2436
23180W        W26400   6.883   2.782  10.372 -0.0498 -0.3160 -0.1220
23181W        W26401  11.486   5.068  11.825  0.0766  0.1047  0.0901
23182W        W26402   6.685  11.607  10.923 -0.0122  0.1295 -0.0265
23183W        W26403   3.450   5.399   8.487 -0.1003 -0.0930  0.0352
23184W        W26404   9.568   8.126   4.457 -0.0060 -0.0672  0.1629
23185W        W26405   5.452   2.333  13.703 -0.2860  0.0198  0.3337
23186W        W26406   9.680   2.987  11.979 -0.0863 -0.1494 -0.1198
23187W        W26407  15.141   3.262  10.698 -0.0366  0.2801 -0.2538
23188W        W26408  10.484   2.723   1.882  0.0435 -0.0727 -0.0113
23189W        W26409   7.363   3.612  15.651 -0.0566 -0.2694  0.1557
23190W        W26410   7.061  17.088  15.195 -0.0517  0.1040  0.0569
23191W        W26411  11.421   2.594   9.524  0.1129 -0.2982  0.2061
23192W        W26412  10.136   5.823  16.045 -0.1073 -0.0568  0.1854
23193W        W26413  10.556   2.878   6.688  0.1940 -0.1032 -0.0590
23194W        W26414  11.115   2.946  11.224 -0.1109  0.2047  0.2351
23195W        W26415  11.985   5.564  13.044  0.1462  0.1389  0.0145
23196W        W26416   8.335  17.880  17.042 -0.1119  0.0954 -0.2429
23197W        W26417   7.513   3.430  13.576 -0.0907  0.1437  0.0454
23198W        W26418   9.450   6.729  14.012  0.0170 -0.0757 -0.2830
23199W        W26419   5.324  12.220  11.517  0.0279  0.0127 -0.2399
23200W        W26420   7.683  10.355   0.153  0.3401  0.0531  0.0382
23201W        W26421  15.992  17.238   1.400 -0.0797 -0.1720  0.0460
23202W        W26422  15.001   4.283  16.558 -0.1077 -0.0206  0.1717
23203W        W26423  11.778   3.196  16.410 -0.1851  0.2134 -0.1504
23204W        W26424   7.293   7.641  15.048  0.1399  0.0991 -0.0105
23205W        W26425  10.348   5.536  13.574 -0.1057 -0.1995  0.2139
23206W        W26426  11.728   0.845  15.504  0.0137 -0.0735  0.1724
23207W        W26427   8.714   7.645  10.681 -0.2406 -0.2424  0.1575
23208W        W26428   7.889   5.840   1.096  0.0451 -0.2026 -0.0033
23209W        W26429  14.896   3.322   7.291 -0.1823  0.1804 -0.1402
23210W        W26430  10.955  18.104   5.328  0.1676 -0.0194 -0.0159
23211W        W26431   8.350   3.635   7.350  0.0681 -0.1593 -0.0814
23212W        W26432   5.176   1.434  18.161  0.1022  0.1608 -0.1017
23213W        W26433   5.431   9.325  13.385  0.0133 -0.3421  0.1634
23214W        W26434  12.414   2.768  16.162 -0.2481  0.1775  0.0864
23215W        W26435   4.788  16.627   6.692  0.1757 -0.1647 -0.0071
23216W        W26436  11.035  16.856  14.443 -0.1247 -0.2127  0.0939
23217W        W26437  11.231   7.489  15.353  0.2019  0.1118 -0.0330
23218W        W26438  10.265   8.849  14.754  0.2469  0.1925 -0.1587
23219W        W26439  12.068   1.013   6.511  0.0830  0.2625  0.0657
23220W        W26440  11.455  13.594  12.373  0.0951 -0.2208 -0.2102
23221W        W26441   9.013   7.757  16.575  0.0881  0.0732  0.2624
23222W        W26442  10.702   3.633   1.553 -0.0367 -0.0638  0.1718
23223W        W26443   5.820   8.491  17.239 -0.2204  0.0286 -0.0819
23224W        W26444   8.601   8.626  11.360  0.0753 -0.0715  0.1691
23225W        W26445   4.605   9.100  17.048 -0.0173 -0.2990 -0.0727
23226W        W26446   8.306   6.530  17.743 -0.2325  0.0365 -0.2150
23227W        W26447  14.656   3.570   5.629 -0.0717  0.3336  0.0733
23228W        W26448   6.148   9.815  11.742 -0.3446 -0.4300  0.0147
23229W        W26449  14.566   7.149  17.729 -0.4384  0.1081  0.0786
23230W        W26450   7.677  18.214  10.236 -0.2995  0.2282  0.3585
23231W        W26451   6.931   7.905  15.743  0.0271  0.2749 -0.1055
23232W        W26452  12.783   4.607  13.695  0.1457  0.2502  0.4223
23233W        W26453  12.568   3.657  14.088 -0.2454  0.5478 -0.0407
23234W        W26454   0.917  18.086  17.428 -0.2403 -0.4020 -0.1323
23235W        W26455  12.421   8.474   9.989  0.2832 -0.0611 -0.1615
23236W        W26456  15.361  17.331   0.926 -0.3413 -0.0802 -0.1185
23237W        W26457   8.709   7.453  16.924  0.0440  0.1417 -0.0479
23238W        W26458  11.100   6.880  11.370 -0.1525  0.1581 -0.2561
23239W        W26459  12.588   4.342  14.773  0.0290  0.0690 -0.2589
23240W        W26460  17.878   6.212  13.135  0.2929  0.2242  0.0164
23241W        W26461  13.293   7.901   2.699 -0.0162  0.3226  0.0757
23242W        W26462   7.148   6.469  16.175  0.1415 -0.1103 -0.0483
23243W        W26463   8.931  13.391   0.949 -0.0468 -0.0789 -0.2438
23244W        W26464   9.734  11.366  16.985 -0.1447 -0.0149 -0.1141
23245W        W26465   3.023   5.783  15.581 -0.3863  0.3018 -0.1917
23246W        W26466  10.668   2.002  12.207  0.0425  0.1025 -0.2037
23247W        W26467   5.028  15.690  14.749 -0.3114  0.1096 -0.1751
23248W        W26468  11.183   5.199  15.076  0.1178  0.1934 -0.1076
23249W        W26469   8.389   4.519   8.148 -0.0807 -0.2986 -0.1332
23250W        W26470  13.015   9.095  12.607 -0.2624  0.2022  0.3597
23251W        W26471   8.670   6.874   5.612 -0.1237 -0.0467  0.1812
23252W        W26472   5.347   6.259  16.675  0.2738 -0.1039 -0.1719
23253W        W26473   9.899   9.529  17.294  0.1085 -0.1730  0.4644
23254W        W26474  12.411   0.735   9.898 -0.1768 -0.3872  0.0409
23255W        W26475   8.878   9.853  12.291  0.0124 -0.1720 -0.0089
23256W        W26476   9.375   4.440  15.581  0.3084  0.1510 -0.0123
23257W        W26477  10.009   7.942  16.239  0.2251  0.3835 -0.2067
23258W        W26478   9.633   2.045  17.451  0.0427 -0.0583  0.0657
23259W        W26479   1.558   5.456   7.878 -0.0176  0.0307  0.1146
23260W        W26480  12.155   4.230   9.248  0.4803 -0.2255 -0.2793
23261W        W26481   6.393  14.193  10.488 -0.1411  0.1489 -0.0189
23262W        W26482   0.196   9.250  15.846  0.0607 -0.2590  0.1706
23263W        W26483   7.799   3.233   0.529  0.0523  0.0810 -0.0999
23264W        W26484   7.917  10.423  17.144 -0.0454  0.1022 -0.1965
23265W        W26485   9.378   8.197   0.237 -0.0241 -0.0605 -0.2252
23266W        W26486  12.011   7.270  17.999  0.0067  0.3829 -0.1206
23267W        W26487  15.741   1.908  16.372 -0.2063 -0.1175  0.3044
23268W        W26488  12.348   4.583   2.936 -0.1618 -0.0787 -0.0863
23269W        W26489  12.072   1.158  13.688 -0.0433 -0.5258 -0.0341
23270W        W26490   8.551  10.033   3.313  0.0301  0.1499  0.1164
23271W        W26491   4.550   5.646  14.010  0.0102  0.2527  0.1529
23272W        W26492  13.615   4.853  11.380 -0.1717  0.1717 -0.0698
23273W        W26493   7.486  17.794  16.280 -0.1263  0.1223 -0.0232
23274W        W26494   4.337   3.777   2.168  0.3957 -0.0856  0.0954
23275W        W26495   7.715  11.924  15.670 -0.3428 -0.1252  0.2886
23276W        W26496   2.939   7.311   1.139  0.2351 -0.1202 -0.0406
23277W        W26497  11.267  18.254  11.688  0.2955  0.0809  0.3894
23278W        W26498   9.688   2.795  14.167  0.1623 -0.4832 -0.0672
23279W        W26499   7.967   5.496   2.600 -0.2637  0.5263  0.3688
23280W        W26500  13.792   9.484  17.108  0.0643 -0.0563  0.3171
23281W        W26501   2.770   9.226  17.848  0.1515 -0.1869 -0.5750
23282W        W26502   2.846   7.561  13.413  0.1834 -0.2095 -0.2343
23283W        W26503   8.261   3.535  14.107 -0.3255  0.3226 -0.2952
23284W        W26504  17.433   5.418   4.217 -0.0891  0.0881 -0.0812
23285W        W26505   6.540  14.730  11.723  0.1510  0.4480 -0.0281
23286W        W26506  11.058   4.724   2.431 -0.1414  0.0487 -0.0539
23287W        W26507   9.055   6.458   0.570  0.0649  0.0598  0.1016
23288W        W26508  12.981   4.018   3.355 -0.2489 -0.1109  0.0667
23289W        W26509   7.158   0.727  17.027 -0.1385 -0.0690  0.1124
23290W        W26510   7.035   7.425   5.687  0.3165  0.0709  0.0923
23291W        W26511   6.140   8.588  16.831 -0.0389  0.2096  0.1747
23292W        W26512   8.879   9.616  12.791  0.0023  0.0666 -0.0408
23293W        W26513   9.444   7.903  15.077 -0.5139  0.2112 -0.6314
23294W        W26514  10.173   6.614  17.643  0.0293 -0.1229 -0.0328
23295W        W26515   3.298  16.703   1.056  0.1386 -0.0333  0.1583
23296W        W26516   0.581   4.405   4.061 -0.1215 -0.0188 -0.0064
23297W        W26517  11.414  10.134  17.929  0.0179 -0.0795 -0.0817
23298W        W26518   9.622   0.189  11.790 -0.3623 -0.1073 -0.3970
23299W        W26519   2.974   6.071   3.404 -0.0438 -0.1768  0.0174
23300W        W26520   6.991  14.927  11.587  0.0227 -0.3125  0.1747
23301W        W26521   0.268   1.459   0.320 -0.0305  0.3615 -0.0363
23302W        W26522   0.306   6.930  18.107  0.3965  0.1542 -0.0569
23303W        W26523   4.460   0.867  17.683  0.0403 -0.2923 -0.1185
23304W        W26524  10.643   9.576  14.909  0.1297 -0.2075 -0.0980
23305W        W26525   9.403   5.177   1.511  0.0513 -0.3058 -0.0556
23306W        W26526   7.279   7.717   9.753  0.3001  0.0765  0.3094
23307W        W26527   8.037   8.372  13.998 -0.0973 -0.0023  0.1162
23308W        W26528   9.929   1.319   2.272  0.0051 -0.1595 -0.3054
23309W        W26529  15.280   6.016  17.639  0.0810 -0.0592  0.0183
23310W        W26530   5.629   0.765  14.658 -0.0679  0.1327 -0.0155
23311W        W26531  11.929   8.791  15.581  0.0603 -0.0539  0.3345
23312W        W26532   3.433   5.185  13.844  0.0488  0.2476  0.1759
23313W        W26533  16.716   8.497   0.801  0.3414  0.0884  0.2088
23314W        W26534   8.439   3.071  14.497 -0.2101 -0.1201  0.0029
23315W        W26535  13.737   0.488  14.896  0.0759  0.0782  0.1585
23316W        W26536   4.088   9.892  16.350 -0.0377  0.0191  0.0004
23317W        W26537  13.108   5.300   8.810  0.0411 -0.0456 -0.1618
23318W        W26538   1.832   5.251   0.259 -0.2411 -0.0426 -0.1635
23319W        W26539  14.381   7.126  17.281 -0.0183 -0.0580 -0.0384
23320W        W26540   6.225   3.303  17.025 -0.2043  0.2881  0.1619
23321W        W26541   8.174   2.476  15.696  0.1392  0.0211 -0.4592
23322W        W26542  10.257   1.066  12.984 -0.0348  0.0303  0.1693
23323W        W26543   1.327   5.248   0.239  0.1715 -0.3717 -0.1711
23324W        W26544   9.075   3.772  13.925  0.0229  0.0360  0.2261
23325W        W26545  10.568   1.240  17.730  0.0181 -0.0008 -0.2608
23326W        W26546  14.786   1.699  13.937  0.2146  0.0115 -0.0464
23327W        W26547   4.803  11.399  12.726 -0.1005  0.2330  0.0757
23328W        W26548   8.558   4.528  10.905  0.0084  0.0136  0.2080
23329W        W26549   7.595   4.387  13.540 -0.0099 -0.0900  0.0923
23330W        W26550   9.968   7.376  18.182  0.0520 -0.1226 -0.6083
23331W        W26551  10.296  10.436  13.306  0.1773  0.3408  0.1499
23332W        W26552   1.331  16.573  11.181  0.0677  0.3327  0.0736
23333W        W26553   8.936  17.961   1.872 -0.2078 -0.0668  0.1421
23334W        W26554   8.420  15.919  17.001 -0.0055 -0.1093 -0.1161
23335W        W26555   3.606  12.411  10.664  0.1295 -0.1159  0.2105
23336W        W26556  10.723   7.301  14.789  0.2978 -0.3964 -0.0022
23337W        W26557   2.270   5.428  11.117 -0.1703  0.0166 -0.1027
23338W        W26558   8.089   0.414  17.236  0.1811  0.0787  0.2070
23339W        W26559   9.943  12.690  16.234  0.0471  0.0805 -0.2097
23340W        W26560   9.301   0.952  18.153  0.2648  0.2211  0.1456
23341W        W26561   9.439  10.401   9.494  0.2136 -0.1452 -0.0727
23342W        W26562  11.579   5.631  17.965  0.1780 -0.0935 -0.0820
23343W        W26563   7.635   2.579  15.880  0.1563 -0.0612 -0.2225
23344W        W26564   7.129   6.149  15.666 -0.1140  0.1063  0.1293
23345W        W26565   3.313   9.488   5.117 -0.0634  0.4001 -0.0670
23346W        W26566   6.294   9.208  17.549 -0.1287  0.1082 -0.1401
23347W        W26567   8.521   0.865   8.191  0.3180 -0.1909  0.1709
23348W        W26568   9.428   1.110  17.210  0.0251 -0.0390  0.1234
23349W        W26569  11.356   6.157  14.515  0.1346 -0.0718 -0.0181
23350W        W26570  13.683   5.207   1.700 -0.1510  0.1754  0.3201
23351W        W26571   7.633   4.646   1.545  0.3359  0.0603 -0.2445
23352W        W26572  16.836   5.417   3.284 -0.0728  0.1146  0.2323
23353W        W26573  12.816   7.920  16.220  0.0743  0.3237 -0.0015
23354W        W26574   9.756   0.109  15.920  0.0070  0.3177  0.3395
23355W        W26575  12.209   7.808  11.831 -0.1287  0.0239 -0.1496
23356W        W26576  13.604  15.145  15.533 -0.2323 -0.0166 -0.0576
23357W        W26577  10.039   0.386   2.244  0.0023  0.0405 -0.3225
23358W        W26578   9.414  16.754  11.552 -0.0501 -0.1636 -0.0172
23359W        W26579   6.352   5.065  15.404  0.1612 -0.1048 -0.1094
23360W        W26580  13.063   3.555   2.479  0.0141 -0.0455  0.0674
23361W        W26581  18.173   4.230  18.000 -0.0680 -0.1015 -0.2076
23362W        W26582   0.939   8.269   1.078 -0.1137  0.0948 -0.0258
23363W        W26583   5.268  17.333   6.021  0.4199 -0.1676 -0.2262
23364W        W26584  12.440   0.549  17.231  0.1788 -0.1301 -0.0245
23365W        W26585   8.549   0.445   4.884  0.1092 -0.1947 -0.3086
23366W        W26586   8.334   3.573   7.928 -0.0310  0.1458 -0.0155
23367W        W26587   4.581  15.363   9.009 -0.2591 -0.2280 -0.1374
23368W        W26588   7.415  10.563   3.516  0.2125 -0.3383  0.1825
23369W        W26589  14.498   4.330  17.968  0.1632 -0.1863 -0.1899
23370W        W26590   9.370   9.596   8.701  0.1851 -0.2684 -0.1289
23371W        W26591  10.730   0.840   3.506  0.2394  0.0175  0.0215
23372W        W26592   9.420  13.128  12.734  0.2793  0.0824 -0.0740
23373W        W26593  12.302   4.417  17.051 -0.2209 -0.1293 -0.0657
23374W        W26594   2.948   7.703   0.884  0.0732 -0.1022  0.2179
23375W        W26595   6.890  14.632  13.192 -0.3535  0.0499  0.0608
23376W        W26596   3.721   3.899  16.250 -0.0018  0.0533  0.0991
23377W        W26597  14.882  16.837  15.187  0.2913  0.0004  0.1056
23378W        W26598   3.652   4.594   1.579  0.0625 -0.3615 -0.0078
23379W        W26599  10.042   3.261  16.119  0.1728  0.0792 -0.1298
23380W        W26600   7.859   4.062   2.237  0.1163 -0.0366 -0.2487
23381W        W26601   9.398   6.998   9.383  0.1111 -0.0934 -0.5309
23382W        W26602   7.911   7.603  16.003  0.0487  0.0583  0.2291
23383W        W26603   6.965   5.183  17.433  0.0950 -0.1670  0.1969
23384W        W26604  11.510   3.523  15.254 -0.3967  0.0340 -0.1696
23385W        W26605  13.922   6.467   0.948  0.0740  0.1132 -0.2258
23386W        W26606   7.582   2.428  12.137 -0.0371  0.0686  0.0734
23387W        W26607   4.497   9.911  11.393  0.2576  0.1961 -0.0922
23388W        W26608  13.366   8.240   0.880  0.0474  0.0676  0.0276
23389W        W26609   2.645   8.212   3.366  0.1661  0.0452 -0.0209
23390W        W26610  13.895   6.646   6.916  0.2000  0.0690  0.1245
23391W        W26611   8.403   5.562   1.148  0.0396 -0.3848 -0.0274
23392W        W26612   4.792   7.323   4.303 -0.1733 -0.0233 -0.1961
23393W        W26613   9.123   8.940   4.954  0.2166 -0.0692 -0.1550
23394W        W26614   8.105   7.061  17.644 -0.0676 -0.0449  0.0708
23395W        W26615   7.179   6.656   2.388  0.0714 -0.3296 -0.0149
23396W        W26616   5.138   0.075   0.412  0.1954 -0.0547  0.1151
23397W        W26617  13.003  18.249  13.118  0.0591  0.3315 -0.1635
23398W        W26618   7.366   2.165   5.831 -0.0794 -0.0180 -0.0119
23399W        W26619   1.902   9.707  15.448  0.3379  0.1716 -0.2467
23400W        W26620   5.983   2.239  15.106  0.0608 -0.1286  0.3311
23401W        W26621  11.740   5.846  14.917  0.0532 -0.0868 -0.1385
23402W        W26622   5.564  11.082  14.262 -0.1566 -0.1408  0.1093
23403W        W26623   5.604   3.192   5.830 -0.0255 -0.3091 -0.1355
23404W        W26624   5.441   1.774  14.039 -0.2480  0.1260 -0.0881
23405W        W26625  11.365   2.384   9.968  0.1508  0.1847  0.3554
23406W        W26626  10.241  16.465  14.453  0.1966  0.0895 -0.0082
23407W        W26627  13.479   4.919   0.894  0.0355  0.0126  0.1624
23408W        W26628   1.680   1.736   5.041  0.0796 -0.0836  0.0445
23409W        W26629   9.797   4.288  16.746 -0.1000 -0.2000 -0.0494
23410W        W26630  12.497   5.756   1.663 -0.0074  0.1920 -0.1812
23411W        W26631   1.658   4.758   1.515 -0.0430 -0.0973  0.0345
23412W        W26632   9.142   5.740  15.290  0.2299  0.5172 -0.0222
23413W        W26633   8.454   9.796  10.195  0.3178  0.0903 -0.1181
23414W        W26634   5.235  10.202   3.068  0.1012  0.3509  0.1493
23415W        W26635  16.514   8.230   9.670  0.0379 -0.1665  0.2439
23416W        W26636  11.113   7.761   5.722 -0.0333 -0.0246  0.3232
23417W        W26637  14.277  18.225   0.749  0.3035 -0.0111  0.3147
23418W        W26638   6.472   4.468  16.853 -0.3496  0.0669  0.1833
23419W        W26639   7.485   4.407  15.167 -0.0812  0.0151  0.0673
23420W        W26640  11.276   3.185  15.486 -0.0794 -0.0591 -0.1435
23421W        W26641   4.511   3.992  18.260 -0.0367 -0.0791  0.4098
23422W        W26642  14.322   6.090   2.539  0.1958  0.1494  0.0287
23423W        W26643   7.608  10.443   4.887 -0.1285  0.1080  0.0209
23424W        W26644   6.175   8.530   8.392 -0.0203 -0.1089 -0.2569
23425W        W26645   8.058   2.276  17.408  0.1848 -0.1345  0.1374
23426W        W26646  13.208   5.021   8.307 -0.1357  0.0547 -0.1794
23427W        W26647   5.236   4.504  13.168  0.1414  0.1622  0.0409
23428W        W26648   7.801   4.938  16.920  0.4105  0.0863  0.0965
23429W        W26649  11.210   2.888  10.686 -0.0198 -0.0673 -0.2110
23430W        W26650  15.619   4.398  12.041 -0.0957 -0.0059 -0.1198
23431W        W26651   9.581  15.551   7.965  0.0582  0.0592  0.0285
23432W        W26652   4.310  11.705  17.405  0.0051 -0.0012  0.1196
23433W        W26653  10.673   5.598  10.499 -0.0850  0.2026  0.1882
23434W        W26654   2.254   9.067  12.897 -0.2318 -0.0271 -0.1296
23435W        W26655   9.422   8.246   3.072  0.3872 -0.0982  0.0895
23436W        W26656   7.559   5.232  18.049  0.0353  0.0077 -0.2472
23437W        W26657  11.449   6.487   0.721 -0.2416  0.0013  0.1538
23438W        W26658  14.555   8.597   2.092  0.1074 -0.3105 -0.2796
23439W        W26659   9.206   1.427  15.025  0.0817 -0.1802  0.0514
23440W        W26660   5.845   3.652  17.099 -0.1069 -0.1431  0.2131
23441W        W26661   7.262   9.115   6.540  0.1749 -0.0141  0.2177
23442W        W26662   8.803   8.278  11.932  0.0611 -0.3018  0.2811
23443W        W26663   5.437   6.450   4.023  0.0675 -0.0362 -0.1465
23444W        W26664  13.451   6.744  16.139  0.1973  0.0390 -0.0425
23445W        W26665   5.918   0.168   3.390  0.0045 -0.0984 -0.1016
23446W        W26666   9.624   4.508  13.741 -0.2003  0.1016  0.0261
23447W        W26667   3.819   3.077  12.094  0.0487  0.0255  0.2472
23448W        W26668  13.224   4.164   0.178 -0.3437 -0.2182 -0.0396
23449W        W26669   7.811   8.213  13.034 -0.1396  0.0262  0.0402
23450W        W26670  13.381   6.289  16.027 -0.1790 -0.0083 -0.0565
23451W        W26671   8.153   4.087   4.314  0.0628 -0.0308  0.1426
23452W        W26672   8.329   6.800  11.851  0.2260  0.3802 -0.1369
23453W        W26673  13.445   3.938   6.257  0.1468  0.0683 -0.0190
23454W        W26674  15.738   2.065   4.783 -0.0403 -0.2159 -0.0462
23455W        W26675  10.003   4.310   0.601 -0.0894 -0.1057  0.3878
23456W        W26676  13.389   2.942   8.816  0.3628 -0.0019  0.2773
23457W        W26677   8.439  12.381   0.593  0.1921 -0.1628 -0.2791
23458W        W26678  13.905   9.783  17.592  0.1108  0.0642 -0.1847
23459W        W26679  11.682   3.569   4.889 -0.1770 -0.0766 -0.1653
23460W        W26680  13.810   0.282  15.438  0.5890  0.4315  0.1804
23461W        W26681   8.328  10.917  16.290 -0.2344 -0.0767 -0.3943
23462W        W26682   7.809   0.560   3.295  0.0682  0.1515  0.1367
23463W        W26683  10.892   0.825  17.552 -0.4819 -0.0985 -0.1123
23464W        W26684   9.809   5.663   9.532 -0.0081 -0.0796 -0.3800
23465W        W26685  15.112   7.581  10.011  0.3571  0.0881  0.2208
23466W        W26686   9.828  18.100  14.314 -0.1837  0.0606  0.0952
23467W        W26687   2.615  16.321  17.404  0.4573  0.3151  0.0889
23468W        W26688   7.262  17.841  14.422 -0.1412 -0.1364  0.0260
23469W        W26689   7.193  13.758  14.947  0.0111  0.1655  0.2388
23470W        W26690   7.143   4.626   0.450 -0.1965 -0.4191 -0.0714
23471W        W26691  13.976   9.598   9.916 -0.0099 -0.0648  0.0594
23472W        W26692   7.513   5.560   8.063 -0.0137  0.1627  0.0168
23473W        W26693  10.145   0.208  14.357  0.0298 -0.0825  0.0359
23474W        W26694   6.446   3.475  17.509  0.0286 -0.0053  0.1049
23475W        W26695  10.074   2.558   3.651 -0.0679  0.0149  0.1699
23476W        W26696   4.868  12.137  11.817  0.3715 -0.0259  0.0413
23477W        W26697   7.909   4.466   1.007  0.0013 -0.0662 -0.0411
23478W        W26698   9.517   7.883   3.413 -0.0050 -0.1806 -0.0773
23479W        W26699  11.400   1.055   2.136  0.0390  0.0038  0.1276
23480W        W26700   1.937   6.191  10.550  0.3303 -0.0772 -0.0534
23481W        W26701   3.712   1.356  17.780  0.0956 -0.2402  0.2828
23482W        W26702  14.302   4.271  13.437  0.0174 -0.1924  0.1342
23483W        W26703   9.173  17.339  16.888  0.1158  0.1168 -0.2490
23484W        W26704  14.854   8.367   5.732  0.2132  0.0085 -0.0505
23485W        W26705  13.812   9.168  18.215  0.0921  0.1122  0.0393
23486W        W26706  12.715  10.061  15.733  0.0853  0.1829 -0.0164
23487W        W26707   9.975   4.730   4.824  0.1328  0.3141  0.0993
23488W        W26708  13.413  11.280  15.127 -0.0406 -0.0537 -0.0062
23489W        W26709   8.161  14.965   4.845 -0.0279 -0.2065  0.2908
23490W        W26710  14.421  17.672   3.719  0.0567 -0.4131 -0.0539
23491W        W26711  15.289   1.706  14.619 -0.0966 -0.1879  0.2641
23492W        W26712   0.893   8.214  16.589  0.0485  0.1030  0.0153
23493W        W26713  11.826   2.778   3.407 -0.3059  0.2517 -0.1152
23494W        W26714   7.242   2.351   3.630  0.0713 -0.3685  0.0419
23495W        W26715  16.928   4.664  11.646 -0.2310 -0.0995  0.0181
23496W        W26716   8.624  14.843   2.959  0.3726 -0.2579  0.0531
23497W        W26717  12.124   6.348  17.932 -0.0079  0.0383 -0.3264
23498W        W26718   9.465   7.199  14.639  0.1462 -0.0721 -0.0623
23499W        W26719   7.232  16.993  11.078 -0.0441 -0.2071  0.2459
23500W        W26720   9.560   4.815   3.972  0.0393  0.2530  0.0990
23501W        W26721  13.549   4.352  14.199  0.0703 -0.0558 -0.3101
23502W        W26722  10.392  17.308  16.888  0.3086 -0.1745  0.0032
23503W        W26723  12.919   2.902   0.274 -0.3342  0.1419 -0.1961
23504W        W26724   4.910   1.619  12.774 -0.1137 -0.0717  0.0747
23505W        W26725   5.566   9.628  14.738 -0.0980 -0.0322 -0.0344
23506W        W26726   6.326   5.099  13.658  0.1195  0.2876 -0.2622
23507W        W26727  13.237  16.688  13.496  0.0005 -0.2328  0.3893
23508W        W26728   5.978   6.277   6.033  0.0777  0.2386  0.1573
23509W        W26729   7.971   4.253  17.642  0.0029  0.0499 -0.1058
23510W        W26730   3.160   6.771  14.047  0.0910 -0.4702 -0.0936
23511W        W26731   7.259   2.248  15.821 -0.3392 -0.0909 -0.1319
23512W        W26732  13.259   5.278   1.387 -0.0095 -0.1949 -0.2325
23513W        W26733   8.736   6.358  15.045 -0.0062  0.4346 -0.1505
23514W        W26734  14.199   6.881   3.867 -0.0099  0.0631 -0.0512
23515W        W26735   2.199   6.873   0.020  0.1719  0.2799 -0.0778
23516W        W26736   8.581   3.846  10.735  0.0756  0.0548  0.1157
23517W        W26737   8.313   5.511   0.315 -0.2120  0.1791  0.0630
23518W        W26738  17.460  13.188  17.050 -0.1607 -0.1902 -0.2532
23519W        W26739  11.048   7.319   3.733  0.3083  0.2637  0.1014
23520W        W26740   9.088  13.808   3.116 -0.1642 -0.0103 -0.0546
23521W        W26741  11.866   1.414  14.703 -0.1445  0.0546 -0.2377
23522W        W26742  12.616   8.505   8.491  0.0084 -0.0055  0.1002
23523W        W26743   2.276  13.891  16.698 -0.0474 -0.2151 -0.1128
23524W        W26744   7.700   7.724  16.961  0.1168 -0.1620 -0.1211
23525W        W26745   8.165   5.252  17.885 -0.1239 -0.2409  0.0496
23526W        W26746   6.444   1.003  12.890  0.2076  0.0907  0.1929
23527W        W26747  17.263   4.849   2.050 -0.2843 -0.2730 -0.0206
23528W        W26748   0.667  16.365  12.561  0.0091 -0.1605  0.2980
23529W        W26749   6.555  17.596   1.860 -0.3765 -0.2883  0.1899
23530W        W26750   1.636  14.577  16.608  0.1200 -0.0745  0.0105
23531W        W26751  15.608   3.122   2.905 -0.2852 -0.0076  0.1884
23532W        W26752   8.889  17.354  14.971 -0.1602 -0.3180  0.2051
23533W        W26753  12.340   3.927  11.071 -0.1343 -0.2123  0.2032
23534W        W26754   9.516   4.026   1.368 -0.1822  0.4415  0.0007
23535W        W26755  13.226   4.014  17.680 -0.0589 -0.1656  0.2725
23536W        W26756   9.644   9.957   6.480 -0.1267  0.1501 -0.3036
23537W        W26757  12.185   5.326   0.969 -0.1884  0.0376 -0.5222
23538W        W26758   3.787   7.905   2.471  0.2074  0.1855  0.2438
23539W        W26759  15.308   7.377   0.718 -0.1461  0.0522 -0.0003
23540W        W26760   4.013   7.268  11.031  0.2984 -0.0581 -0.0835
23541W        W26761   3.641   6.880  17.061 -0.2866 -0.1785 -0.0390
23542W        W26762   1.703   8.429   2.081  0.3378 -0.1417 -0.2362
23543W        W26763  11.426   8.358  13.533  0.2769  0.1272 -0.2344
23544W        W26764   9.442   3.826  16.315  0.0530 -0.1678 -0.1164
23545W        W26765  10.499   4.005  13.206 -0.0072 -0.0203  0.2782
23546W        W26766   1.725   9.781  16.508 -0.1292 -0.1172  0.1898
23547W        W26767   4.278   4.164  13.731 -0.0772 -0.1359  0.1512
23548W        W26768  10.278   4.891  15.643  0.1224  0.2948 -0.0735
23549W        W26769  14.698   4.138  12.510  0.5821 -0.0394 -0.2237
23550W        W26770   4.084   9.470  15.874 -0.1495 -0.5132 -0.0876
23551W        W26771  18.167   5.422  11.928  0.0946 -0.3258  0.1401
23552W        W26772   8.204  18.071  14.418 -0.0438  0.2055  0.1963
23553W        W26773  12.204   6.232   3.601  0.2534  0.2520 -0.1400
23554W        W26774   5.058   5.650   3.156 -0.0165 -0.2518 -0.1890
23555W        W26775   8.598   5.043   1.798  0.0453  0.3112 -0.2519
23556W        W26776  16.631   4.622   8.010  0.0022  0.0038  0.0353
23557W        W26777   4.605   3.870   0.802  0.2415 -0.0847 -0.4534
23558W        W26778  12.170   9.922  13.339  0.0343 -0.1777  0.1380
23559W        W26779  10.442   1.898   0.065  0.1418  0.1940 -0.0013
23560W        W26780   8.695  18.037   7.080  0.2737  0.4139 -0.3912
23561W        W26781   5.694   6.306  17.208  0.0955 -0.1826  0.0011
23562W        W26782  13.509   7.845   8.211 -0.3777 -0.0920 -0.1243
23563W        W26783   9.084   1.609   1.712 -0.3112  0.2671 -0.2034
23564W        W26784   2.810   9.364  16.364  0.1871  0.1924  0.1460
23565W        W26785  11.861  10.909   2.290  0.2213 -0.1802  0.0465
23566W        W26786   9.342   1.151  14.519  0.2529 -0.3849 -0.2082
23567W        W26787   7.000   4.531  15.779  0.0594  0.1631 -0.6795
23568W        W26788   5.416   7.599   3.311 -0.3297 -0.2767 -0.0769
23569W        W26789   4.538   4.026  17.010 -0.0343  0.2903  0.1338
23570W        W26790   3.218   5.952   1.477  0.1031 -0.1591  0.0103
23571W        W26791   6.801   0.739   5.401 -0.3646  0.0250 -0.1242
23572W        W26792   8.138   6.985   1.977 -0.3985 -0.0491 -0.2753
23573W        W26793   2.684   6.523   3.483 -0.0367  0.2175 -0.0709
23574W        W26794  11.374   5.169  17.984 -0.1402 -0.1826  0.5668
23575W        W26795   2.475   1.542  13.856 -0.0591 -0.1171  0.1674
23576W        W26796  11.682   7.845   0.332 -0.2867 -0.1007  0.1050
23577W        W26797  11.371   9.595  14.072  0.0331 -0.0743  0.1541
23578W        W26798  15.959  11.008   3.648 -0.1312  0.1504 -0.1728
23579W        W26799  12.255   3.936   4.133 -0.1150  0.2366 -0.1201
23580W        W26800  10.024   7.506  10.672 -0.0314  0.2349  0.2121
23581W        W26801   9.200   7.591  14.812  0.0063 -0.1405 -0.2049
23582W        W26802  10.655   5.347   0.874  0.0293 -0.2253  0.2054
23583W        W26803   1.855   4.276   1.100  0.1259  0.0100  0.4058
23584W        W26804  11.501  10.299   5.554  0.1131 -0.2040 -0.2788
23585W        W26805   3.209   7.022  18.170 -0.0254 -0.0336  0.2108
23586W        W26806   9.006  16.055  17.912 -0.2005 -0.0045  0.1679
23587W        W26807   9.938  10.511   8.627  0.2877  0.0716  0.1505
23588W        W26808   8.151  14.216   0.419 -0.0555  0.1504  0.3171
23589W        W26809  10.116   2.734  11.804  0.4123 -0.1180 -0.1641
23590W        W26810  11.018   7.266   0.585 -0.0610 -0.2238 -0.0339
23591W        W26811  12.057   4.290   3.726 -0.1620 -0.2142 -0.0616
23592W        W26812  10.347   5.601  10.982 -0.1338  0.0098 -0.0490
23593W        W26813  12.435  10.580  17.262  0.1792 -0.2202  0.2261
23594W        W26814   2.327  12.429  16.179 -0.0595 -0.1315 -0.1182
23595W        W26815   8.016  14.857  12.538  0.0662  0.0036  0.1380
23596W        W26816   8.075   5.583  17.510  0.0878  0.0695  0.1755
23597W        W26817  11.194   2.180   9.395 -0.1963  0.1367 -0.1383
23598W        W26818   5.611   2.068   3.519  0.0347 -0.0380 -0.1461
23599W        W26819  12.274  14.193  13.719 -0.0096 -0.3674 -0.0359
23600W        W26820   9.010   0.773  12.851 -0.0012  0.0606 -0.4278
23601W        W26821   7.716   3.820   5.604  0.1217 -0.1189 -0.1367
23602W        W26822   6.750   2.942   3.564 -0.4415  0.2958  0.1941
23603W        W26823   4.669   4.631  11.057 -0.0352  0.1655 -0.1430
23604W        W26824  10.029   6.497  12.166  0.0925 -0.0196  0.1560
23605W        W26825   7.826   1.832   0.050  0.2933  0.3164  0.0308
23606W        W26826   9.552   4.967  13.608 -0.3873  0.1342 -0.1081
23607W        W26827  16.608   6.731  15.243 -0.0912 -0.1848 -0.2471
23608W        W26828   8.819   3.220  15.351  0.4125  0.0044 -0.1224
23609W        W26829   6.276   2.958  11.189 -0.0637 -0.2472  0.0477
23610W        W26830   9.750   5.667   8.590 -0.0637  0.0385  0.1199
23611W        W26831   2.593   2.478  17.822 -0.2098  0.1209  0.0906
23612W        W26832   9.295  10.110  17.705  0.0799  0.2140  0.2243
23613W        W26833   5.325   5.486  13.441 -0.0524  0.1286 -0.3009
23614W        W26834   7.917   2.097  13.813  0.2424  0.1332 -0.2778
23615W        W26835   0.671   1.438  14.216 -0.0112 -0.1062  0.0402
23616W        W26836   6.623   4.921   0.608  0.2028 -0.1752  0.1648
23617W        W26837  10.877   7.254  12.991 -0.1231 -0.0766 -0.2569
23618W        W26838  11.584   7.130  12.049  0.1063  0.3059 -0.1985
23619W        W26839  12.261   2.168  10.079 -0.2316 -0.2218 -0.1664
23620W        W26840   7.189   5.105   5.294  0.1207  0.1831  0.2912
23621W        W26841  12.614   1.705   0.851 -0.2817  0.0294 -0.0663
23622W        W26842  10.857   2.159   5.471 -0.2466  0.0602  0.0135
23623W        W26843   3.984   8.049  17.587 -0.0137  0.1725  0.0230
23624W        W26844   6.093   6.029  11.969 -0.3774 -0.1114  0.0906
23625W        W26845  10.637   3.223   1.205  0.3464  0.1276 -0.0738
23626W        W26846  11.232   3.618   2.955 -0.1569 -0.0868  0.1060
23627W        W26847  13.457  10.325  16.870  0.1091 -0.0151  0.1257
23628W        W26848   7.737  15.943   4.859 -0.1202 -0.0811  0.1090
23629W        W26849  13.368   2.805  17.208 -0.0758  0.2460  0.0069
23630W        W26850   7.888   0.395   0.558  0.1145  0.1127 -0.1252
23631W        W26851   8.054   3.747   3.186 -0.0399 -0.1557  0.3355
23632W        W26852  13.890  10.483   0.880  0.2253  0.3566  0.1543
23633W        W26853   4.974   3.956   8.000  0.2377  0.2091  0.3896
23634W        W26854   8.884   2.187   4.626  0.0876  0.0723  0.1518
23635W        W26855   8.637   8.064   2.927  0.3116  0.0267 -0.0010
23636W        W26856  13.993   4.122   5.281  0.2293 -0.0011 -0.3031
23637W        W26857   8.307  16.040  17.533 -0.0795 -0.0285  0.1695
23638W        W26858  14.499  11.661  18.260  0.1413 -0.0762 -0.2466
23639W        W26859   9.128   2.447  15.194  0.2278  0.0173  0.2261
23640W        W26860  17.737  12.072   6.682  0.1021 -0.1051 -0.1243
23641W        W26861   5.033   3.664  15.238 -0.2096 -0.1557 -0.5297
23642W        W26862  13.652   8.189   1.293  0.0337 -0.0469 -0.0535
23643W        W26863   9.789   3.106  15.647  0.0153 -0.0087  0.1216
23644W        W26864  15.518   2.783  18.024 -0.0145  0.0236 -0.1742
23645W        W26865  15.288   3.193  13.280  0.1316 -0.0927  0.0280
23646W        W26866  17.823   5.579  16.114 -0.0334  0.0494  0.0371
23647W        W26867  10.784  11.103  17.811 -0.0709  0.1413  0.0993
23648W        W26868   5.551   8.311  17.593 -0.4165 -0.0727  0.2704
23649W        W26869   9.296   5.770   0.884 -0.0367 -0.2218  0.2413
23650W        W26870  12.746  15.910  16.492  0.0217 -0.0029  0.2100
23651W        W26871   3.651   1.523   7.415 -0.1829  0.2408  0.1907
23652W        W26872   6.546   3.571   0.120  0.1046 -0.2562  0.2870
23653W        W26873  12.772   2.373  11.610 -0.0292 -0.2133  0.0553
23654W        W26874   6.368   9.059   0.011 -0.0740 -0.0634  0.0649
23655W        W26875   8.681   0.006   5.627  0.1240  0.0919 -0.3632
23656W        W26876   7.178   4.535  14.440 -0.3326 -0.1542 -0.3190
23657W        W26877  11.505   6.801  10.170  0.2228  0.0528  0.1223
23658W        W26878   6.701   9.291  17.923  0.0956 -0.0223  0.0392
23659W        W26879  11.670  14.556   0.920  0.1708 -0.2272 -0.0362
23660W        W26880   7.142  10.133   2.442 -0.1507 -0.1331  0.1994
23661W        W26881  12.202   6.123   1.541  0.0662 -0.1006 -0.1371
23662W        W26882   4.875  11.937   2.045  0.2565  0.2622 -0.1291
23663W        W26883   6.408  13.345   2.130 -0.1655  0.2162 -0.2125
23664W        W26884   5.498  10.273   1.594 -0.2065  0.1399  0.0138
23665W        W26885  10.939   1.607   0.428 -0.2915  0.1188 -0.0264
23666W        W26886   6.504   8.964   3.470  0.1569  0.1404  0.0290
23667W        W26887   8.253   5.199   7.649  0.1841 -0.1093  0.1081
23668W        W26888   3.702  15.557   4.441 -0.0019  0.4017  0.2367
23669W        W26889  11.480   9.103   4.934  0.0804  0.2358 -0.2478
23670W        W26890  10.506  14.689   8.386  0.1593 -0.1279  0.0112
23671W        W26891  13.728   1.802   5.581  0.0970 -0.0230  0.2908
23672W        W26892   9.119   9.090  15.561 -0.0910  0.0194  0.1808
23673W        W26893  11.637  14.573  14.238  0.0293  0.1915  0.3096
23674W        W26894   5.635   6.798   3.731 -0.2916 -0.1701  0.4753
23675W        W26895   7.404   9.133   4.258 -0.0499  0.1471  0.1935
23676W        W26896   8.051   7.326   8.991  0.0958 -0.1162  0.0446
23677W        W26897   5.241  12.070  12.300 -0.3730  0.2513  0.2233
23678W        W26898   2.689   3.465  16.941  0.1226  0.0273 -0.3594
23679W        W26899   6.618  13.885   0.920  0.0470  0.2163  0.0127
23680W        W26900  14.631  10.133  11.111 -0.0207 -0.0803  0.1359
23681W        W26901   8.011   5.455   4.135  0.0829 -0.0159  0.2420
23682W        W26902   8.872   8.057   6.612 -0.2262  0.0072  0.3366
23683W        W26903  12.502  11.801   4.256 -0.0149 -0.4037 -0.1033
23684W        W26904  10.553   4.370  17.534 -0.3557 -0.0665  0.0618
23685W        W26905   8.354  11.865   1.513  0.0756  0.0529  0.2776
23686W        W26906   9.830  12.004   0.618  0.0036  0.0743  0.5083
23687W        W26907  12.397  14.620   0.440  0.0973  0.1055 -0.2300
23688W        W26908   8.243   3.465   4.908 -0.1363  0.1012  0.1165
23689W        W26909   8.867   6.833   2.470  0.2099  0.3822 -0.0545
23690W        W26910  10.430   8.647   4.370  0.1745 -0.0017  0.0903
23691W        W26911  15.276   8.187   6.013 -0.1942 -0.0041 -0.2338
23692W        W26912  13.453   8.575   5.020  0.1803  0.2979 -0.2720
23693W        W26913  10.802   8.924   4.122 -0.0445 -0.4329  0.1614
23694W        W26914  11.456   3.881   2.616  0.0857 -0.3342 -0.0167
23695W        W26915   9.677   8.180   1.850  0.0950  0.2213  0.0392
23696W        W26916   6.846   2.839  14.836  0.1050  0.0503 -0.1226
23697W        W26917   9.257  10.045   3.885 -0.0716 -0.1466  0.0824
23698W        W26918   9.599   3.989  14.850 -0.0770  0.2037  0.1574
23699W        W26919  10.355  17.561  17.791  0.0096  0.1224 -0.0580
23700W        W26920  11.789  11.905  14.004 -0.5152 -0.1019  0.0280
23701W        W26921   7.753  12.397  17.286 -0.1544  0.1045 -0.1490
23702W        W26922   8.457   2.301  15.295 -0.0812 -0.2017 -0.0774
23703W        W26923   6.805   4.671   1.734 -0.4435 -0.0365 -0.1217
23704W        W26924  10.721  17.557   2.278  0.1860 -0.1704  0.0850
23705W        W26925  11.490   3.672  17.017 -0.0710 -0.1086  0.0828
23706W        W26926  17.827   9.519  16.362 -0.0721 -0.0187  0.1327
23707W        W26927  10.317  11.160   0.722 -0.1720  0.2227  0.0541
23708W        W26928  14.859   1.567   2.661 -0.0859 -0.1122  0.0704
23709W        W26929  10.183   8.488   3.479  0.2773 -0.2625 -0.0940
23710W        W26930   9.526  12.275   2.261 -0.1038  0.1222 -0.1524
23711W        W26931  15.009   5.135   2.599 -0.2089  0.0897  0.0675
23712W        W26932  10.575  13.911   3.484 -0.0563 -0.0969  0.4242
23713W        W26933   7.192  11.615   2.445  0.0455 -0.0372 -0.0207
23714W        W26934  13.496   8.660   0.544 -0.2633 -0.0379  0.1248
23715W        W26935  11.041   9.917   1.651  0.0393  0.0374  0.0199
23716W        W26936   9.917   7.879   1.027  0.2008 -0.1678  0.1445
23717W        W26937   8.960  16.531   2.702  0.0669  0.1789 -0.0656
23718W        W26938   9.968  15.076  13.430 -0.2113 -0.0642  0.1176
23719W        W26939   8.318   6.917   1.508  0.0957  0.2579  0.3398
23720W        W26940   7.665   7.996  17.817  0.2564  0.0302 -0.2208
23721W        W26941  11.484  17.364   6.127  0.2225 -0.2864  0.1345
23722W        W26942   6.882   2.262   3.281 -0.0759 -0.2259 -0.5138
23723W        W26943   7.236  13.239   9.512  0.0633 -0.1588 -0.1516
23724W        W26944   6.854   1.595   0.149 -0.2328  0.1522 -0.2933
23725W        W26945   6.296  12.054  11.794 -0.3524  0.1715 -0.0718
23726W        W26946  10.252  10.885   6.967 -0.2087 -0.1756 -0.1649
23727W        W26947  11.805   5.668   6.884  0.0852 -0.0994  0.0112
23728W        W26948  11.875   3.553  17.302 -0.0673 -0.0058 -0.1609
23729W        W26949   7.298   9.468   0.722 -0.0869 -0.1596  0.1342
23730W        W26950   4.164   9.041  16.171  0.1086 -0.1346 -0.4468
23731W        W26951  10.997   7.950   1.593  0.1622 -0.0091  0.1485
23732W        W26952  17.207   7.902   5.399  0.0111 -0.0374  0.2675
23733W        W26953  12.220  12.606   3.438  0.1170  0.3214 -0.0996
23734W        W26954   8.520   7.806  18.264  0.1729  0.2980 -0.1242
23735W        W26955   8.388   9.283   1.785  0.0457  0.0258 -0.2174
23736W        W26956   2.278   4.933   6.670  0.1109  0.2850  0.0092
23737W        W26957   5.768   2.158   1.828 -0.0782 -0.2708 -0.2275
23738W        W26958  12.660   0.576   5.273  0.0698 -0.1615 -0.0027
23739W        W26959   9.088   7.667   5.005  0.0561 -0.1481  0.1463
23740W        W26960  15.232   5.017   6.242 -0.3210  0.0444  0.1267
23741W        W26961   6.363  13.235   6.847  0.1494  0.0835  0.3254
23742W        W26962  12.538  10.150   9.356 -0.0962 -0.0084  0.0839
23743W        W26963  13.218   5.813   6.149  0.0020  0.2005 -0.0750
23744W        W26964  12.043   7.289   2.033  0.3472 -0.2047 -0.0830
23745W        W26965  11.672  14.193   7.452  0.0557 -0.3005 -0.0483
23746W        W26966  14.725   6.073  14.291  0.0112  0.0775  0.2249
23747W        W26967  10.542   7.242  17.428 -0.3629  0.1119  0.0173
23748W        W26968  13.983   5.239   3.414 -0.1653 -0.1926  0.1312
23749W        W26969  11.709  11.637   2.713  0.0383  0.0971  0.1922
23750W        W26970  12.482  10.481   1.961  0.2352 -0.0919  0.0277
23751W        W26971  11.330   2.651   6.126  0.1064 -0.1949 -0.1767
23752W        W26972   2.820   8.199  17.663  0.2855 -0.3850 -0.0399
23753W        W26973   5.012   6.877  17.473  0.0755 -0.0655 -0.2295
23754W        W26974  13.118   3.405  11.655 -0.0810 -0.5908  0.1911
23755W        W26975  15.892   9.792   2.666  0.2966 -0.1307  0.0530
23756W        W26976  14.796  14.238   5.041 -0.0510 -0.0525  0.0063
23757W        W26977   8.279  10.030   2.275 -0.2272  0.2618 -0.0992
23758W        W26978  16.013   7.113   2.411 -0.0727 -0.3423 -0.0275
23759W        W26979  16.380  10.466   1.041  0.3144  0.0277  0.1069
23760W        W26980   9.527   7.468   3.717 -0.0116 -0.0329  0.1759
23761W        W26981   9.183  16.158   2.435  0.0240 -0.1632 -0.2468
23762W        W26982   7.635  16.207   0.980 -0.2199 -0.1799 -0.2898
23763W        W26983   5.426   3.405  17.296  0.1534 -0.1728  0.2835
23764W        W26984  13.322  13.179   4.159  0.0867  0.3883  0.0658
23765W        W26985   3.886   6.099  16.576 -0.0817 -0.1063 -0.0732
23766W        W26986  12.793   9.240   7.214  0.0480 -0.2114 -0.3575
23767W        W26987  16.898  10.652   1.928 -0.3111 -0.1322  0.0100
23768W        W26988   2.260  17.322   0.020  0.0694 -0.3231  0.3187
23769W        W26989  11.243   5.113   5.951  0.3956 -0.2300 -0.0944
23770W        W26990   8.875   4.446   0.618 -0.1281 -0.1874  0.1199
23771W        W26991   8.993  11.388   2.658 -0.2199 -0.2139 -0.1727
23772W        W26992   1.575   1.213  16.423  0.1391 -0.0277 -0.1134
23773W        W26993   9.679   9.819  17.716  0.1596 -0.1860  0.1772
23774W        W26994  10.348   9.053   3.754 -0.0427 -0.2744  0.1204
23775W        W26995  10.224  14.388   3.961 -0.0906 -0.1611 -0.1153
23776W        W26996   3.877   4.254  14.795 -0.0213  0.1114  0.0849
23777W        W26997   7.702  10.938   8.338  0.1777  0.0066 -0.1612
23778W        W26998   5.325  15.792   4.531  0.3424 -0.0361  0.0113
23779W        W26999  11.189   7.863   9.162 -0.1778  0.2950  0.1113
23780W        W27000   9.503   5.655   1.464 -0.0872 -0.0106 -0.0521
23781W        W27001  12.516   7.113   1.076 -0.3474  0.0456  0.1011
23782W        W27002   8.015  10.731  17.537  0.0132 -0.0865  0.1426
23783W        W27003   6.363   4.357  13.439 -0.1068  0.2522  0.3049
23784W        W27004   5.484   3.939   7.978  0.2069 -0.0414  0.1545
23785W        W27005  12.139   3.949   0.798  0.1977  0.1095 -0.0857
23786W        W27006   7.460   5.880   0.755  0.1039 -0.0292 -0.0517
23787W        W27007   9.061  12.229   3.526 -0.1253  0.0780 -0.0751
23788W        W27008   5.853  16.334   1.875 -0.0982 -0.2009  0.0142
23789W        W27009   6.326   8.544   4.667  0.0313 -0.1703 -0.0634
23790W        W27010   4.039   1.289   7.524 -0.2369 -0.0541  0.1277
23791W        W27011  11.093   5.344   5.549  0.0069  0.0958  0.0734
23792W        W27012  12.505  14.153   2.922 -0.1621 -0.1752  0.0161
23793W        W27013  13.413   3.812   0.466  0.1219 -0.1253 -0.1239
23794W        W27014  13.050   7.805   5.266  0.2154  0.0726  0.0058
23795W        W27015   3.032  15.742  17.738 -0.2562 -0.2031  0.2418
23796W        W27016   6.077   3.268   8.481 -0.2435 -0.1209  0.1653
23797W        W27017   5.622   7.155   2.478 -0.0870 -0.0776  0.0040
23798W        W27018   7.635   1.971   2.803 -0.4078  0.2106 -0.0939
23799W        W27019  13.392   3.103  16.385  0.2136  0.1009  0.1610
23800W        W27020   5.197  11.567  16.486 -0.3523 -0.0868 -0.2164
23801W        W27021  11.748   9.387  16.605  0.1209  0.0957 -0.0521
23802W        W27022  13.079  13.625   1.302  0.2138 -0.5886 -0.2657
23803W        W27023  11.293   5.602   1.888  0.3239 -0.0348 -0.0665
23804W        W27024  11.908  10.187  14.266 -0.3101 -0.0143  0.1537
23805W        W27025   8.879   7.876   2.244 -0.1174  0.1667 -0.3782
23806W        W27026   2.345  10.397  11.971 -0.2131  0.1022  0.1111
23807W        W27027  16.437   7.314  10.111  0.2975 -0.0829 -0.2380
23808W        W27028  12.581   6.531   7.577 -0.0171 -0.0106  0.3343
23809W        W27029   9.679   4.329   9.467  0.0057 -0.1198 -0.0330
23810W        W27030  15.058  12.437   0.419  0.0124  0.2305  0.0046
23811W        W27031   4.880  10.556   0.269 -0.0388  0.1743 -0.0005
23812W        W27032   6.251   5.301   3.633 -0.2199  0.0535 -0.3913
23813W        W27033   3.697   4.547   5.627 -0.0757  0.1939  0.0195
23814W        W27034   9.965  12.100   3.048  0.1117 -0.0621 -0.4727
23815W        W27035   9.075   9.096  17.505  0.0585 -0.0688  0.3340
23816W        W27036  11.227   5.411   0.855 -0.1231 -0.2855 -0.3366
23817W        W27037   8.713   3.927  14.600  0.1375 -0.1397  0.0662
23818W        W27038  12.043   9.413   9.895  0.2263 -0.1051  0.1061
23819W        W27039   2.202   2.991  12.870  0.1179  0.2500 -0.0012
23820W        W27040  15.250   3.762   4.616 -0.1615  0.0059  0.0751
23821W        W27041   7.424   6.344   4.939  0.0125 -0.0646 -0.0388
23822W        W27042  13.334   5.496   1.908  0.0487 -0.0703  0.2976
23823W        W27043   6.065   5.445   7.144  0.2161 -0.0407 -0.2452
23824W        W27044   9.285  12.877   5.621 -0.0003 -0.3203 -0.1601
23825W        W27045   4.186  10.530  16.009  0.1658  0.0057 -0.0120
23826W        W27046   4.918   9.112   0.169  0.1161  0.0268  0.1919
23827W        W27047  11.018   3.653   0.103  0.3380  0.0395  0.3451
23828W        W27048   4.352   9.063   2.451 -0.3022  0.3133 -0.0284
23829W        W27049   0.481  10.448   3.039  0.0676 -0.0355  0.0105
23830W        W27050  10.040  12.680   8.920 -0.1350  0.0157  0.3024
23831W        W27051   8.190  17.713   3.211 -0.0384 -0.2311 -0.0264
23832W        W27052   3.627  13.335   3.566  0.1075  0.0834  0.0859
23833W        W27053  12.429  11.958   2.355 -0.0717 -0.1255 -0.0721
23834W        W27054  14.560   7.008   2.652  0.2107  0.1377  0.0475
23835W        W27055  10.456   3.609   4.649  0.0322 -0.0953  0.0770
23836W        W27056  17.135   8.199   0.747  0.3956  0.0287  0.2324
23837W        W27057   6.868  16.882   0.149 -0.0005 -0.0422  0.2371
23838W        W27058  10.840   8.746   5.491 -0.1471 -0.1841  0.2183
23839W        W27059   9.285  12.258  15.373 -0.1280  0.4115 -0.1678
23840W        W27060   4.838  13.244   2.593 -0.0470 -0.0717 -0.1041
23841W        W27061   5.297  14.972  12.916  0.0735  0.0964  0.0662
23842W        W27062   4.855   2.124   1.250  0.1355  0.0505 -0.0915
23843W        W27063  11.145   9.605   5.806  0.1029  0.2087 -0.0503
23844W        W27064  11.614   6.352   6.731 -0.0525  0.1009 -0.1423
23845W        W27065  14.639  13.444   3.264 -0.1271  0.2542  0.0138
23846W        W27066  15.315  14.899  16.985  0.2161 -0.1187 -0.0979
23847W        W27067   7.892   5.965   2.293 -0.3891 -0.1184 -0.0326
23848W        W27068  12.306   5.323   6.090 -0.2902  0.2432 -0.0917
23849W        W27069  11.283   2.877   5.281 -0.1539  0.1340 -0.2827
23850W        W27070   9.274  10.390  17.031  0.1604 -0.0154  0.3839
23851W        W27071  11.169   9.199   2.102 -0.1095 -0.4517 -0.3785
23852W        W27072  11.677   7.676   1.209 -0.0856  0.1522 -0.2856
23853W        W27073   8.270   2.910  11.759 -0.2460  0.2246  0.0189
23854W        W27074  11.783  13.296  18.188  0.3003 -0.1068  0.1884
23855W        W27075  12.406   9.751   9.712  0.0984 -0.1622 -0.0552
23856W        W27076   7.951   2.931  15.808 -0.0244 -0.2664 -0.0818
23857W        W27077  14.278   5.802   8.153  0.0520 -0.3159 -0.1729
23858W        W27078  10.559   3.900   7.548 -0.1322  0.0874  0.1347
23859W        W27079   9.611   4.985   5.320 -0.0898 -0.1694 -0.2456
23860W        W27080  12.065   7.436   0.154  0.0506 -0.3805  0.2529
23861W        W27081  10.072   8.586  16.977 -0.0239 -0.3271 -0.1489
23862W        W27082  10.110  13.583   6.401 -0.0254  0.2649  0.0786
23863W        W27083   7.202   8.790   1.258  0.1456  0.0248 -0.0158
23864W        W27084   7.792   5.925   2.834 -0.1761  0.0493  0.0643
23865W        W27085   7.796   9.036  17.249  0.1868 -0.0467  0.0601
23866W        W27086   9.710   1.315   5.583  0.1195  0.1528  0.2748
23867W        W27087  13.590   8.692   0.021  0.0390 -0.1262 -0.1549
23868W        W27088  12.419   3.953  17.375  0.2180  0.1349  0.2099
23869W        W27089   3.643  15.593   5.445  0.1394 -0.1872  0.0726
23870W        W27090  11.828  12.227   3.535 -0.0921  0.0425 -0.0284
23871W        W27091   2.473   9.078   7.786  0.1636 -0.0749 -0.3378
23872W        W27092  14.467   5.125  11.912 -0.2887 -0.0442  0.0907
23873W        W27093  12.956  11.656   4.044  0.4349  0.0532 -0.1048
23874W        W27094   4.025   8.072   0.078 -0.4016 -0.0588  0.1064
23875W        W27095   6.439   1.161   4.824 -0.0043 -0.1721  0.0013
23876W        W27096   6.562  10.557   7.351  0.0072  0.2658  0.1550
23877W        W27097   7.040  17.577   3.583  0.1201  0.0978  0.0239
23878W        W27098   7.982   8.011   7.559 -0.0178 -0.2813  0.1609
23879W        W27099  11.119  11.657   5.931 -0.0473 -0.3485 -0.4104
23880W        W27100  12.681   7.786   2.269 -0.2779 -0.0393 -0.0738
23881W        W27101   6.535   5.813   3.551 -0.0228  0.1555  0.0701
23882W        W27102  16.278   1.296   4.791 -0.0842  0.1035  0.1128
23883W        W27103  13.744   8.609   1.006  0.0242 -0.3412 -0.2331
23884W        W27104   7.994  13.824   1.127  0.0558 -0.0196 -0.2100
23885W        W27105   2.440  15.599   0.861  0.0446  0.0524  0.0980
23886W        W27106   7.015   7.624   1.238  0.2888 -0.2696 -0.1864
23887W        W27107   6.716  10.357  11.437  0.0493 -0.1640 -0.1473
23888W        W27108  13.864  15.820   9.818 -0.2980  0.0664  0.2540
23889W        W27109  13.279  12.455   7.608  0.0181  0.0202  0.2909
23890W        W27110  15.372  11.967  18.179  0.0671  0.1145 -0.0316
23891W        W27111   7.290   8.315   7.064 -0.1930 -0.2249 -0.2075
23892W        W27112   4.640   9.749   8.209 -0.1005  0.3291  0.0690
23893W        W27113   4.038   4.259   6.767 -0.0132  0.1863 -0.0761
23894W        W27114   6.287   6.769  17.821  0.1576 -0.4178 -0.0417
23895W        W27115  13.072  12.475  10.632  0.0938  0.1730  0.3237
23896W        W27116  16.117  10.363  12.728  0.2241  0.3477  0.1818
23897W        W27117   7.614  15.810   1.505 -0.1491  0.1504  0.0881
23898W        W27118  14.065  12.953   6.612 -0.2750  0.0015  0.2740
23899W        W27119  12.066  12.484   6.589 -0.1979  0.2183  0.1246
23900W        W27120   8.867  17.488   0.416  0.0383  0.0823 -0.1839
23901W        W27121   9.666  11.776  16.647  0.0286  0.2185  0.0285
23902W        W27122  13.646   8.077   7.766  0.0441 -0.0592  0.0339
23903W        W27123   7.412  17.104  11.760  0.0486  0.3863 -0.0384
23904W        W27124  11.028   5.195  17.626 -0.1998  0.2664  0.1629
23905W        W27125   6.558  13.636   3.349  0.1257  0.2006  0.2236
23906W        W27126   7.957   5.919  16.608 -0.1085 -0.0329 -0.3880
23907W        W27127  16.753  10.748  17.163  0.0097  0.2040  0.1544
23908W        W27128   6.828   8.957  17.469 -0.1726 -0.1944  0.0551
23909W        W27129   2.236   6.502   6.041 -0.2056 -0.1304 -0.0910
23910W        W27130  13.682   8.298  13.564 -0.2321 -0.2827  0.0551
23911W        W27131   9.577   7.675   0.026  0.3054  0.1201  0.0299
23912W        W27132   7.774  16.095   3.075 -0.3717 -0.1065  0.1153
23913W        W27133  10.074   6.468   0.357 -0.1362 -0.3324  0.2684
23914W        W27134   9.972   2.945   5.394 -0.2132 -0.0856  0.0287
23915W        W27135  16.640   7.132   6.470  0.2745  0.1486 -0.0395
23916W        W27136  10.313  11.417  17.786 -0.2665 -0.3524 -0.3052
23917W        W27137   9.494  10.485  17.998 -0.1582 -0.1229  0.0985
23918W        W27138  12.032   6.843  17.725  0.0133  0.3723  0.0645
23919W        W27139  13.363   7.107  15.457 -0.0720 -0.0971 -0.1794
23920W        W27140  10.975  11.458  16.787 -0.0921 -0.0073 -0.2539
23921W        W27141   8.860   7.627   2.770  0.1035  0.1086 -0.4250
23922W        W27142   5.073   9.455   3.553  0.1221  0.0899  0.0462
23923W        W27143  16.205   3.463   8.145  0.2682 -0.3592  0.1552
23924W        W27144  12.574   9.143   7.867  0.5537  0.1727 -0.2111
23925W        W27145  10.800  13.489   5.587  0.3694 -0.3863  0.3291
23926W        W27146   9.403   4.771   1.239  0.0501 -0.0090  0.1758
23927W        W27147  12.109  10.782   1.095  0.0709  0.0979 -0.3570
23928W        W27148   8.468  17.985  15.680 -0.0324  0.1674 -0.1985
23929W        W27149  14.472  10.055   7.481  0.1194  0.0413 -0.0889
23930W        W27150   9.630   7.420   2.713  0.1834 -0.1058  0.2282
23931W        W27151   8.648   8.576   2.706 -0.0382  0.0317  0.2905
23932W        W27152   9.529   9.497   1.463 -0.3314  0.0273 -0.3718
23933W        W27153   5.928   6.592  17.537  0.3050  0.0329 -0.0244
23934W        W27154  14.624   3.828   7.218  0.1309 -0.1132  0.1050
23935W        W27155   8.947   6.096  14.049 -0.2569  0.0903 -0.0543
23936W        W27156  16.957   0.855   0.277 -0.0424  0.2950  0.1378
23937W        W27157  10.749   3.703   6.637  0.1672  0.1728 -0.0665
23938W        W27158  12.779   7.452  16.145 -0.0920 -0.2017  0.0006
23939W        W27159   4.570  11.062  18.160 -0.3265 -0.0617  0.0797
23940W        W27160   2.466  15.347   3.037  0.2908 -0.2351  0.0348
23941W        W27161  17.647   9.933  16.533  0.0428  0.2027 -0.3192
23942W        W27162  11.494   9.787   0.199 -0.3080 -0.0224  0.2183
23943W        W27163   4.098  13.241   2.306 -0.2189 -0.1000 -0.5124
23944W        W27164   7.762   8.355   6.771  0.1025 -0.0503 -0.4174
23945W        W27165   2.143  11.459  16.200 -0.0323  0.2915 -0.4669
23946W        W27166  10.371   3.137   2.494 -0.2019  0.0788 -0.2036
23947W        W27167  17.691  11.546  17.447  0.0518 -0.3671 -0.0242
23948W        W27168  14.341   8.619   4.176 -0.1573 -0.2873 -0.1095
23949W        W27169  15.609  12.413   5.847 -0.1834 -0.0743  0.2027
23950W        W27170   7.863   6.530  10.883  0.2478 -0.3505 -0.2877
23951W        W27171   6.411  13.814   2.847 -0.2174 -0.3097  0.1273
23952W        W27172   9.312   6.247  10.519 -0.0031 -0.1358 -0.1712
23953W        W27173  13.336   7.053   4.542  0.1192 -0.2146  0.2261
23954W        W27174  16.404  11.179  14.683  0.0309  0.3771 -0.0271
23955W        W27175   5.584  15.168   1.920  0.1400  0.2255  0.0389
23956W        W27176   7.608  10.622  16.858 -0.2950  0.2411  0.1569
23957W        W27177  11.332  16.905   2.423 -0.2047  0.1783 -0.1377
23958W        W27178  10.893   3.469   1.967 -0.1754  0.4675 -0.0764
23959W        W27179   3.817  14.624   5.438  0.1823 -0.1426  0.0662
23960W        W27180   6.152  11.226   3.569 -0.0699  0.0053  0.0278
23961W        W27181  13.112   5.362  17.634 -0.1729  0.0998 -0.0768
23962W        W27182   8.356   9.543   5.960 -0.0292 -0.0709 -0.0177
23963W        W27183  12.621   1.143   5.205 -0.0450  0.0248 -0.0733
23964W        W27184  11.928   1.803  16.410  0.0970  0.1914 -0.0852
23965W        W27185   9.869  16.520   8.676 -0.0178 -0.0011 -0.0373
23966W        W27186   8.895   7.790   3.260 -0.2494  0.2691 -0.4045
23967W        W27187   7.364   3.455  10.138  0.1796  0.3008 -0.0085
23968W        W27188  11.311   5.400   0.265  0.0357  0.1221 -0.0733
23969W        W27189   5.088  14.218  17.968 -0.2080  0.1487  0.2653
23970W        W27190  11.174  10.437  16.039  0.3003 -0.1278  0.1308
23971W        W27191   5.611   2.969   5.321 -0.3550  0.1432  0.0636
23972W        W27192   7.985  16.689   7.577  0.0866 -0.0306  0.0196
23973W        W27193   7.222  10.186   0.149  0.2088 -0.4845 -0.0536
23974W        W27194   8.083  14.287   4.092 -0.4062 -0.0447  0.2195
23975W        W27195   1.177  10.617  17.454 -0.2424  0.2875 -0.1255
23976W        W27196   1.472  15.238  11.510  0.1352 -0.2125 -0.0203
23977W        W27197   8.687   9.866  17.628 -0.2656 -0.1900 -0.1295
23978W        W27198   5.579  13.182  16.457 -0.0942  0.3537 -0.0832
23979W        W27199  15.746   0.311   2.453 -0.1044  0.2181  0.0495
23980W        W27200   7.218   5.922  18.063  0.1221 -0.1094  0.0113
23981W        W27201   8.648  15.189  17.103 -0.0061  0.4388 -0.2170
23982W        W27202   4.715   9.938   0.972  0.0425 -0.2461 -0.3453
23983W        W27203   1.508  12.391  18.119 -0.1160  0.0811 -0.0585
23984W        W27204  16.964   2.650   5.620  0.2392 -0.0708 -0.0878
23985W        W27205  17.494   6.884   0.072 -0.2156 -0.1891  0.1658
23986W        W27206   4.692  15.781   2.779  0.1254 -0.1957 -0.0808
23987W        W27207   2.352   6.851   1.682  0.0663 -0.1325  0.4648
23988W        W27208   3.899  11.750   1.775  0.2550  0.1110  0.1517
23989W        W27209  13.898  10.045   4.617 -0.1673  0.1985  0.1170
23990W        W27210   7.123   3.656   4.035 -0.2722 -0.2170 -0.0282
23991W        W27211  10.356   9.450   3.467  0.1653 -0.0462 -0.0964
23992W        W27212   7.370  11.000   7.513 -0.1495 -0.0309  0.2200
23993W        W27213  13.828   5.295   4.511  0.1415 -0.0218 -0.0691
23994W        W27214   4.253  12.239   7.086  0.2399  0.2095 -0.1091
23995W        W27215   4.385   3.893  14.475  0.2695  0.0643  0.0353
23996W        W27216   6.743   8.927   1.454 -0.2942  0.1185 -0.3568
23997W        W27217  11.005  14.088  10.815 -0.0118  0.0786 -0.3044
23998W        W27218   4.191   5.681   2.082 -0.0046  0.1139  0.3099
23999W        W27219   7.473   3.533  16.688 -0.2396  0.0051 -0.1667
24000W        W27220  13.113  12.769   1.874  0.2597 -0.0603 -0.1365
24001W        W27221   2.427   4.775   2.606 -0.2905  0.1990 -0.2914
24002W        W27222   9.960   7.759   4.289 -0.1261 -0.1545  0.2447
24003W        W27223  10.246   8.555   0.651 -0.0713 -0.0387 -0.3914
24004W        W27224   6.772   7.010   4.455  0.4723 -0.0780 -0.1431
24005W        W27225   7.437   8.231   3.853 -0.2595  0.0517 -0.2003
24006W        W27226   5.013   1.893   4.369  0.0410 -0.0845  0.1568
24007W        W27227  13.522  13.398  18.222  0.2819  0.0150 -0.1171
24008W        W27228   5.112   7.253   0.553  0.3925 -0.0819  0.0615
24009W        W27229  10.628   8.167   3.524 -0.2293  0.2588 -0.0869
24010W        W27230   6.439   9.873   1.466 -0.1022  0.4283  0.1580
24011W        W27231   8.383  10.576  17.206 -0.2420  0.2017  0.1632
24012W        W27232  11.435  13.779   0.821  0.0813 -0.0698  0.1344
24013W        W27233  13.669  10.111  15.369 -0.0448  0.0102  0.0558
24014W        W27234   6.228  11.743  11.087 -0.0151 -0.1944  0.0753
24015W        W27235  11.851   4.120   5.860  0.0336  0.0278  0.4288
24016W        W27236   4.302  11.653  15.343  0.0632  0.1790 -0.1865
24017W        W27237   3.734   7.057  17.492  0.1474 -0.0025 -0.1062
24018W        W27238  12.377   9.440   0.870 -0.3787 -0.1298 -0.2097
24019W        W27239   6.185   6.397   6.865  0.3045 -0.0382  0.1493
24020W        W27240   4.546   9.389   0.045  0.1913  0.1294  0.1274
24021W        W27241  10.033   2.019   0.446  0.4197 -0.1981 -0.2422
24022W        W27242  11.885   9.843   1.476  0.0550  0.2791 -0.1351
24023W        W27243  10.079  13.622   4.901 -0.2003 -0.2666 -0.0358
24024W        W27244   8.475   6.555   6.538 -0.0338 -0.0947  0.3579
24025W        W27245  12.378  17.839   4.461  0.0486 -0.1463  0.0515
24026W        W27246   5.692   7.954   4.876 -0.1998  0.0009 -0.1291
24027W        W27247   6.545  10.200   6.050  0.2386 -0.2688  0.0552
24028W        W27248  10.241   6.888   1.930  0.0148  0.0351 -0.1240
24029W        W27249  10.453   9.876  17.333  0.0838  0.1485 -0.0498
24030W        W27250   8.517   9.582   2.285 -0.3850 -0.0906 -0.1163
24031W        W27251   6.797   8.531   3.196 -0.1582 -0.0063 -0.5800
24032W        W27252   4.255   8.698  13.919  0.0793 -0.2460  0.1004
24033W        W27253   3.700   2.284   6.078 -0.1738  0.0417  0.2341
24034W        W27254  13.806   5.279  14.714  0.0652 -0.1140  0.0894
24035W        W27255   6.376  18.188   0.454  0.1032  0.1877 -0.2689
24036W        W27256  13.388  17.617  16.779  0.0345  0.2197 -0.0327
24037W        W27257   8.786  15.568  17.792 -0.1421 -0.1874 -0.1001
24038W        W27258  14.452   5.363  11.216 -0.0933 -0.3115  0.1831
24039W        W27259   6.705  10.607  14.728 -0.0497 -0.0140  0.1133
24040W        W27260  12.428  11.137   3.116 -0.0441 -0.0333 -0.3488
24041W        W27261   9.809   7.881   3.823 -0.3056 -0.0079  0.1617
24042W        W27262  10.165   7.943  14.986 -0.0636 -0.1624 -0.0274
24043W        W27263   7.548   7.244   5.922  0.0354  0.3045 -0.0477
24044W        W27264   8.233  11.239  14.135 -0.1287  0.0680 -0.1067
24045W        W27265   9.799  15.164   0.887 -0.1584  0.3623 -0.0972
24046W        W27266   5.277  11.616   1.025  0.0202  0.0561  0.0413
24047W        W27267   8.624  13.899  13.127 -0.0012 -0.2067 -0.0122
24048W        W27268  11.999  12.045   4.636  0.0120  0.1260 -0.0272
24049W        W27269   3.784   9.380   5.294  0.0268  0.1311  0.3070
24050W        W27270  13.808  13.255   9.038  0.0712 -0.3341 -0.0322
24051W        W27271  15.471  12.850   7.603  0.0785  0.1275  0.3118
24052W        W27272   6.971   6.622  15.767 -0.1716  0.2388 -0.1601
24053W        W27273  11.801  11.614   0.576 -0.0277 -0.0355  0.1605
24054W        W27274   5.278  11.493  15.898  0.1075  0.1415 -0.2182
24055W        W27275   5.778  11.972   8.710 -0.1507 -0.0351  0.0912
24056W        W27276   0.543  13.546   8.434  0.1816  0.0223  0.1024
24057W        W27277  14.201   1.772  10.254 -0.1550  0.3673 -0.0173
24058W        W27278  16.811   1.986  13.522  0.3238 -0.2013 -0.2086
24059W        W27279   8.258   9.917   3.715 -0.0448  0.0667 -0.3421
24060W        W27280  15.049   5.758   4.230 -0.2750  0.1326 -0.2886
24061W        W27281   9.464   9.162   3.044  0.0052 -0.0958 -0.0479
24062W        W27282   3.175   3.659   6.512  0.1287 -0.0884  0.1375
24063W        W27283   8.967  11.041  10.130  0.1371  0.1288 -0.0086
24064W        W27284   9.735   7.801  17.741  0.2029  0.2768  0.1741
24065W        W27285   7.350   3.189   6.225  0.1159  0.1605 -0.0585
24066W        W27286   9.954   7.489   6.969 -0.1125  0.1002  0.1538
24067W        W27287   6.795  10.060  11.025 -0.0507  0.3549 -0.2039
24068W        W27288  17.571  11.008   9.589 -0.3001 -0.0937 -0.0954
24069W        W27289   8.892   4.460   8.415  0.1601  0.4653 -0.0394
24070W        W27290  12.492   8.714  11.197 -0.0787  0.1367 -0.1009
24071W        W27291  17.837  11.396   8.222 -0.0117 -0.3215 -0.0455
24072W        W27292   9.857  14.353   1.550 -0.0405 -0.1304  0.0615
24073W        W27293   4.826   2.143   6.729 -0.0494  0.0154  0.0728
24074W        W27294  16.355   7.955   6.339  0.0872  0.0775 -0.1983
24075W        W27295   9.005   3.063   4.394  0.2317 -0.0812  0.0466
24076W        W27296   1.244  10.906   9.647 -0.3273  0.2230 -0.1910
24077W        W27297  12.254   5.848   7.169 -0.1383  0.4730 -0.2506
24078W        W27298   8.186  13.746   3.310 -0.0071 -0.3547 -0.1831
24079W        W27299  12.485  11.623  10.476 -0.0442 -0.1389 -0.1274
24080W        W27300   3.367   6.303  13.871 -0.1209  0.3706 -0.2477
24081W        W27301   5.080  11.973   7.666  0.0084  0.0584 -0.1629
24082W        W27302   4.483   7.719  10.961  0.0546  0.0538 -0.2075
24083W        W27303   1.629  10.714   5.528  0.0319 -0.1082  0.0054
24084W        W27304   9.273   5.857   0.325  0.4148 -0.2314 -0.0776
24085W        W27305  12.550  10.504  15.879  0.0897 -0.1873  0.1686
24086W        W27306   6.882   6.136   4.821 -0.4832 -0.1181 -0.1740
24087W        W27307   6.653   4.159   8.334 -0.2328 -0.1703 -0.1336
24088W        W27308   5.712   6.833   6.032  0.0294 -0.1250 -0.1018
24089W        W27309   9.112  11.151  15.082 -0.0457  0.2841  0.0927
24090W        W27310   6.884  15.304   7.029  0.0575 -0.0084  0.1953
24091W        W27311  10.213   2.523   5.316  0.1814 -0.2965  0.0660
24092W        W27312   5.184   3.413   6.967  0.5996 -0.1725 -0.2024
24093W        W27313  12.478   7.673   6.676 -0.0520  0.0189  0.3170
24094W        W27314   6.653   0.013   5.817 -0.0291 -0.1631  0.0422
24095W        W27315  17.094  11.767  14.126  0.0765 -0.6570 -0.1087
24096W        W27316   5.967  12.746   0.860 -0.2852 -0.0006  0.1147
24097W        W27317   5.957   9.723   7.322 -0.4394  0.4681  0.0570
24098W        W27318  13.643  13.144   5.602 -0.0583 -0.1825  0.4144
24099W        W27319  11.540  16.131   0.506  0.3668 -0.2896 -0.0510
24100W        W27320  11.271   9.050   5.809 -0.0048  0.2497  0.0423
24101W        W27321  14.524   9.534   6.246 -0.0484 -0.0597 -0.1686
24102W        W27322  10.623   4.108   5.435 -0.0615 -0.2460 -0.1002
24103W        W27323   1.214  18.260   6.371  0.2502 -0.1147 -0.1465
24104W        W27324   7.802   5.019   9.150  0.0486 -0.1225 -0.0942
24105W        W27325  12.398   5.446  18.129 -0.2215 -0.1873 -0.1713
24106W        W27326   6.275  12.700  17.756 -0.0695 -0.1336  0.0584
24107W        W27327  15.968  10.525  18.084  0.1026 -0.2141 -0.1109
24108W        W27328  14.333   3.609   2.090 -0.1201 -0.1177 -0.0846
24109W        W27329  10.177  15.045  10.175 -0.2784  0.2975 -0.1341
24110W        W27330  10.617   7.858   8.992 -0.0989 -0.4269  0.0559
24111W        W27331  12.787  14.038   2.470 -0.0795 -0.0948  0.4029
24112W        W27332  16.176   5.710   6.541 -0.5072  0.1486 -0.0754
24113W        W27333  14.973   7.006   9.176  0.0591 -0.1872  0.0483
24114W        W27334  11.683  13.368   0.863 -0.1436  0.1262  0.1676
24115W        W27335   6.211   6.915   8.379 -0.0719 -0.1687  0.2180
24116W        W27336   3.581   2.935   7.959 -0.0844  0.0052  0.1049
24117W        W27337   0.256   6.614  11.042 -0.0340  0.0276 -0.0002
24118W        W27338   4.458  10.278  13.801  0.2216 -0.0425 -0.1592
24119W        W27339   9.945   9.773   4.304 -0.0300  0.1736 -0.0062
24120W        W27340  10.415  13.986   6.172 -0.3701 -0.1614  0.2945
24121W        W27341  15.552  12.838   4.956  0.2290  0.3055 -0.1053
24122W        W27342  10.186   3.050   2.932  0.0537 -0.2354 -0.4215
24123W        W27343   7.700  17.815   5.319 -0.1910 -0.0591 -0.1890
24124W        W27344   8.467   8.439   4.862  0.2511  0.0398 -0.0561
24125W        W27345   3.952  13.313   7.901 -0.1518  0.2613 -0.2064
24126W        W27346  11.074  11.479  10.520 -0.1198 -0.1575 -0.0361
24127W        W27347   6.934   3.726   2.449  0.1334  0.1215 -0.0513
24128W        W27348   8.830  15.241   3.163 -0.0188 -0.2307  0.0038
24129W        W27349   7.927  14.453  17.885  0.2046 -0.1178 -0.1106
24130W        W27350   7.328   8.448   7.637 -0.0322 -0.0320  0.1509
24131W        W27351  12.057  10.024   2.444  0.0206  0.0662 -0.0441
24132W        W27352  16.447  10.135   2.878 -0.2212 -0.0286  0.0898
24133W        W27353  16.282   9.577   3.543 -0.1328  0.0189 -0.0004
24134W        W27354  13.037   9.751   1.920  0.0480 -0.3780 -0.1230
24135W        W27355  17.857  10.896   7.908 -0.1411 -0.0130 -0.0052
24136W        W27356  17.013   7.304  13.649 -0.2786  0.0527  0.0715
24137W        W27357  10.840   5.789   6.636 -0.3880  0.0522  0.0253
24138W        W27358  15.259  12.486  10.065  0.0683 -0.0632  0.0003
24139W        W27359   5.445   9.155   6.082 -0.3153  0.0002 -0.2805
24140W        W27360   6.278   8.265   5.667 -0.1880 -0.0327 -0.3963
24141W        W27361  10.248   3.691  12.638  0.0664  0.3847 -0.0825
24142W        W27362  11.776  11.370  11.111  0.0342 -0.0554 -0.1532
24143W        W27363  13.607   4.895   3.717  0.3576 -0.0110  0.0215
24144W        W27364  14.227  14.141   1.395  0.1868  0.2088 -0.3121
24145W        W27365  11.669   1.798   6.879  0.0878 -0.1024  0.1734
24146W        W27366  13.258   6.734   8.298  0.0620  0.0616 -0.0415
24147W        W27367  17.796   8.483   8.213  0.0367 -0.4380  0.3315
24148W        W27368   8.253  13.207   1.839 -0.3637  0.2856 -0.3593
24149W        W27369   8.864   8.437   8.217 -0.0547  0.0357 -0.0205
24150W        W27370   6.996   7.580   3.439  0.1707  0.0337 -0.0505
24151W        W27371   2.091   6.018   5.903  0.1673  0.0892  0.0605
24152W        W27372  10.632   8.323   5.769  0.0299 -0.3909  0.0409
24153W        W27373  14.467   1.556   7.287 -0.1554 -0.1078 -0.2561
24154W        W27374  14.296  12.426   3.380  0.0510 -0.0413  0.3531
24155W        W27375   7.952   9.016  11.398  0.1740  0.3605 -0.1305
24156W        W27376  17.601  13.495   7.219 -0.3392 -0.2753 -0.0827
24157W        W27377  14.622   8.147   8.875 -0.3556  0.0412  0.1196
24158W        W27378  15.072   6.404  12.272  0.0598  0.0656 -0.2269
24159W        W27379  18.099  13.508   3.988 -0.0447  0.3035  0.0530
24160W        W27380  16.613   5.673   8.933 -0.1148  0.2750 -0.0543
24161W        W27381  14.146   3.935   7.978  0.2484 -0.2416 -0.0449
24162W        W27382  15.339  13.669   4.407  0.0649  0.2016  0.0094
24163W        W27383  13.865  12.126   9.394 -0.1332  0.2813  0.3111
24164W        W27384   9.650   5.151   5.874  0.0023 -0.0674  0.1822
24165W        W27385  10.694   8.371   5.186 -0.0617 -0.1794 -0.0500
24166W        W27386   8.409   6.170  12.562  0.1500  0.2733 -0.1159
24167W        W27387  10.213  14.464   1.909  0.0133 -0.2544  0.2299
24168W        W27388  16.243   8.426  11.258 -0.2351  0.2748  0.1950
24169W        W27389  10.201   6.664   9.138 -0.1664  0.0489  0.1012
24170W        W27390   9.750  10.072   8.179 -0.0419  0.5406 -0.2390
24171W        W27391  13.418  11.693   6.344 -0.1982 -0.0199  0.0752
24172W        W27392   6.233  16.384   4.420 -0.0598 -0.0605  0.1699
24173W        W27393  10.813   6.118   9.595 -0.1535 -0.0046  0.0246
24174W        W27394   7.673   3.574   6.101 -0.2287  0.0254  0.0871
24175W        W27395   9.842   5.699  12.461 -0.1371  0.4341  0.2024
24176W        W27396  14.288  11.798   4.285  0.1326 -0.2142  0.0152
24177W        W27397   2.283  16.906  17.433  0.0381  0.1312  0.0689
24178W        W27398  10.830  16.627   8.168  0.0980 -0.1818 -0.5311
24179W        W27399   7.774  10.759   5.339 -0.1247  0.1400 -0.1177
24180W        W27400  10.833   8.074   9.615 -0.1580  0.1306  0.1648
24181W        W27401  12.371   4.788   8.403  0.2741  0.0650  0.1242
24182W        W27402  16.951   3.415  10.854 -0.2167 -0.1579  0.0248
24183W        W27403   9.601   5.763   3.974 -0.1906  0.0597  0.2732
24184W        W27404   7.033   1.907   4.802 -0.1067 -0.2835  0.0692
24185W        W27405   6.249   6.938   1.754  0.1806  0.1881 -0.2131
24186W        W27406   3.962  13.969  18.128  0.1137 -0.2169  0.0173
24187W        W27407   9.223   8.353   1.134  0.0528  0.0982 -0.0862
24188W        W27408   2.904   5.607   1.248  0.0633  0.5181 -0.1739
24189W        W27409  11.014  10.092   7.532 -0.0571  0.0585  0.2583
24190W        W27410   7.045   6.252  13.665 -0.1028 -0.5870 -0.2702
24191W        W27411   7.648  11.933   4.028 -0.1745 -0.2388 -0.1431
24192W        W27412   9.157  10.256  13.430 -0.0834 -0.2103  0.2045
24193W        W27413  15.088  12.339   4.450  0.3195 -0.3126 -0.0935
24194W        W27414  10.951   3.162  10.296  0.0230 -0.4523 -0.0870
24195W        W27415  15.419   9.767   2.201  0.3811 -0.0821 -0.1285
24196W        W27416   8.754   8.546   6.547  0.0687 -0.1825  0.3067
24197W        W27417  10.052   3.049   7.592  0.0276  0.0962  0.0820
24198W        W27418  11.516  15.082   3.513  0.1388  0.0114 -0.2098
24199W        W27419   8.640  12.280   4.552  0.0631 -0.2015 -0.1254
24200W        W27420  11.666   7.793   9.284 -0.1270  0.0708 -0.1452
24201W        W27421   9.062   8.735   7.855 -0.1764  0.1143 -0.3324
24202W        W27422   4.113   5.550  15.020  0.0101 -0.0939  0.1072
24203W        W27423   9.989  14.384  17.686  0.4093 -0.0139 -0.1046
24204W        W27424   9.694   2.313   3.313  0.2530 -0.1696  0.2567
24205W        W27425  10.438   8.840   9.022 -0.0875 -0.0973  0.5533
24206W        W27426  16.262   6.226   0.512  0.0341  0.1620  0.0797
24207W        W27427   7.708  12.942  10.779 -0.1068 -0.2146  0.2262
24208W        W27428  11.849   0.624  17.853  0.0422  0.0025 -0.1970
24209W        W27429  13.576   6.619   0.403  0.0955 -0.1092 -0.1613
24210W        W27430  11.944   2.727   9.430 -0.0995 -0.0464 -0.0143
24211W        W27431  11.505   7.392   7.293 -0.2212  0.2121  0.3193
24212W        W27432  14.401   9.522   7.682  0.0526  0.2654  0.0864
24213W        W27433   7.460  15.650   2.980  0.1325 -0.0003  0.2982
24214W        W27434  15.783   8.617  10.535 -0.1007 -0.1732 -0.1278
24215W        W27435  10.922  11.396   4.371  0.2403 -0.3473  0.0505
24216W        W27436   7.938  11.083   4.739 -0.0733  0.4387 -0.0603
24217W        W27437   6.739  10.474   4.275 -0.1124  0.0013  0.2430
24218W        W27438   6.683  10.196   1.013 -0.4403  0.1879 -0.0273
24219W        W27439   8.969   9.126   9.201  0.0833  0.1860 -0.0103
24220W        W27440  12.720   5.950   7.389  0.1065 -0.2541 -0.0564
24221W        W27441   9.719   6.593   5.282 -0.1144  0.0322  0.3000
24222W        W27442   5.753  11.574   4.082 -0.1860  0.1865  0.2144
24223W        W27443  13.243  10.779   9.674 -0.0292 -0.3158  0.1545
24224W        W27444   6.604   8.090   5.280  0.2235 -0.0697 -0.1229
24225W        W27445   0.937   8.327   2.847  0.0066 -0.0423  0.1489
24226W        W27446   5.748  10.561   1.970 -0.0751 -0.0395  0.2966
24227W        W27447   7.942  11.065   2.218  0.1995 -0.0049  0.0143
24228W        W27448   8.188   8.155   4.568  0.0128 -0.0710  0.1540
24229W        W27449   5.885  12.707   2.973  0.1010  0.1799  0.0734
24230W        W27450   6.535   9.570   1.984 -0.4501  0.1541 -0.1397
24231W        W27451  10.398  15.425  17.937 -0.0294 -0.0184 -0.1541
24232W        W27452  12.380   9.792   7.383  0.2920  0.1306  0.2248
24233W        W27453  11.621  12.477   6.860  0.1124 -0.0134  0.2541
24234W        W27454  11.639   6.262   8.581  0.2482  0.1417 -0.2231
24235W        W27455   3.806   8.429   6.554 -0.1732 -0.1681 -0.0824
24236W        W27456  13.370   7.362   5.490 -0.0519 -0.0454 -0.4087
24237W        W27457  16.313  13.404   5.038  0.0617 -0.1142 -0.4496
24238W        W27458   8.182  10.580   7.726  0.0268 -0.0156  0.0237
24239W        W27459   4.936   5.833  15.582  0.2410  0.2795  0.1223
24240W        W27460  15.259   9.659   7.329  0.2069  0.4417  0.0382
24241W        W27461   8.918   7.197   0.798  0.1375 -0.3393 -0.1367
24242W        W27462  10.915   5.774   1.011  0.2884 -0.1685  0.0330
24243W        W27463   6.908   3.377   0.398  0.0764  0.1234 -0.1746
24244W        W27464   7.341  12.303   8.136 -0.1203  0.1493 -0.0548
24245W        W27465  12.564   4.649   0.553 -0.1991 -0.3678 -0.0052
24246W        W27466  14.559   6.361   6.084 -0.1081 -0.3529 -0.2375
24247W        W27467   5.725   0.411   1.621 -0.0927 -0.1789 -0.1463
24248W        W27468   4.258   5.919  10.337 -0.1476  0.0449  0.0211
24249W        W27469  14.359   8.115   5.099 -0.2184  0.2494  0.1704
24250W        W27470  12.228  14.203   7.664 -0.2886 -0.0047 -0.1424
24251W        W27471  15.058  11.631   8.587 -0.3744  0.1570  0.0445
24252W        W27472  15.629   3.920   0.813 -0.2149 -0.2268  0.0810
24253W        W27473   8.625   0.551   1.862 -0.0116 -0.0334  0.0832
24254W        W27474   8.743   3.032   5.428 -0.1455  0.1381  0.0421
24255W        W27475   1.658   3.635   8.238  0.0396  0.2064  0.1404
24256W        W27476  11.738   9.720  17.936  0.0334  0.5312  0.0990
24257W        W27477  12.357  14.535   1.482 -0.2907 -0.1174 -0.3180
24258W        W27478  11.897  16.268   5.356  0.0967  0.2442 -0.1716
24259W        W27479  11.774   6.212   5.881  0.0895 -0.2547  0.0344
24260W        W27480   9.833   6.485   6.050  0.0864 -0.1631 -0.0489
24261W        W27481   6.897   3.324   3.264 -0.3915  0.4088  0.0078
24262W        W27482  14.102  11.488   3.733 -0.1866 -0.2282  0.3639
24263W        W27483   9.274  15.122   4.086 -0.2558 -0.0896 -0.1596
24264W        W27484  10.650  16.771   1.188 -0.2429  0.1202  0.2297
24265W        W27485  15.482  11.810   7.734  0.2899  0.2157 -0.1354
24266W        W27486  11.835   7.864   5.066 -0.3662  0.0351  0.0472
24267W        W27487  10.884  11.684   9.993 -0.1593 -0.2915  0.0494
24268W        W27488  14.557  11.365  12.963  0.0624 -0.3564 -0.0149
24269W        W27489  11.385   9.460   8.287  0.0369  0.0733  0.3190
24270W        W27490  16.519  16.967  12.134  0.2890  0.1939  0.0997
24271W        W27491  12.267   6.210   9.778 -0.0730  0.1250 -0.0343
24272W        W27492   5.757  15.354   3.366 -0.0522 -0.0023 -0.0837
24273W        W27493  14.116   9.760  11.911  0.0793  0.0691 -0.2594
24274W        W27494  13.220  17.105   8.328  0.0798  0.1643 -0.1839
24275W        W27495  13.483   8.361   4.560 -0.0132  0.1157 -0.0114
24276W        W27496   4.451   9.557  14.914  0.1096  0.1168  0.1937
24277W        W27497   8.660   8.862   4.466 -0.1364 -0.0450  0.2403
24278W        W27498   8.240   6.685  12.447  0.2388  0.1093  0.0782
24279W        W27499   4.593   3.913   1.763  0.0703  0.1274  0.0031
24280W        W27500   4.566  10.864   7.611 -0.1213  0.1704 -0.0254
24281W        W27501  16.199  16.604   0.360  0.1195  0.0823  0.0010
24282W        W27502   7.571  12.627  16.866 -0.1881 -0.0427  0.2596
24283W        W27503  13.173  17.935  17.580 -0.1648  0.0352 -0.2200
24284W        W27504  16.788  10.678   4.247  0.1269  0.2969  0.0621
24285W        W27505  14.397  10.073   9.708  0.0791 -0.0526 -0.0127
24286W        W27506   3.554  14.272   8.056 -0.0604  0.1482 -0.1044
24287W        W27507   7.458   7.183   4.294  0.2906  0.3099 -0.0810
24288W        W27508   3.769  12.679  12.368 -0.0299 -0.1167  0.0552
24289W        W27509  10.278   8.121   4.432  0.0919 -0.1096 -0.0843
24290W        W27510   7.703   8.174   1.608 -0.0219 -0.1576 -0.0513
24291W        W27511   6.754   2.584   1.544 -0.0445  0.0869 -0.0348
24292W        W27512   4.811   3.302   8.928  0.1341  0.1400  0.4126
24293W        W27513   8.399  16.824   2.058 -0.0784 -0.1719 -0.3668
24294W        W27514  10.041   8.015   3.419 -0.1896 -0.0613 -0.0491
24295W        W27515  10.871  16.411  11.821 -0.0565 -0.0830  0.0426
24296W        W27516   2.391  10.038   3.890 -0.2845 -0.1107  0.1349
24297W        W27517   9.221   1.331   5.540 -0.1226  0.0689  0.3000
24298W        W27518  12.066   6.049   5.497  0.2163 -0.0284 -0.2192
24299W        W27519   3.427  11.091   8.398  0.0341 -0.2258 -0.0595
24300W        W27520  13.941  14.512  13.400 -0.1760  0.0370 -0.0990
24301W        W27521   9.151  11.856  13.938 -0.0792 -0.0466 -0.3249
24302W        W27522   5.144   8.227   5.228  0.0989  0.3512  0.0705
24303W        W27523   8.895   7.519   6.337 -0.1247  0.0706 -0.0480
24304W        W27524   6.927   7.998  18.192 -0.2336  0.4747 -0.2823
24305W        W27525  10.281   3.936   3.016 -0.0976 -0.2421  0.0217
24306W        W27526  12.470   9.700   8.566  0.0291 -0.1418 -0.3010
24307W        W27527  12.033  11.426   9.223  0.0519  0.0818  0.1088
24308W        W27528   3.921   5.627  13.297 -0.0876 -0.0021 -0.3126
24309W        W27529   7.536   8.254   5.622 -0.0080 -0.2062 -0.1035
24310W        W27530   8.997   6.521   2.941 -0.0595 -0.0008 -0.2180
24311W        W27531   7.922   6.818   0.617  0.0143 -0.1135  0.0160
24312W        W27532   7.597   3.896  13.806 -0.3897  0.5682  0.2936
24313W        W27533   9.540   6.127   3.453 -0.1445 -0.1132  0.1729
24314W        W27534   6.220   5.800   5.199 -0.0326  0.0212  0.0461
24315W        W27535   3.316  11.586   3.087 -0.1754  0.2141 -0.1385
24316W        W27536   9.418   8.771   5.337 -0.2981  0.0364  0.0880
24317W        W27537  16.623   6.706  12.420  0.0613  0.3193  0.0230
24318W        W27538   6.165  10.868   7.503  0.1867  0.0632 -0.0637
24319W        W27539  15.229   7.063  15.102  0.0969  0.1457 -0.0447
24320W        W27540   8.415   1.301  14.471  0.2058  0.4864  0.2465
24321W        W27541  11.545   6.631  12.008 -0.3797  0.0970 -0.2698
24322W        W27542   8.404   2.560   3.079  0.3699 -0.2217 -0.1661
24323W        W27543   8.695   3.627   4.145 -0.0066 -0.1318 -0.1737
24324W        W27544   5.919   1.561   3.181 -0.0614  0.1900 -0.0814
24325W        W27545   8.602   8.273   0.590  0.2400  0.0827  0.0451
24326W        W27546   4.043   4.999  10.566  0.0083  0.0704 -0.0420
24327W        W27547   9.333  10.140   7.409 -0.0161 -0.2756  0.2051
24328W        W27548  14.547   7.881  10.807  0.2006  0.1735  0.1520
24329W        W27549   5.591   0.362   0.358 -0.0771  0.1856  0.2178
24330W        W27550   7.333   5.849   4.881  0.2581  0.0558 -0.3538
24331W        W27551  12.600   4.738   5.676 -0.1258 -0.0764 -0.3677
24332W        W27552  10.975   6.699   5.530  0.0916  0.1060  0.2037
24333W        W27553  10.781   4.338  13.030  0.1317 -0.1643  0.0288
24334W        W27554  16.043   7.241  10.359 -0.0569 -0.0737 -0.1152
24335W        W27555   3.449   7.147   1.344  0.2734 -0.0731  0.4354
24336W        W27556   7.526  10.938   1.780  0.0582 -0.0616 -0.3842
24337W        W27557  12.092   3.289  17.765 -0.0353  0.0468  0.3262
24338W        W27558  11.914   4.211   6.730  0.1402 -0.2350 -0.0544
24339W        W27559  16.548   7.538   8.641 -0.1438 -0.1383 -0.0826
24340W        W27560  13.887   9.204   4.282 -0.0601  0.2378 -0.0690
24341W        W27561  10.269   7.611   4.666  0.0176  0.0682 -0.3744
24342W        W27562  13.294  11.419   3.692 -0.3649  0.1542  0.0304
24343W        W27563   7.784  10.622   3.864  0.3221  0.0655 -0.2086
24344W        W27564   9.035   4.416  12.311  0.2659  0.0612  0.1514
24345W        W27565  11.092   5.423  12.503  0.2797  0.0053  0.0374
24346W        W27566  14.760  13.431   6.731 -0.0283  0.1805 -0.0342
24347W        W27567   5.047  18.051   7.364  0.0630  0.1056  0.3781
24348W        W27568  16.930   5.570   9.834  0.3903  0.3930 -0.2686
24349W        W27569   5.163   7.930   4.816  0.1418  0.0397  0.2900
24350W        W27570   7.983   8.840   7.991 -0.0065 -0.0289 -0.3176
24351W        W27571   9.520   3.861   6.731 -0.0986 -0.0293  0.3580
24352W        W27572   7.764  10.021   6.709 -0.0264  0.0102 -0.3186
24353W        W27573  15.970  13.818   1.108 -0.2663 -0.2198 -0.2381
24354W        W27574  12.971  12.093  11.843 -0.0840 -0.1854 -0.1871
24355W        W27575   6.034   2.820   5.539  0.3725  0.1427  0.2065
24356W        W27576  10.463  18.077   6.718 -0.1056  0.0581 -0.1252
24357W        W27577  11.518  10.618  12.832  0.0537 -0.0167  0.0343
24358W        W27578   7.970  17.537  16.959 -0.0534 -0.0510  0.0604
24359W        W27579  11.593  18.014  15.153  0.0752  0.1086 -0.1512
24360W        W27580   8.944   8.223   6.161  0.1169 -0.0313 -0.2782
24361W        W27581   5.423  17.635   2.345 -0.1680  0.1321  0.1536
24362W        W27582   5.766  14.357   6.016 -0.0704  0.1056  0.0679
24363W        W27583   3.917  15.738  11.760  0.1477 -0.0248  0.1566
24364W        W27584   7.946  17.815  17.522 -0.0535  0.0045  0.2036
24365W        W27585   7.705   0.150   4.837  0.2890  0.1843  0.1270
24366W        W27586  15.481   7.396   6.530 -0.1105  0.0740 -0.0605
24367W        W27587   8.011   5.652   5.111 -0.2337 -0.0646 -0.0933
24368W        W27588   8.496  14.931  11.755  0.3862  0.0953  0.0849
24369W        W27589  12.208   6.464   7.150 -0.2310  0.0457 -0.1706
24370W        W27590   6.926   6.604   5.468 -0.1066  0.4978 -0.0439
24371W        W27591   5.559   6.889   6.942 -0.0201  0.2217  0.3173
24372W        W27592  13.407   7.456   6.570  0.0118 -0.2590 -0.2705
24373W        W27593  11.184  12.505   4.607  0.0569  0.0587 -0.0075
24374W        W27594   6.806   8.815   0.132 -0.0352 -0.0760 -0.0910
24375W        W27595   9.769   5.186   8.722 -0.0105 -0.1318 -0.1614
24376W        W27596  18.149  12.000   6.351 -0.2157 -0.3594 -0.1009
24377W        W27597   7.611  14.857   6.174  0.1360 -0.2354 -0.0500
24378W        W27598  11.497  10.001   1.911 -0.2436 -0.1425 -0.3556
24379W        W27599  12.069   5.163   4.493 -0.2161 -0.2559 -0.0407
24380W        W27600  15.640   7.081   7.416 -0.0293  0.4766  0.1004
24381W        W27601   5.968  12.420   9.604  0.0178 -0.2110 -0.2529
24382W        W27602  13.942  10.689   8.481  0.2184 -0.2052 -0.1149
24383W        W27603  10.813   7.427   9.922 -0.1449 -0.0804 -0.2066
24384W        W27604  13.087  13.358   4.586  0.0975 -0.1122  0.0082
24385W        W27605  13.049  12.618   7.169  0.0437 -0.0392  0.2449
24386W        W27606  14.615   7.088  11.257  0.3254  0.2088 -0.2292
24387W        W27607  11.600   6.419   1.344  0.1583 -0.0249 -0.1959
24388W        W27608  16.891   5.865   3.467  0.4140  0.1174  0.2372
24389W        W27609   9.300  11.106   4.474 -0.0554  0.3931 -0.3192
24390W        W27610   6.859   7.270   6.819  0.0056  0.3231  0.0575
24391W        W27611  14.436   6.265  17.441  0.0926 -0.0473  0.1198
24392W        W27612   9.824  10.081   1.133 -0.0281  0.0727  0.1414
24393W        W27613  11.370   8.211   4.037  0.0385 -0.0525  0.3500
24394W        W27614   7.797   4.356   5.833 -0.0616  0.1597 -0.1032
24395W        W27615   7.794  13.771  11.898  0.0326  0.2284  0.3332
24396W        W27616   8.096  11.408   9.187  0.0796  0.1464  0.1006
24397W        W27617   6.922   3.949   1.182  0.0805  0.1140 -0.1083
24398W        W27618  10.595   6.917  10.109  0.0444 -0.1551 -0.0774
24399W        W27619  12.584   8.620   5.043  0.1557  0.1523  0.0226
24400W        W27620  13.758  10.301   3.011 -0.0807  0.1288  0.0976
24401W        W27621  13.903  10.607   6.980  0.5348  0.2111  0.1882
24402W        W27622   8.751   7.652  17.835 -0.2273 -0.0210 -0.1674
24403W        W27623   3.982   8.518   3.770 -0.0390 -0.3492 -0.0915
24404W        W27624  10.505   4.697   8.179  0.0122 -0.0420  0.2551
24405W        W27625  13.396  12.446  13.340  0.0153 -0.1551 -0.0461
24406W        W27626  15.816  15.480   9.621 -0.0064 -0.3008 -0.2365
24407W        W27627   7.199   7.480  11.686  0.0913 -0.0136 -0.2059
24408W        W27628   5.882   9.179   6.838 -0.2362  0.0952 -0.1506
24409W        W27629  13.772  12.415  13.738  0.0538 -0.0436 -0.4255
24410W        W27630   6.111  14.216   6.438  0.1845 -0.0287  0.0104
24411W        W27631  12.214   8.843   5.261  0.0420 -0.0929  0.0689
24412W        W27632  11.060   8.370   6.964  0.2026  0.0493  0.1240
24413W        W27633  10.287  12.881   5.566 -0.2323  0.0325  0.2621
24414W        W27634   8.410   3.293   8.811 -0.1713 -0.0370 -0.1578
24415W        W27635   6.521  11.774   5.398 -0.3715 -0.0372  0.0119
24416W        W27636  12.085   6.603   3.259  0.4095  0.1787 -0.1919
24417W        W27637   5.897  13.095   3.289  0.1899  0.1076 -0.4397
24418W        W27638   6.416  15.013   4.789 -0.0283  0.2088 -0.0080
24419W        W27639  14.696   1.232  10.040 -0.1803 -0.0006 -0.1674
24420W        W27640   8.000   9.372   7.230 -0.1839  0.5489 -0.0366
24421W        W27641  11.656   6.974   7.502 -0.0794  0.0678 -0.1954
24422W        W27642  14.132   6.248  10.236 -0.0476  0.1971 -0.0173
24423W        W27643   4.703   4.045   7.505  0.0105 -0.0850 -0.0159
24424W        W27644   0.498  11.591  10.611  0.1639 -0.0755  0.2474
24425W        W27645   9.257   6.408  11.824 -0.0035 -0.2739  0.1209
24426W        W27646  10.676   6.736   7.244  0.4277 -0.0688  0.1085
24427W        W27647  14.767  16.574  11.395  0.1477  0.0148  0.1689
24428W        W27648  12.872  16.545   7.257 -0.2603  0.0859  0.0615
24429W        W27649  15.860  12.265  14.807 -0.1431  0.2145  0.0394
24430W        W27650   6.320   7.820   2.644 -0.0423  0.1104  0.5165
24431W        W27651  12.278   6.138   7.721 -0.3705 -0.0678  0.2497
24432W        W27652   7.266   9.128   8.775  0.0599  0.0332 -0.1129
24433W        W27653   6.869   9.365   4.373 -0.0976 -0.4677 -0.3758
24434W        W27654   6.393  11.009   5.940 -0.2218 -0.1305  0.1317
24435W        W27655   4.322  11.231   8.241 -0.1376  0.3039 -0.2097
24436W        W27656   9.420   4.918   1.992  0.2317 -0.1079 -0.2049
24437W        W27657  16.441  11.880   9.655  0.1455 -0.2505 -0.2106
24438W        W27658  13.847  14.746   7.416  0.1580  0.2778 -0.1077
24439W        W27659   6.946  12.869   1.134  0.1147  0.2565 -0.1990
24440W        W27660   8.999   2.698   3.921 -0.3554 -0.2292 -0.0939
24441W        W27661   4.281   1.704   8.371 -0.0032  0.0130  0.2634
24442W        W27662   4.786  12.114  12.732  0.1860 -0.1558 -0.0863
24443W        W27663   3.870  12.673   4.487 -0.2236 -0.2480 -0.4030
24444W        W27664  12.847   6.222   5.929 -0.0163  0.0005 -0.1301
24445W        W27665  14.490   7.917   9.304  0.0457  0.3609 -0.0912
24446W        W27666   9.789  16.440  16.935  0.2126 -0.0334 -0.0419
24447W        W27667  16.478   5.289   4.773  0.0430  0.0817 -0.0174
24448W        W27668   8.808  11.516  15.602  0.1765  0.0247  0.0539
24449W        W27669   5.234  13.959  12.906  0.2220  0.0098  0.0550
24450W        W27670  15.541  13.913   9.039 -0.0755 -0.0329 -0.0149
24451W        W27671  14.337  15.337  10.224  0.0338  0.2426  0.3739
24452W        W27672  15.641  15.331  12.550  0.2090 -0.0527  0.1135
24453W        W27673  13.196   7.998   7.387  0.0408 -0.2160  0.0987
24454W        W27674   1.979   4.425  14.958 -0.2121 -0.0483  0.2531
24455W        W27675  10.639   5.193   3.441  0.0706 -0.3300 -0.0321
24456W        W27676  12.207   7.437  12.737 -0.2032  0.1426  0.2810
24457W        W27677   1.002   4.083  11.714  0.1716 -0.3453  0.1652
24458W        W27678   5.842   5.344   7.960 -0.0652 -0.0466  0.1457
24459W        W27679   6.249   1.418   5.616 -0.1385 -0.0304 -0.1421
24460W        W27680  10.069   8.093  13.846  0.0162 -0.0320 -0.0426
24461W        W27681  14.498   8.035  11.990  0.0371 -0.2475 -0.0254
24462W        W27682   4.521   9.478   7.119  0.0022 -0.1923  0.0992
24463W        W27683  14.485   9.161   1.271 -0.0656  0.2707  0.3421
24464W        W27684   8.654   9.597  11.442  0.3440 -0.0480  0.1338
24465W        W27685   8.831  11.367  14.134 -0.1681 -0.1625  0.0424
24466W        W27686  16.159   2.549  11.375  0.2590  0.0340  0.1313
24467W        W27687  14.762   8.128  12.551 -0.1878  0.0577 -0.0308
24468W        W27688   9.825  13.711  12.803 -0.1666  0.1542  0.1132
24469W        W27689  14.794   3.628  10.505 -0.0377  0.1953 -0.2208
24470W        W27690  11.646   8.008   7.638  0.0063  0.0139  0.2096
24471W        W27691   9.455   2.810   9.859  0.0055 -0.2357  0.1587
24472W        W27692   6.347   4.883  16.319 -0.2285 -0.0353 -0.3057
24473W        W27693  16.088  10.170   5.938  0.0847  0.0134 -0.2621
24474W        W27694   4.892   5.996   5.608  0.3461 -0.2845 -0.1952
24475W        W27695   3.616   9.724   2.672  0.0860  0.2678  0.0921
24476W        W27696  14.699   6.290   9.971 -0.0568  0.0436  0.0070
24477W        W27697  14.181   0.285   9.908  0.1375  0.0613 -0.1646
24478W        W27698  12.487  14.544   4.388 -0.2311 -0.0596 -0.1627
24479W        W27699  11.329   8.851   5.339 -0.1016 -0.2036  0.2352
24480W        W27700  11.264  13.000  13.653 -0.2878  0.1210 -0.3588
24481W        W27701   9.811   7.053  17.882 -0.1306  0.0967  0.2353
24482W        W27702   1.535   6.459  10.490  0.0196 -0.2578  0.1533
24483W        W27703  10.419   2.545   5.746  0.3607 -0.1476 -0.1469
24484W        W27704   4.646   8.138   9.904  0.0640 -0.2790 -0.0190
24485W        W27705  16.772  12.135   8.293 -0.1169  0.0882 -0.0126
24486W        W27706  17.139  11.373   7.643  0.1738 -0.0168  0.4410
24487W        W27707  10.299   5.081   7.430  0.2604 -0.0849  0.1460
24488W        W27708   6.476   2.788  13.606 -0.2332  0.3878 -0.0897
24489W        W27709  15.514  11.621   5.719 -0.4074 -0.1038  0.2240
24490W        W27710   2.935  12.395  16.312 -0.2011  0.0251 -0.3004
24491W        W27711   0.466  12.643   4.323  0.2054  0.2145  0.0604
24492W        W27712   8.307  11.164   9.625 -0.0766  0.0119 -0.2192
24493W        W27713  18.172   6.281   5.198  0.0033  0.0018  0.1922
24494W        W27714  16.399   6.015  14.049 -0.3744  0.2155  0.1683
24495W        W27715   8.805  10.148   5.134 -0.2356  0.0052  0.1082
24496W        W27716   3.040   6.197  11.198  0.0829  0.1782  0.3197
24497W        W27717   6.678   8.651   8.431 -0.0924  0.0468  0.2489
24498W        W27718   6.048   8.994   9.188 -0.1608  0.0786 -0.0843
24499W        W27719  11.055  13.054  12.030 -0.2213  0.2703  0.0954
24500W        W27720   9.188   7.115   4.870 -0.1472 -0.3987 -0.0238
24501W        W27721  16.973  13.775  10.329 -0.1025  0.2663 -0.0678
24502W        W27722   5.457   9.648   4.608 -0.2068  0.1628  0.2460
24503W        W27723  12.941   9.417   8.210  0.1443  0.1174  0.1554
24504W        W27724  10.580   7.840  12.140  0.1279 -0.0076  0.1618
24505W        W27725  15.308   5.666   9.105 -0.3529  0.4699  0.1177
24506W        W27726   1.246   7.495   8.088  0.0178  0.2786  0.0794
24507W        W27727   5.018   8.448   9.687  0.0754  0.1797  0.1835
24508W        W27728   6.845   9.093  10.608 -0.2074  0.2287 -0.1375
24509W        W27729   5.612   7.907  14.701  0.2762  0.0043 -0.3104
24510W        W27730   4.528   7.790  11.759 -0.7180  0.1039  0.1265
24511W        W27731  16.588  16.462   7.718 -0.1268 -0.2092  0.2852
24512W        W27732  15.323   9.116  11.023 -0.0330 -0.1271  0.0652
24513W        W27733   5.906   3.455   4.058  0.2790  0.0989  0.0318
24514W        W27734  10.112   1.539  10.615 -0.0457 -0.1109 -0.2497
24515W        W27735  11.327   7.416  11.648 -0.0920 -0.1290 -0.0958
24516W        W27736   5.817  13.829  12.921  0.0413 -0.4961 -0.1483
24517W        W27737  11.609   0.995   6.714 -0.3454  0.2343 -0.1131
24518W        W27738   0.936   0.845   7.565  0.1018  0.0870 -0.5495
24519W        W27739   5.488   5.760  14.639 -0.0283 -0.0379 -0.0708
24520W        W27740  16.217  12.184  10.438 -0.2822  0.0778  0.0118
24521W        W27741  10.735   8.194  11.786 -0.0265  0.1299  0.0543
24522W        W27742  10.822   8.231   7.396  0.1038  0.0336  0.1079
24523W        W27743  16.472   3.916   7.481 -0.0202 -0.3107  0.1091
24524W        W27744  16.078  11.109   8.126 -0.1224 -0.0148 -0.0534
24525W        W27745   7.406   9.253  15.544 -0.2280 -0.1108 -0.0844
24526W        W27746   7.553  11.070  15.864  0.1503  0.0584  0.3372
24527W        W27747   6.834   8.150  10.416  0.2792  0.0413 -0.0174
24528W        W27748   2.111  11.980   5.437  0.1393  0.0013 -0.1087
24529W        W27749  17.593   5.091   7.164 -0.0326  0.0959  0.0961
24530W        W27750   8.126   2.553  11.160  0.0644  0.1968  0.2616
24531W        W27751  14.727  10.730  16.537 -0.1875  0.0306  0.0065
24532W        W27752  15.455  11.361  10.245 -0.1342  0.0998  0.1925
24533W        W27753   3.541   3.881   8.114 -0.2905  0.0854  0.1846
24534W        W27754   1.817   8.290   0.125  0.0537  0.0719  0.0864
24535W        W27755  16.359   9.583   7.038 -0.2600 -0.0887 -0.2559
24536W        W27756  12.795   8.964  15.985  0.2348 -0.3567  0.0283
24537W        W27757   2.607   8.850   0.109 -0.0217  0.0996 -0.1740
24538W        W27758   1.681  10.692  10.047  0.1537 -0.0731 -0.0435
24539W        W27759   8.895  12.161   4.156  0.0906 -0.1515  0.3955
24540W        W27760  12.991   8.304  12.164  0.3821 -0.2641  0.1205
24541W        W27761  11.044  10.618  12.652  0.1895  0.0788  0.0777
24542W        W27762   9.098  11.957  13.022  0.0485  0.3364  0.0298
24543W        W27763   2.322  14.844   3.599  0.4954 -0.0865  0.2368
24544W        W27764  10.546   1.723   5.486 -0.0306  0.0222 -0.1938
24545W        W27765  14.985   5.820  10.826 -0.6373  0.0403  0.0890
24546W        W27766  10.510   5.153  11.219  0.0631 -0.4912  0.0865
24547W        W27767   6.357   3.633  14.975  0.0078 -0.1995 -0.0508
24548W        W27768  13.390  10.270   8.853  0.0083  0.0734  0.0835
24549W        W27769   6.723  15.234  11.202  0.1355 -0.1564  0.0462
24550W        W27770   8.938  12.056  14.913 -0.1194 -0.0540 -0.0792
24551W        W27771   4.254   8.929  11.411 -0.1494  0.0865 -0.0173
24552W        W27772   8.353   5.763  14.583 -0.0601 -0.0712  0.3100
24553W        W27773   5.779   5.672  13.245 -0.1886  0.1413  0.2805
24554W        W27774  10.355   8.190   6.701 -0.2022 -0.1523  0.4505
24555W        W27775   9.928   8.475   4.562  0.1000 -0.3582 -0.1210
24556W        W27776   5.159   9.884  12.407  0.0741  0.3402 -0.1099
24557W        W27777  10.145   2.614   3.169  0.3437 -0.2299 -0.0398
24558W        W27778  12.697  17.336  13.308 -0.1602 -0.1358 -0.0651
24559W        W27779  16.491  13.250   7.900 -0.2021 -0.0186  0.0242
24560W        W27780   6.688  13.820  10.925  0.2250 -0.1434  0.0009
24561W        W27781  10.597   8.945   0.520 -0.1847  0.1189  0.1041
24562W        W27782  13.280  12.124   7.148 -0.0640  0.2028  0.2955
24563W        W27783   6.757  13.090   9.827 -0.2312 -0.1465  0.3204
24564W        W27784  12.892   9.512  10.338 -0.3004  0.0669  0.1951
24565W        W27785   9.740   6.007  13.478 -0.2117 -0.3142 -0.2101
24566W        W27786  13.325   8.324  10.119 -0.1475  0.0475  0.0479
24567W        W27787  12.577  16.557   5.988 -0.4640 -0.4242 -0.1736
24568W        W27788  15.182  10.159  13.799 -0.0703 -0.2527  0.0449
24569W        W27789  16.477   6.742   4.342  0.1559 -0.0267  0.1919
24570W        W27790  17.772   9.579   7.490  0.0963 -0.1443  0.1889
24571W        W27791  13.945   5.399  10.673 -0.2080 -0.0721 -0.3245
24572W        W27792   4.799  11.122   7.920  0.0736  0.1912  0.1596
24573W        W27793   9.428   9.815  13.768 -0.1439  0.2360 -0.0856
24574W        W27794   7.267   9.219  15.025 -0.0424  0.2192  0.1505
24575W        W27795   8.307   6.968   0.329  0.0346 -0.1460 -0.3050
24576W        W27796   5.617   7.901  10.193 -0.0703 -0.3684  0.2472
24577W        W27797  15.787  11.410  13.292  0.1142 -0.0424  0.0826
24578W        W27798  12.782   6.982   7.570  0.2146  0.0219 -0.1744
24579W        W27799  13.730   8.742  12.474  0.1365  0.0030 -0.3390
24580W        W27800   7.831  14.358  14.766 -0.2154  0.1233  0.0030
24581W        W27801  10.018  13.222  10.003  0.0908 -0.4026  0.3181
24582W        W27802  15.345   5.923  12.418 -0.1764  0.3227  0.0843
24583W        W27803   8.100   5.327  14.533  0.2316  0.0415  0.1211
24584W        W27804  16.470   9.308   8.211  0.1817 -0.0409 -0.0851
24585W        W27805  11.760   5.993  10.626 -0.0459 -0.2586  0.1810
24586W        W27806   8.962  12.683   4.702 -0.0490 -0.2254  0.0834
24587W        W27807  16.222   4.080  12.846 -0.2224 -0.0656  0.1752
24588W        W27808  14.264   6.653  12.616  0.0324 -0.2944 -0.0158
24589W        W27809  12.105   8.670   7.316 -0.1224 -0.1968 -0.2846
24590W        W27810   6.065  12.410   8.456  0.1141  0.0883 -0.1412
24591W        W27811  10.259  13.956  11.482 -0.2727  0.2309 -0.1264
24592W        W27812  13.477   2.517  17.867  0.0511 -0.0422 -0.2662
24593W        W27813  13.819  16.673   7.441  0.0517 -0.0248  0.0823
24594W        W27814   2.633  10.063   2.883 -0.1196  0.0142  0.3011
24595W        W27815  13.745   8.731  14.145  0.0248 -0.4260 -0.2328
24596W        W27816  12.204  15.787   9.390 -0.2658  0.0556 -0.3336
24597W        W27817  13.125   9.293   6.777 -0.1513  0.3530 -0.2606
24598W        W27818   5.307  17.616   8.765 -0.0769 -0.1193 -0.2270
24599W        W27819  15.026   2.616   2.784  0.1160 -0.2196 -0.1253
24600W        W27820   8.964   6.187  11.447  0.1243  0.1737  0.2905
24601W        W27821   4.148   7.029  17.169  0.2672 -0.0348  0.1143
24602W        W27822  17.729   5.907  13.684  0.0376  0.1703 -0.1529
24603W        W27823  10.859   6.043  14.613 -0.1700 -0.0421 -0.0748
24604W        W27824   9.153  10.034   6.433  0.0497  0.2195  0.2169
24605W        W27825   5.151   9.431   9.138 -0.0794  0.0630 -0.0470
24606W        W27826  11.791   1.068  18.112 -0.1532  0.0138  0.1416
24607W        W27827  11.094  10.864  13.175  0.1886 -0.2404 -0.2737
24608W        W27828   9.231  14.300  11.349  0.0201 -0.1509 -0.4149
24609W        W27829  10.935  15.437   5.386 -0.3623 -0.1208  0.1035
24610W        W27830   1.724   2.928  13.833 -0.0287  0.0661  0.0102
24611W        W27831   4.030   4.117  11.539 -0.0671 -0.0070  0.1827
24612W        W27832  13.016   9.428  12.085 -0.0537  0.2476 -0.1082
24613W        W27833   0.153  10.231   5.283 -0.4080 -0.1050 -0.0294
24614W        W27834  14.542   8.795  11.769 -0.0369 -0.0456 -0.0406
24615W        W27835   6.449   7.326   8.538  0.2307 -0.0216 -0.0716
24616W        W27836   0.403   1.805  12.529  0.0805 -0.0501 -0.0297
24617W        W27837  14.135  13.180   9.449 -0.0338  0.2614  0.0682
24618W        W27838  13.258   4.444   5.091  0.1253 -0.4486  0.0949
24619W        W27839   9.390   9.906  18.160  0.0110  0.0876 -0.1307
24620W        W27840   9.067   2.315  10.412 -0.1330 -0.0173 -0.2898
24621W        W27841  12.679  16.867   6.796 -0.3393  0.1096  0.2307
24622W        W27842   8.910   6.085  12.005 -0.0610 -0.3088  0.1162
24623W        W27843   7.698   6.820   7.971  0.1893 -0.0886  0.0741
24624W        W27844   6.405  17.590   7.190 -0.2674  0.1805 -0.1105
24625W        W27845   5.760  11.952   9.483 -0.2073 -0.1786 -0.0953
24626W        W27846  10.282  16.581   7.902 -0.0218  0.0372  0.0821
24627W        W27847  13.626   6.383   5.130 -0.0224  0.1790 -0.2222
24628W        W27848  14.593  10.290  12.985 -0.0432 -0.0813 -0.0598
24629W        W27849   8.816  13.266   4.210  0.3440 -0.1148 -0.0667
24630W        W27850  11.627  12.153   5.832 -0.0179  0.0660 -0.1912
24631W        W27851   9.322  17.916  16.848  0.0237 -0.1331  0.0335
24632W        W27852   8.836   5.199   2.653  0.0785 -0.1963  0.0396
24633W        W27853   6.497   5.797   1.179  0.0635 -0.2594 -0.4048
24634W        W27854  10.638   8.850   6.328 -0.0913  0.1511  0.1574
24635W        W27855  14.199   7.460  17.602  0.2023 -0.0109 -0.0442
24636W        W27856  10.041  14.933   2.643  0.1694 -0.1178  0.3039
24637W        W27857   5.257  10.844   6.861 -0.2565  0.2355 -0.1185
24638W        W27858   7.387   9.661   6.777  0.0360 -0.1166  0.4604
24639W        W27859  10.240   1.695   8.015  0.0210 -0.0843 -0.2229
24640W        W27860  10.592  12.638   6.147 -0.0497 -0.1085 -0.1854
24641W        W27861  10.640   5.113   5.521 -0.0633 -0.1824  0.3869
24642W        W27862   7.935   5.245   6.493  0.1231  0.0584  0.2903
24643W        W27863   5.882  13.700   6.543 -0.3688 -0.0772  0.5138
24644W        W27864   8.043   7.488  12.576  0.0804  0.2492 -0.0236
24645W        W27865   6.243  10.905  11.007  0.1093 -0.3232 -0.1252
24646W        W27866  16.680   6.651   7.552 -0.0428  0.3235  0.0997
24647W        W27867   9.286   5.919  12.294 -0.0657  0.1382 -0.1735
24648W        W27868  15.806   7.826   1.419 -0.1175 -0.1343  0.2578
24649W        W27869   6.827  10.426   6.930 -0.2226  0.0110  0.0938
24650W        W27870   4.624  13.853   6.066  0.2503 -0.1028 -0.0864
24651W        W27871   9.658   7.889   7.757  0.0755  0.0405 -0.1263
24652W        W27872   9.702   1.627  14.175  0.1400  0.2010  0.1620
24653W        W27873  13.600   8.354   8.163 -0.0007 -0.2335  0.0358
24654W        W27874   3.233   5.926   6.285 -0.1141  0.1038 -0.1115
24655W        W27875   4.105   1.279   4.730  0.0845  0.2226 -0.2218
24656W        W27876   4.948  10.661   7.951  0.0313  0.2073 -0.2130
24657W        W27877  13.472   7.006   6.878 -0.4491  0.3392  0.2688
24658W        W27878  11.251   9.464  11.180  0.2181  0.0519  0.0319
24659W        W27879  14.672   7.975  13.100  0.0625 -0.0326  0.3176
24660W        W27880  13.213  10.727   1.673 -0.0642  0.1135 -0.1108
24661W        W27881   5.576  12.420   6.576  0.0950  0.2258 -0.1348
24662W        W27882   8.888   4.721   8.955 -0.0414 -0.1480  0.1791
24663W        W27883   4.739  12.362   6.682 -0.1582  0.0957  0.1131
24664W        W27884   8.946  10.966   2.406  0.1943 -0.1320  0.0732
24665W        W27885  12.747  17.299  10.562  0.4058  0.0790 -0.0635
24666W        W27886   7.750   7.093   9.383 -0.0303 -0.1467 -0.3437
24667W        W27887  10.683   6.292   4.658  0.0358  0.1708  0.0664
24668W        W27888  17.313  11.407   8.742 -0.1336  0.1187 -0.2769
24669W        W27889  13.214   7.766  12.172 -0.2603 -0.0207  0.0851
24670W        W27890  13.264   6.053  12.459  0.0088 -0.1219 -0.0538
24671W        W27891   6.605   1.925  13.208  0.2264 -0.1911 -0.0699
24672W        W27892  15.533  10.717  16.900  0.4049  0.0431 -0.1834
24673W        W27893   9.531   7.924  13.301 -0.2624  0.1706 -0.4315
24674W        W27894  11.908   6.374  10.972  0.1175  0.2561 -0.2375
24675W        W27895   4.539   7.835  15.032  0.1173 -0.0687  0.0168
24676W        W27896  13.728  17.269   0.788  0.2214 -0.0304 -0.2200
24677W        W27897  13.423  11.988  11.505 -0.3392  0.0552 -0.0692
24678W        W27898  10.388  18.133  12.223 -0.3223 -0.2716 -0.2184
24679W        W27899  13.047  11.741  12.735 -0.2524 -0.3243 -0.3642
24680W        W27900   8.840   6.576  10.598  0.1421 -0.2965  0.1747
24681W        W27901  15.748   4.018  10.440  0.1014  0.1403  0.0144
24682W        W27902   1.537   9.273  16.260  0.2214 -0.1666  0.3001
24683W        W27903  16.149   9.916  12.902  0.0045  0.1014 -0.2248
24684W        W27904  10.396  10.284  17.705  0.3164  0.1132 -0.1671
24685W        W27905   4.011  11.345  14.351  0.0310  0.0414  0.1374
24686W        W27906   8.169  16.112   4.747  0.1247  0.2610 -0.1153
24687W        W27907   7.803   8.957  15.631  0.0807 -0.1424  0.1665
24688W        W27908  14.162  11.804  15.784 -0.0317  0.0703  0.0822
24689W        W27909   7.665   4.200  10.989  0.4475 -0.0952 -0.3050
24690W        W27910   9.827   8.422   8.094  0.1099  0.0055 -0.0471
24691W        W27911   5.900   1.155  12.169 -0.2353  0.1023 -0.1525
24692W        W27912   4.804  13.597  14.467  0.0711  0.0647 -0.0057
24693W        W27913   8.578   9.885   8.150 -0.4510  0.1698 -0.0136
24694W        W27914   9.978  10.350   6.169  0.2072 -0.0082  0.3209
24695W        W27915  11.524   9.768  16.904 -0.1471  0.0308 -0.0444
24696W        W27916   8.346  11.527  16.343 -0.2772 -0.0679 -0.0190
24697W        W27917   8.856   9.403  11.985  0.0591  0.2126  0.1306
24698W        W27918  13.504   1.077   5.047 -0.0933 -0.1136  0.2277
24699W        W27919   7.100   3.597  11.009 -0.0864  0.2223 -0.0939
24700W        W27920   0.886   6.268  10.487  0.1661 -0.1332 -0.2393
24701W        W27921  10.585  10.703   5.402 -0.1882 -0.1987  0.0105
24702W        W27922   8.214   6.390   8.906  0.0421  0.1565  0.1555
24703W        W27923   7.022   5.520  10.846 -0.0883 -0.1830  0.0891
24704W        W27924  12.934   8.246  13.682  0.1928 -0.1650  0.0556
24705W        W27925  14.899   8.440   3.296 -0.1076  0.3226 -0.3015
24706W        W27926  17.184   9.165   4.518 -0.0820  0.1578 -0.0365
24707W        W27927   8.792   9.752   6.622 -0.2666 -0.1044 -0.0267
24708W        W27928   7.325  10.172   7.270  0.1417  0.0578  0.0100
24709W        W27929   6.647   8.363   6.042 -0.1543 -0.0386 -0.0780
24710W        W27930   8.792   1.763  18.163 -0.1189  0.1416  0.0328
24711W        W27931   0.784   8.866   8.983 -0.0024 -0.0669  0.0840
24712W        W27932   9.862  16.373   6.780 -0.2897 -0.0260  0.1709
24713W        W27933  13.200  14.179  14.023  0.6372 -0.0248 -0.0332
24714W        W27934  13.284  11.484   7.763 -0.1120 -0.0318 -0.2113
24715W        W27935   5.185   9.233   3.097  0.0666 -0.1409  0.2582
24716W        W27936  10.627  11.498   9.485  0.1039 -0.1953 -0.1025
24717W        W27937  11.649   8.692   4.595 -0.0194  0.2020 -0.2486
24718W        W27938   4.903   1.715  11.185 -0.3405  0.3279 -0.1604
24719W        W27939   5.851   8.590  12.713 -0.0538 -0.2432  0.1073
24720W        W27940  10.243   6.653  13.153  0.0408 -0.0047  0.0612
24721W        W27941   6.988   7.078   0.200  0.1496 -0.1491  0.0603
24722W        W27942   7.884   0.086   6.577 -0.0724 -0.1569  0.3103
24723W        W27943  17.091   4.336   8.739 -0.0952  0.0695  0.0866
24724W        W27944   2.957  13.615  11.045 -0.0614 -0.2871  0.0441
24725W        W27945  13.803   4.920   9.062  0.1129 -0.1889 -0.1121
24726W        W27946   1.175  12.139   6.061  0.0530  0.2570 -0.1229
24727W        W27947   5.483  11.125  11.242 -0.1487  0.2151  0.1256
24728W        W27948  15.859  11.244  14.997  0.1333  0.1915  0.0575
24729W        W27949   7.580   1.720   7.763 -0.0311  0.1575 -0.0066
24730W        W27950   6.365   4.205  12.250 -0.0560  0.2274 -0.1139
24731W        W27951  11.246   4.209   9.281  0.3501 -0.2814 -0.1883
24732W        W27952  17.318   8.782  13.570  0.4262 -0.0359  0.0566
24733W        W27953   8.269   1.341  13.777 -0.0953  0.2539  0.0026
24734W        W27954  13.790   8.608   1.725  0.1137 -0.0614 -0.0091
24735W        W27955  11.650  13.489   5.960  0.0873  0.4092 -0.2208
24736W        W27956  13.856   8.976   9.044  0.2029 -0.0374  0.1051
24737W        W27957   4.136   6.794   4.988 -0.0817 -0.0853  0.1970
24738W        W27958  17.458   8.277  12.254  0.2594  0.0629 -0.2405
24739W        W27959   1.079  12.225   8.256 -0.1808 -0.1167  0.0976
24740W        W27960   6.032  10.763  13.361  0.0152 -0.0130  0.2041
24741W        W27961   4.194  11.427  12.819  0.0273  0.1039  0.0019
24742W        W27962   6.746  11.735  12.406 -0.0351 -0.1147  0.1542
24743W        W27963   9.994  12.212  16.571  0.0101 -0.1137  0.0616
24744W        W27964  12.152  17.365  15.617 -0.0394 -0.0412 -0.1323
24745W        W27965   8.882   7.719  13.142  0.2376 -0.0193 -0.1464
24746W        W27966   6.684  10.490  12.350 -0.0016 -0.0413  0.0815
24747W        W27967  13.679   7.793   7.318  0.0872 -0.0597 -0.0975
24748W        W27968   6.991  12.607   7.126 -0.1866 -0.1143  0.2274
24749W        W27969   6.556   6.505   8.043  0.4358 -0.0256  0.0245
24750W        W27970   9.147   7.458  13.516  0.1882  0.2982  0.1382
24751W        W27971   6.821  10.226   6.481 -0.1096  0.0287 -0.2044
24752W        W27972   6.266  14.305   5.974  0.1504  0.1773 -0.2070
24753W        W27973  11.537   8.520  15.315 -0.4802 -0.0127 -0.1072
24754W        W27974  11.744   2.198   8.664 -0.1598  0.0906 -0.0613
24755W        W27975   9.720   4.424  10.107 -0.2595 -0.1256 -0.0286
24756W        W27976  13.144  17.517  11.832 -0.2597  0.0455 -0.0409
24757W        W27977   7.023  16.500   9.722  0.2107 -0.0528  0.0925
24758W        W27978  13.379  12.943   7.372 -0.0316  0.1402  0.0781
24759W        W27979   8.809  12.009   9.766  0.2787 -0.2703 -0.2151
24760W        W27980   9.867   6.510   3.572  0.2353  0.2856 -0.1600
24761W        W27981   4.247   4.895  17.254  0.0264  0.0504  0.1579
24762W        W27982  10.214  10.759  12.187 -0.1791  0.4168 -0.0463
24763W        W27983   7.577  11.956   7.696 -0.0063 -0.1588  0.3335
24764W        W27984   9.093   3.070  14.920 -0.0863 -0.2292 -0.0406
24765W        W27985   6.833  10.028  17.333  0.1241  0.0292 -0.0247
24766W        W27986  10.929  17.389  17.415  0.1200 -0.0114 -0.0565
24767W        W27987   4.904  10.332   6.929  0.1438 -0.2615 -0.2754
24768W        W27988   7.338  12.013  14.694 -0.1408  0.0471 -0.2138
24769W        W27989  12.985  10.787  12.333  0.0679  0.0801 -0.0201
24770W        W27990   4.338   6.608   5.459 -0.1761  0.1806 -0.1359
24771W        W27991  13.376   7.269  10.558 -0.2963 -0.0239  0.0866
24772W        W27992   7.862   3.203  10.470 -0.0995  0.2151 -0.1380
24773W        W27993  14.117   0.198  10.434 -0.1467  0.0422  0.0263
24774W        W27994  17.892  17.079  16.206 -0.1304 -0.1120  0.3182
24775W        W27995   9.185   5.868  18.058  0.1894  0.0849 -0.2318
24776W        W27996  12.750  12.944  14.414 -0.1669  0.1016  0.1363
24777W        W27997  13.993   2.789   3.779 -0.1393 -0.0376  0.0655
24778W        W27998  10.221  11.658   2.340  0.1148 -0.1274 -0.1339
24779W        W27999   0.366   8.062  10.074  0.0613 -0.0371 -0.0165
24780W        W28000  16.100  14.989   0.496 -0.2835 -0.0260  0.1255
24781W        W28001   0.752  13.602  12.802 -0.4327 -0.1485  0.0894
24782W        W28002   8.571  10.696  13.313 -0.0817 -0.3066 -0.2744
24783W        W28003  17.403  10.571   7.257 -0.2868  0.0846 -0.1021
24784W        W28004   9.837   5.280  14.535 -0.1812 -0.1639 -0.1786
24785W        W28005   9.283   7.074   1.291  0.0768 -0.0711 -0.0751
24786W        W28006  11.589   5.777   8.509 -0.0696  0.0065  0.2777
24787W        W28007   9.504  13.209  13.857 -0.1399  0.2860  0.0787
24788W        W28008   4.866   7.849   7.807  0.2526 -0.1703 -0.3133
24789W        W28009   8.149  13.426   7.510 -0.0309  0.3516  0.2989
24790W        W28010  11.436   5.350  10.974 -0.0878  0.0212 -0.0999
24791W        W28011   1.231  14.127   3.175  0.2200 -0.5408  0.0943
24792W        W28012  14.459   5.464  15.166  0.1783  0.2082  0.0217
24793W        W28013   7.926   3.484   7.579  0.0148  0.1117  0.3146
24794W        W28014  14.364  10.531  12.593 -0.0431 -0.0603  0.2768
24795W        W28015  11.020  10.218  11.162  0.0963  0.0831 -0.0119
24796W        W28016  12.542   7.280   7.000 -0.1643  0.2091 -0.0284
24797W        W28017   2.714  11.699   8.828 -0.0605 -0.0465  0.2069
24798W        W28018   8.437  10.560  14.716  0.0117  0.1337 -0.2831
24799W        W28019   7.863   2.686  16.359  0.0983  0.2878 -0.2935
24800W        W28020   5.806   3.008  11.158  0.0189 -0.2914  0.2700
24801W        W28021   9.638   8.143  14.242  0.0385 -0.2347  0.1092
24802W        W28022  11.791   8.338   7.118 -0.1563  0.0773  0.0513
24803W        W28023  10.517   7.394   7.698 -0.2285 -0.2353 -0.0771
24804W        W28024  11.564   8.213   8.627  0.0136  0.2268  0.0904
24805W        W28025  16.671  10.534  10.566 -0.2571 -0.0525  0.1983
24806W        W28026   5.854  12.298  14.025 -0.2289 -0.1505  0.0084
24807W        W28027   0.495   6.691  16.213  0.0435  0.0482 -0.1725
24808W        W28028   0.744  10.088  11.277  0.2729  0.0747  0.2588
24809W        W28029  12.383   9.269   8.316 -0.0962 -0.1537 -0.3697
24810W        W28030  13.389   1.861   7.384 -0.1470 -0.5027  0.1190
24811W        W28031  11.168   6.920  10.744 -0.2543 -0.1604  0.1689
24812W        W28032   9.163  13.548  10.687  0.1569 -0.1416 -0.1382
24813W        W28033   2.876   9.695   4.902 -0.1719  0.1945 -0.1101
24814W        W28034  17.905   9.290   7.050  0.0860 -0.1207  0.2478
24815W        W28035  11.242  16.513   7.359  0.2572  0.1514  0.3236
24816W        W28036  11.862   7.914  11.103 -0.0138  0.2807  0.0024
24817W        W28037  11.665  11.804  12.969  0.0393 -0.2458  0.0020
24818W        W28038   9.305  14.224   5.176 -0.1634  0.3130 -0.0132
24819W        W28039  15.072   7.489   9.414 -0.0379  0.1043  0.1312
24820W        W28040   8.224   9.516   5.015 -0.0135  0.0275  0.1809
24821W        W28041   9.478  13.488   3.137 -0.3358  0.0600 -0.0813
24822W        W28042  13.945  11.062  11.346  0.2043  0.0195 -0.3518
24823W        W28043   7.078   9.876  14.188 -0.1511 -0.3449 -0.1834
24824W        W28044  17.362   9.312  13.462  0.2431 -0.1820 -0.1354
24825W        W28045   4.459  18.031  10.420 -0.4539  0.0284 -0.1011
24826W        W28046  15.429   9.760   2.979 -0.2401 -0.2588 -0.1479
24827W        W28047   6.452   2.461  11.058  0.0616 -0.2444  0.0581
24828W        W28048  11.004   8.892  14.472 -0.1489  0.0003 -0.0124
24829W        W28049  11.929  10.262  15.247  0.0158  0.3650  0.0087
24830W        W28050  14.354  12.063   8.630  0.1937  0.0337  0.2152
24831W        W28051  10.798  11.909   9.177  0.1789  0.1187 -0.0477
24832W        W28052  17.177  12.540   9.468  0.3313 -0.2061 -0.2090
24833W        W28053  10.653  14.075  12.757 -0.1030 -0.1009  0.1925
24834W        W28054   4.626  11.543   5.451  0.3249  0.1027 -0.1432
24835W        W28055   9.974   7.498   8.596  0.1491 -0.4720 -0.0667
24836W        W28056   8.533   6.499  13.643  0.1987 -0.0799 -0.3265
24837W        W28057   6.873   9.415  16.366 -0.0447 -0.1813 -0.2004
24838W        W28058  18.119  13.170  11.302 -0.1824 -0.0830  0.2894
24839W        W28059   1.884  15.009   6.388 -0.3930  0.0163  0.0033
24840W        W28060   9.503  10.927  11.059  0.3573 -0.1817 -0.0172
24841W        W28061  10.283   6.601  16.693 -0.1493 -0.0401 -0.0619
24842W        W28062  12.219  17.818   9.571  0.1197 -0.0565  0.2369
24843W        W28063   2.385  12.798  11.903 -0.1448  0.0442  0.0576
24844W        W28064  10.050  10.085  15.322 -0.0299  0.2653 -0.0222
24845W        W28065   5.645  11.408  16.207 -0.1799  0.1104 -0.3521
24846W        W28066   0.543  14.701   0.981  0.0256  0.3989  0.0621
24847W        W28067   8.625   2.292   0.589  0.0003  0.0765 -0.1384
24848W        W28068   9.831   8.544  10.175  0.0874 -0.1635 -0.1799
24849W        W28069   6.094   7.842  14.563 -0.3302 -0.2589 -0.1013
24850W        W28070   6.159   4.361  12.786 -0.2959 -0.0881  0.0390
24851W        W28071  12.119   5.151   0.228 -0.1432 -0.0053 -0.3290
24852W        W28072   9.212   2.349   9.885  0.1721  0.0166 -0.2046
24853W        W28073   4.716   8.065  16.038  0.1174 -0.1814  0.0096
24854W        W28074   5.878  17.474  12.788 -0.1960 -0.1171  0.3409
24855W        W28075  16.525   6.652  14.213 -0.3200  0.2113 -0.0764
24856W        W28076   3.680  14.027   6.205 -0.0855 -0.1198  0.1542
24857W        W28077   7.622   3.930  17.488 -0.0438 -0.0711 -0.1318
24858W        W28078  10.758   1.751   2.256 -0.1407  0.0163 -0.1793
24859W        W28079  10.233   4.681  11.977 -0.0759 -0.0482  0.0205
24860W        W28080  12.547  11.684  17.118  0.1079  0.1968 -0.1788
24861W        W28081   5.751  17.129  14.614  0.4234  0.0294 -0.0036
24862W        W28082  13.343   9.413  12.811  0.0128 -0.2829  0.3382
24863W        W28083   7.989   7.898  14.354 -0.2254 -0.3424 -0.0129
24864W        W28084  16.114   4.059   3.363  0.2273  0.0887 -0.3282
24865W        W28085   8.294   2.905   1.325  0.1604  0.4902 -0.1550
24866W        W28086  12.746   5.225  17.276  0.2117  0.2519 -0.1361
24867W        W28087   8.644   3.832   2.471 -0.0222  0.1611  0.0976
24868W        W28088   4.563  17.041  17.781 -0.0365 -0.0901  0.0047
24869W        W28089   4.292  12.179  13.417 -0.0689  0.0703 -0.0369
24870W        W28090   9.627   8.410  12.458 -0.1984  0.1569  0.1358
24871W        W28091  12.478  16.302   4.488  0.0148  0.1022  0.1594
24872W        W28092   5.999   1.048   0.781  0.2031 -0.0254  0.1798
24873W        W28093   0.480  12.930  13.449  0.0976  0.5638  0.1796
24874W        W28094   3.582   2.037  17.138 -0.0254  0.2277  0.0235
24875W        W28095  11.041   8.879   0.721  0.1531  0.0259 -0.1847
24876W        W28096  17.628   7.687   1.453  0.0603 -0.0800  0.1398
24877W        W28097   9.254  10.291   1.080  0.2764 -0.2827 -0.0268
24878W        W28098  16.591  11.509   5.259 -0.0137 -0.1872  0.2478
24879W        W28099   0.285  16.048  15.755 -0.1698  0.2569  0.3318
24880W        W28100   9.796   3.779  14.461 -0.2104 -0.0616  0.0408
24881W        W28101  15.217   9.838  14.202  0.1344 -0.1019  0.1258
24882W        W28102  11.638  12.014   7.757 -0.0977  0.1372 -0.4045
24883W        W28103  10.721  11.444  15.578  0.2018 -0.1428 -0.0568
24884W        W28104  11.813  11.349  11.634 -0.4758  0.1022 -0.0319
24885W        W28105   9.514   3.020  17.762 -0.2126  0.0093  0.1330
24886W        W28106   7.371   0.833  12.647  0.1460 -0.0908 -0.0078
24887W        W28107  16.996  11.038  11.823 -0.0245  0.0257 -0.0206
24888W        W28108  10.103   7.595   7.490 -0.0496  0.0315 -0.0818
24889W        W28109  14.643  16.263   7.441 -0.3655  0.1855 -0.0977
24890W        W28110  10.224   7.825  17.323 -0.3453  0.1991 -0.1099
24891W        W28111   4.810   8.603   8.905 -0.1192 -0.2160  0.1323
24892W        W28112   7.222  14.499  10.815  0.2406 -0.2322  0.3467
24893W        W28113   2.529  10.818  14.001  0.0312 -0.0031 -0.3733
24894W        W28114   9.593   8.254  10.599 -0.0113 -0.1438 -0.2676
24895W        W28115   4.744   8.485   8.449 -0.2776  0.0002 -0.1281
24896W        W28116   9.755   6.951  15.893  0.2205  0.0920  0.1826
24897W        W28117   9.194  15.458   1.655  0.2423  0.3785  0.0712
24898W        W28118  11.631  11.377   9.996  0.3906  0.2255  0.1245
24899W        W28119  13.245   2.708  12.244 -0.2455 -0.2558 -0.0937
24900W        W28120  10.751  16.191  13.863 -0.0247  0.0339 -0.0215
24901W        W28121   7.588   0.320  13.990 -0.0699 -0.0584  0.1228
24902W        W28122  13.461  10.754   8.456 -0.1846 -0.1265 -0.0849
24903W        W28123   9.979  17.337  13.744 -0.2579  0.0779 -0.2620
24904W        W28124   7.670   1.451   4.575  0.1876  0.0785  0.0951
24905W        W28125   8.852   4.186   2.775 -0.1676 -0.1378  0.0643
24906W        W28126   5.909  10.235   5.434 -0.0674  0.1818 -0.2751
24907W        W28127  12.856   8.846  10.904 -0.2195 -0.1932  0.0463
24908W        W28128  15.773   7.490  17.371 -0.1241  0.0616 -0.0378
24909W        W28129   9.518  12.469   8.177 -0.3758  0.1271 -0.0695
24910W        W28130   4.210   9.870  17.698  0.1563 -0.1260  0.2429
24911W        W28131   6.677   6.162   8.450 -0.0631 -0.2118 -0.1518
24912W        W28132  11.064   5.940  15.587 -0.0547 -0.0768  0.2068
24913W        W28133   8.642  13.530   0.489 -0.1007  0.0795  0.2086
24914W        W28134   7.911   6.136  13.880 -0.1296 -0.1219  0.1017
24915W        W28135   1.016   3.662   1.512 -0.0969  0.0831  0.1039
24916W        W28136  16.446  12.460  17.284  0.1269 -0.1449 -0.0667
24917W        W28137   8.950  15.014   1.699 -0.2042 -0.0516  0.1764
24918W        W28138  14.712  11.167  10.287  0.1725  0.0145 -0.0867
24919W        W28139  14.560  11.158  14.830 -0.2851  0.1075  0.1378
24920W        W28140  17.026   3.566   7.983 -0.2844  0.1253  0.1177
24921W        W28141  10.256   6.691  15.141  0.1677 -0.3267  0.1556
24922W        W28142  11.045   6.903  13.519  0.2301  0.0699 -0.0827
24923W        W28143   6.013   9.903  16.792 -0.1358  0.4439  0.2301
24924W        W28144   5.421   3.862  16.107 -0.1989  0.3126  0.0284
24925W        W28145  10.617   7.521  16.949 -0.0159  0.1586 -0.0936
24926W        W28146  17.261  13.709  12.928 -0.1155 -0.0852 -0.1077
24927W        W28147   7.933   5.642  14.974 -0.1141 -0.1598 -0.0408
24928W        W28148  12.894  14.423   0.400  0.2938 -0.0383  0.3287
24929W        W28149  11.450  11.729  11.546 -0.2940 -0.2054  0.1096
24930W        W28150   6.970   2.559   9.320 -0.1108 -0.3009  0.2075
24931W        W28151   5.956  12.037  11.480 -0.0441 -0.0666  0.2802
24932W        W28152   4.355   7.220   2.024 -0.2510  0.1333 -0.1816
24933W        W28153  11.621   4.615  10.398  0.2764 -0.0474 -0.1158
24934W        W28154   6.938   2.742  15.354 -0.0202  0.0638 -0.2417
24935W        W28155  12.301   4.325   5.924 -0.0152 -0.0557 -0.2301
24936W        W28156  15.100  13.853   8.654  0.0974 -0.3806  0.2804
24937W        W28157   1.944  13.165  14.644 -0.0632 -0.0615  0.3251
24938W        W28158  12.259   2.996   7.263  0.2613  0.4368 -0.1725
24939W        W28159   3.824   2.517   7.850 -0.0168  0.0540 -0.1530
24940W        W28160   2.296  11.106  14.748  0.0684 -0.1533  0.2061
24941W        W28161   7.015  10.238  13.787 -0.0388 -0.3338 -0.0176
24942W        W28162   7.950   4.231  12.891  0.0921 -0.1623  0.1476
24943W        W28163  13.928   9.951  14.063  0.1293  0.1054 -0.2714
24944W        W28164  11.918   8.056  12.778  0.1307 -0.1097 -0.4022
24945W        W28165   2.901  10.446  14.030  0.2315  0.1285  0.0989
24946W        W28166   5.508   3.525  15.111  0.0090 -0.1161  0.1535
24947W        W28167  13.931   8.536  11.188 -0.3062  0.0056  0.1024
24948W        W28168   4.744   8.362  16.438  0.0384  0.1178 -0.2645
24949W        W28169  17.591  13.041   7.030 -0.3050  0.1754 -0.1918
24950W        W28170   4.483   4.699   0.496 -0.0283 -0.0181 -0.0658
24951W        W28171  12.077  12.367  10.233  0.0534  0.0789  0.1397
24952W        W28172   9.194  14.982  13.932 -0.1851  0.2041  0.0846
24953W        W28173   3.590   7.923  17.017 -0.2911  0.0733  0.1573
24954W        W28174   7.705  17.577   3.102 -0.0110 -0.0756 -0.1198
24955W        W28175   5.942   8.088  11.397  0.0752 -0.3027  0.1391
24956W        W28176  16.009   4.772  13.827  0.0411 -0.0223  0.2567
24957W        W28177  11.446   5.238  17.249 -0.1197 -0.1259  0.0343
24958W        W28178   7.859   2.223  13.347  0.0079  0.1052 -0.1045
24959W        W28179  14.822   4.191   5.760  0.3224 -0.2528  0.0077
24960W        W28180  10.823   6.613   6.806 -0.2996 -0.3004 -0.1622
24961W        W28181  13.633  15.824  14.516  0.1077 -0.1454  0.0503
24962W        W28182  12.171  11.489   8.778 -0.0783  0.0401 -0.1406
24963W        W28183  15.558   9.669   9.220  0.0724  0.0574 -0.0327
24964W        W28184   8.977  10.152  15.986  0.2164  0.2701 -0.0573
24965W        W28185  15.129  12.822  15.347 -0.2679 -0.1875 -0.0367
24966W        W28186  11.432   1.592   0.684  0.0544  0.0135 -0.4668
24967W        W28187   8.353   6.857  14.270 -0.0529 -0.2010 -0.2086
24968W        W28188  16.633   9.760  13.157  0.2418 -0.2444 -0.1063
24969W        W28189   9.198  11.251  11.451 -0.3285  0.0558  0.1759
24970W        W28190   2.972   7.524   9.680  0.1108 -0.2067 -0.0732
24971W        W28191   5.656   6.419  15.647 -0.0009  0.3848  0.0817
24972W        W28192  11.545  10.780  11.118  0.1828 -0.1608  0.0161
24973W        W28193  11.877   0.110  12.521 -0.1720 -0.0053 -0.0402
24974W        W28194  11.672   2.513  17.826  0.2045  0.1242 -0.2444
24975W        W28195   7.565   7.803   9.011 -0.0782 -0.0256  0.1392
24976W        W28196   7.032  14.163  11.197 -0.1501 -0.2417 -0.0719
24977W        W28197  10.843   9.215   1.052 -0.1870  0.1246  0.2241
24978W        W28198   9.824   7.383   1.206 -0.0987 -0.0283  0.1343
24979W        W28199   2.889  13.439  17.876  0.0426  0.2498  0.1142
24980W        W28200   6.905  12.357  11.843  0.0872 -0.2987  0.2688
24981W        W28201   4.968  18.235  13.827 -0.0760  0.3418  0.0913
24982W        W28202  11.271   7.717   4.182  0.0993 -0.2309 -0.3189
24983W        W28203   1.839  18.249  12.288 -0.0565 -0.2437  0.1066
24984W        W28204  13.840  10.927  15.513  0.2441  0.0943  0.1095
24985W        W28205   2.380   3.841  12.050  0.1423  0.1192  0.2253
24986W        W28206  10.768   6.633  13.224  0.3228  0.3061 -0.0400
24987W        W28207   8.918  15.046  11.432 -0.0672 -0.2972 -0.4125
24988W        W28208  17.430  14.282  12.892  0.0294  0.3477  0.1334
24989W        W28209  16.171   5.210  10.220 -0.2623 -0.0876 -0.0846
24990W        W28210  10.249   7.805  11.754 -0.0365 -0.0167 -0.0516
24991W        W28211  11.235   6.547  14.144 -0.0712 -0.2328 -0.1021
24992W        W28212  10.224   7.965   7.106 -0.2142  0.3710  0.4051
24993W        W28213   8.549   5.339  12.439 -0.0361  0.2211  0.3992
24994W        W28214   9.383  10.438  16.216 -0.2232  0.1056  0.0696
24995W        W28215   3.460   5.417  11.413 -0.0663 -0.0420  0.0772
24996W        W28216  11.400  10.843  12.375  0.0109  0.1518  0.2327
24997W        W28217   7.809  10.795  13.297 -0.0850 -0.3525 -0.3287
24998W        W28218  11.685  10.070  10.529  0.1110 -0.4002 -0.1335
24999W        W28219   7.985   6.135  12.214 -0.0896 -0.0570  0.2243
25000W        W28220   2.258   3.332   1.337 -0.0361 -0.0095  0.1348
25001W        W28221   7.388   6.456   9.067  0.0162  0.2617 -0.0928
25002W        W28222   9.156   5.069  17.568 -0.3843  0.0731  0.0065
25003W        W28223  13.302  13.544  17.262  0.0259 -0.0426 -0.0474
25004W        W28224  10.386   3.008  17.493 -0.0730 -0.0185 -0.2276
25005W        W28225  16.759   4.551   1.875  0.0467  0.4333 -0.0166
25006W        W28226  16.206   5.572  11.862  0.1117 -0.2904 -0.1081
25007W        W28227  11.291  14.274   6.998  0.0327 -0.3347  0.0150
25008W        W28228   9.976  10.028  13.187 -0.1069  0.0652  0.1180
25009W        W28229   8.327  12.241   9.648  0.2996 -0.2527  0.1002
25010W        W28230  11.874   4.462   7.296  0.2316  0.0944 -0.0601
25011W        W28231   7.556   6.453  15.814 -0.1829  0.0612  0.1412
25012W        W28232   7.683  13.568   0.604 -0.1847 -0.0503  0.0331
25013W        W28233  10.482  10.010   3.358 -0.0932 -0.1921  0.0763
25014W        W28234   5.709  14.459  13.441 -0.3482  0.1646  0.6182
25015W        W28235  10.309   3.220  15.167  0.2851 -0.0669 -0.0794
25016W        W28236   7.201  13.120   6.487 -0.1829  0.0772  0.1254
25017W        W28237   5.443   7.487  17.987 -0.0060 -0.2251 -0.0165
25018W        W28238   9.595  13.844  10.515  0.1133 -0.1785 -0.2596
25019W        W28239  17.996   6.600  14.322  0.0417 -0.3069 -0.2543
25020W        W28240  10.579   7.843  11.256 -0.0084  0.2584 -0.1350
25021W        W28241  10.986   4.971   9.818  0.1412 -0.1514 -0.2010
25022W        W28242  15.737  11.238   7.620  0.2329  0.0072  0.3152
25023W        W28243  11.831   5.523  10.766  0.1315 -0.0025 -0.1787
25024W        W28244   9.357   7.484  11.434  0.1442  0.0528  0.0180
25025W        W28245   9.133  12.483  14.350 -0.0207  0.1710 -0.0247
25026W        W28246  13.029   9.898   7.926 -0.0965 -0.0538  0.0908
25027W        W28247   4.709   4.859  14.722  0.3176  0.2544  0.1551
25028W        W28248   6.613  10.649   6.452 -0.0378  0.0464  0.0396
25029W        W28249  15.416   9.370   4.809  0.2182 -0.0546 -0.3319
25030W        W28250  10.071   8.515  10.891 -0.0940  0.3371 -0.0305
25031W        W28251  16.103   8.265  11.695  0.1394 -0.0936  0.2213
25032W        W28252   0.266  10.250  10.583  0.1409 -0.2646 -0.0366
25033W        W28253   6.800   0.106  10.126  0.0123  0.1169  0.0521
25034W        W28254  14.386   9.943   3.843 -0.1653  0.1347 -0.3965
25035W        W28255   0.700  13.640   0.432  0.1060 -0.1480  0.0375
25036W        W28256   4.045   7.998  12.657 -0.0272  0.1360  0.0056
25037W        W28257   3.821   9.633  13.191  0.0149 -0.2130  0.0171
25038W        W28258   1.124  15.355  14.244 -0.0570  0.0423  0.0210
25039W        W28259   5.725   2.580  16.721  0.1135 -0.0674  0.2864
25040W        W28260   7.620   6.198  16.300 -0.0514  0.0877  0.1908
25041W        W28261  10.154   5.784   2.215 -0.0149 -0.1908  0.0939
25042W        W28262  10.838   1.177  17.167 -0.2610  0.0507 -0.0268
25043W        W28263  10.933  12.702  13.381 -0.0340 -0.1778  0.1512
25044W        W28264  11.292   8.202  11.551 -0.1909 -0.2300 -0.1364
25045W        W28265  15.707   8.120  15.863  0.0530 -0.1632 -0.0709
25046W        W28266  13.640  13.702  17.823 -0.1335 -0.1280  0.1004
25047W        W28267   9.410  15.100  10.933  0.0845  0.0692 -0.0047
25048W        W28268   8.747   5.151  15.718  0.2701  0.0271 -0.0174
25049W        W28269   8.350   6.849   2.444 -0.2627  0.0637 -0.0071
25050W        W28270   8.931  14.508  12.600 -0.3097  0.1102  0.1190
25051W        W28271   5.871   9.236  12.734 -0.1481 -0.0637  0.1833
25052W        W28272  16.055   6.432  17.314 -0.1004  0.1076  0.2639
25053W        W28273  10.453   9.079  16.056 -0.0658 -0.2419  0.0198
25054W        W28274  14.969  11.619  18.141  0.1220 -0.2717  0.1578
25055W        W28275  15.565  11.513   7.175 -0.0476 -0.1054 -0.2366
25056W        W28276  13.803   6.565  11.409 -0.3820 -0.0698 -0.1540
25057W        W28277  15.505  11.482   1.454  0.0443  0.1781  0.1546
25058W        W28278  13.561   6.430  16.981 -0.0665  0.0515  0.0142
25059W        W28279   9.557   7.285  13.998 -0.3390 -0.1798  0.0647
25060W        W28280   7.116   8.277  14.246 -0.0554 -0.3639 -0.2690
25061W        W28281   4.814   9.392  15.306  0.2828  0.0437 -0.2814
25062W        W28282   7.169  10.193   4.375 -0.0948 -0.1673 -0.3580
25063W        W28283  10.797  11.538  12.495 -0.0186  0.2847  0.1975
25064W        W28284   4.928  10.562  15.475  0.0533 -0.1064 -0.1983
25065W        W28285   6.948  14.239  10.075 -0.2528  0.2286  0.3097
25066W        W28286  11.062   9.698   0.959  0.1958  0.0636  0.3115
25067W        W28287  10.793   8.998  11.781 -0.2796 -0.0050  0.1426
25068W        W28288  10.794   9.271   5.658 -0.0891 -0.3395 -0.1447
25069W        W28289   8.143  12.478   6.644  0.1410  0.0662  0.0520
25070W        W28290  13.839   8.340  14.528  0.1172 -0.5521  0.2422
25071W        W28291   6.422  12.639   4.850 -0.3455 -0.0366  0.2160
25072W        W28292  10.908   7.563  13.379 -0.0247  0.1920 -0.2588
25073W        W28293   8.345   5.738  10.287  0.0482 -0.1976  0.1956
25074W        W28294  11.501   8.184  16.182 -0.4842 -0.0884 -0.0487
25075W        W28295   4.827  12.167  13.259  0.2689  0.0087  0.2632
25076W        W28296   9.493  10.419  11.173 -0.1751  0.3076 -0.0128
25077W        W28297   6.456   2.536  13.189 -0.3586 -0.1114  0.0163
25078W        W28298  12.486  12.530  10.017  0.0846 -0.1395 -0.0709
25079W        W28299  16.524  12.162  15.569  0.1363 -0.1862 -0.1957
25080W        W28300  16.718   8.648  15.699  0.3027  0.1446  0.2170
25081W        W28301  12.975   6.007  16.924 -0.4302 -0.3064 -0.1509
25082W        W28302  10.715   8.289  15.224 -0.2075  0.2253 -0.0980
25083W        W28303  10.591  12.097  14.573  0.0217 -0.0221  0.3749
25084W        W28304   9.456   4.667   3.112  0.0703 -0.2974 -0.0574
25085W        W28305   9.755   9.761  11.649 -0.1914 -0.2705 -0.2096
25086W        W28306   7.835  13.211  15.358  0.0363 -0.1381  0.1051
25087W        W28307   6.198   8.042  10.226 -0.0129  0.0949 -0.2082
25088W        W28308  17.574  14.744   6.306 -0.1288 -0.3177 -0.1826
25089W        W28309   8.218   4.622   1.577 -0.0076 -0.0067 -0.0191
25090W        W28310   2.073  11.462  17.155  0.2206 -0.0945  0.0990
25091W        W28311  16.032  12.346  16.311 -0.0710 -0.1016  0.1660
25092W        W28312  15.709  15.588   0.219  0.2184 -0.0392  0.2069
25093W        W28313   9.437  10.133  11.654  0.1574  0.1205  0.0199
25094W        W28314   8.678   7.183  14.062  0.1093 -0.0869 -0.1047
25095W        W28315  14.896   7.447   0.460  0.1777  0.3596  0.1355
25096W        W28316   8.691   3.420  13.225 -0.4229 -0.4085  0.1775
25097W        W28317   6.063  10.523  10.740  0.1589  0.1229  0.2954
25098W        W28318  11.326   8.922  17.995  0.0716  0.2060 -0.0232
25099W        W28319  13.226  12.842  17.890  0.1249  0.1165  0.3259
25100W        W28320   4.070   3.534  11.765 -0.2522  0.0314 -0.2430
25101W        W28321  17.988  12.852   3.751 -0.2541 -0.1060  0.0603
25102W        W28322   1.532  13.090  12.776 -0.0531  0.1073  0.1209
25103W        W28323   7.439   6.792  17.237 -0.0514 -0.1096  0.4298
25104W        W28324  15.302  17.912  16.249 -0.1292 -0.0167 -0.0920
25105W        W28325  13.321  13.041  16.156  0.0065  0.1813 -0.2721
25106W        W28326   5.751   7.319  10.890  0.0689 -0.0679  0.0972
25107W        W28327  16.598   7.322  18.125 -0.4352 -0.1637 -0.1783
25108W        W28328   4.651  12.051  17.681 -0.2931  0.0989  0.0787
25109W        W28329   6.308   4.953  11.176 -0.2393  0.1642 -0.0076
25110W        W28330   9.032  14.425  15.410  0.0608  0.3784 -0.0979
25111W        W28331   0.806  12.282  15.684  0.0716  0.0609  0.0497
25112W        W28332   0.085  10.627   2.299  0.1803 -0.0205  0.1020
25113W        W28333   6.140   3.389  14.476 -0.0076 -0.1128 -0.0879
25114W        W28334   2.212   5.680  14.313 -0.0555 -0.0715 -0.1084
25115W        W28335  10.356   7.886  10.447 -0.2577  0.0036  0.1019
25116W        W28336  15.663   6.777  14.698 -0.1007 -0.1760 -0.1395
25117W        W28337  12.642  10.608   8.974  0.0172 -0.0693 -0.3636
25118W        W28338   9.991   7.808   1.617  0.0790 -0.0802  0.0357
25119W        W28339   4.439   9.350   8.500 -0.0522  0.3724 -0.2132
25120W        W28340   8.008   8.404  15.708 -0.0908 -0.1621 -0.0776
25121W        W28341  12.971   6.559  16.131  0.0574 -0.0315  0.2403
25122W        W28342   2.032  10.606  11.657  0.2979 -0.2081  0.0631
25123W        W28343   3.294  10.060  12.975  0.1586  0.2188 -0.2477
25124W        W28344   8.193   3.062  11.246  0.1797 -0.1141  0.2722
25125W        W28345  12.417   5.042  15.295 -0.1835 -0.0065  0.2460
25126W        W28346  11.458   2.629  12.480 -0.0755  0.2002  0.1099
25127W        W28347   6.497  12.576  15.404 -0.0744  0.1513 -0.0526
25128W        W28348   6.945   5.136  10.373  0.5238  0.0926  0.1558
25129W        W28349  15.209  10.893   0.310 -0.1766  0.3784  0.2835
25130W        W28350   9.841   5.065   6.280 -0.5143 -0.0881  0.0469
25131W        W28351   3.456   0.255   5.706  0.0008  0.0448  0.0629
25132W        W28352   5.934   5.865   0.432  0.0017  0.4030 -0.4148
25133W        W28353   5.417   9.948   7.892  0.1822  0.1446 -0.0001
25134W        W28354   5.859   4.619  16.446 -0.2704  0.1989  0.1778
25135W        W28355   6.663   4.832  11.531 -0.2984 -0.0215 -0.2321
25136W        W28356  12.315   6.319  14.927 -0.0787 -0.0910 -0.2246
25137W        W28357   7.007  11.812  10.450  0.1569  0.2002  0.2765
25138W        W28358   7.454  10.821  12.985 -0.0642  0.2495 -0.1639
25139W        W28359  17.069  11.747  10.303 -0.2805 -0.1840 -0.0423
25140W        W28360   8.849   6.953   0.406 -0.2311  0.0134 -0.0159
25141W        W28361   5.861   7.343   0.536 -0.1244  0.1016  0.1899
25142W        W28362  10.157  10.774   4.659  0.0419  0.1757  0.0397
25143W        W28363  14.627   7.304  10.048 -0.0492 -0.2614  0.1049
25144W        W28364  11.371   4.165  17.056 -0.3031  0.2049  0.0335
25145W        W28365  13.604  11.752  10.962  0.0948  0.1718  0.0483
25146W        W28366  10.559   9.598   1.107  0.0777  0.0843 -0.2829
25147W        W28367  11.055   9.768   2.371  0.0943  0.0399  0.1062
25148W        W28368   9.259   2.223  11.876  0.1108  0.1391  0.0316
25149W        W28369  12.241   9.285   6.579  0.0778 -0.0890 -0.1340
25150W        W28370  15.546   4.911  10.779  0.1155 -0.1870 -0.2494
25151W        W28371  12.474   4.992  16.415 -0.0245  0.1218 -0.0262
25152W        W28372  10.495   0.488  13.331  0.0834  0.0093 -0.2972
25153W        W28373  17.771   8.528  14.418  0.0062  0.0069 -0.0260
25154W        W28374   5.408  10.863  11.679  0.0731  0.1025  0.0291
25155W        W28375   3.910   9.135  15.545  0.2785  0.0055 -0.4208
25156W        W28376   5.583   2.454  14.179 -0.2544  0.3878  0.0552
25157W        W28377   5.832  10.473  12.981  0.0929 -0.2253 -0.1300
25158W        W28378   6.291   4.936   9.865 -0.3757 -0.2159 -0.2235
25159W        W28379  14.158   6.211  12.357 -0.1997 -0.0076 -0.1096
25160W        W28380   3.353   9.188  15.457 -0.2911 -0.0441  0.4198
25161W        W28381  14.428   8.135  14.749 -0.0384 -0.0209 -0.1075
25162W        W28382   4.689   7.754   0.006 -0.2298 -0.2715 -0.0575
25163W        W28383  10.859   4.253  11.447 -0.1523 -0.1814 -0.1295
25164W        W28384   2.570  14.200   7.505  0.2441  0.2118  0.2558
25165W        W28385   6.881   5.546  14.838 -0.0654 -0.0937 -0.2808
25166W        W28386   8.660  11.576  10.014  0.0931 -0.0993  0.2466
25167W        W28387  17.686   5.237  18.178  0.3949 -0.0855 -0.1084
25168W        W28388  13.924   4.732  17.539 -0.0365 -0.2444 -0.2153
25169W        W28389   2.526   7.882   0.714  0.1348  0.0033 -0.2336
25170W        W28390   7.723   2.681   8.522 -0.1899 -0.1968 -0.2067
25171W        W28391  10.457  13.176   9.011 -0.0181  0.1447  0.4929
25172W        W28392  10.809  12.523   7.860 -0.1196  0.0354  0.0089
25173W        W28393   5.596   6.266   3.458 -0.0969 -0.0674 -0.0972
25174W        W28394   9.915   6.461   0.814  0.0468  0.0277 -0.0964
25175W        W28395   4.667   9.066   6.230  0.0390 -0.0707  0.0674
25176W        W28396   9.149  12.412  18.254 -0.0365  0.2204 -0.0793
25177W        W28397   4.608   1.420  17.797 -0.0136 -0.0874  0.2557
25178W        W28398   8.197   8.543  17.936 -0.1771 -0.2985  0.0280
25179W        W28399  10.688   0.858   7.777  0.0266 -0.1385  0.1390
25180W        W28400   7.452   8.268  17.426  0.0798  0.0421  0.2126
25181W        W28401   0.820   2.849  15.838  0.0848  0.0884 -0.0489
25182W        W28402  10.273  12.723   7.869 -0.2083 -0.2447  0.3158
25183W        W28403   6.269  11.818   4.873 -0.2605  0.2299 -0.1481
25184W        W28404  13.353   7.835  16.065  0.1944  0.1607  0.0646
25185W        W28405   7.972  11.361   8.081 -0.1119 -0.1015 -0.0777
25186W        W28406  10.120   5.978  11.507 -0.1694 -0.0049 -0.1542
25187W        W28407   3.478   8.558  12.032 -0.2060  0.1463 -0.2068
25188W        W28408  15.901  18.126  18.100 -0.0358  0.1620 -0.3139
25189W        W28409   6.193   6.197  12.526 -0.0320  0.1051 -0.3787
25190W        W28410   5.102   9.845  13.688 -0.2402 -0.1737 -0.0522
25191W        W28411   6.499   8.386  17.444  0.0424  0.1383 -0.1268
25192W        W28412   7.351  14.506  14.701  0.0074  0.1180  0.2231
25193W        W28413  14.907  13.842   0.333 -0.3510  0.2374 -0.2223
25194W        W28414  11.632  16.009   8.198 -0.3910 -0.0832 -0.0206
25195W        W28415  10.730   2.384   9.320  0.1965  0.0670 -0.0706
25196W        W28416   7.065  12.523   8.831  0.3403  0.2093  0.2462
25197W        W28417   8.347  11.174  15.470 -0.0335 -0.2648  0.1134
25198W        W28418   7.877   8.678  14.415  0.3057 -0.1537 -0.0114
25199W        W28419   8.308  12.957  14.720  0.0202 -0.2005  0.1188
25200W        W28420   8.863   2.481  17.438 -0.0016  0.3884 -0.0383
25201W        W28421   2.315   6.673  12.955 -0.2825  0.1155  0.1465
25202W        W28422  10.122  10.936   5.403 -0.0420  0.0277  0.0056
25203W        W28423  11.273   5.676  17.487 -0.1101  0.1149 -0.3270
25204W        W28424  17.138  13.669   9.353  0.3113  0.3046 -0.2526
25205W        W28425  11.640   3.614  12.646 -0.1156 -0.1525 -0.1571
25206W        W28426   7.566  12.363  13.936  0.0249  0.2677 -0.1714
25207W        W28427   4.954  14.292  14.496  0.0987 -0.0575 -0.2514
25208W        W28428  13.318   6.663  11.262  0.0859 -0.0759 -0.1487
25209W        W28429   8.526   2.046   9.609 -0.5378 -0.0491 -0.0149
25210W        W28430   7.280  15.035  17.645 -0.2150  0.0236 -0.0437
25211W        W28431  10.773  10.328  17.106 -0.0597  0.0664  0.0235
25212W        W28432   7.262   5.423   6.354  0.2208  0.2330 -0.0802
25213W        W28433   8.669  11.664  13.387  0.0459  0.0470 -0.2204
25214W        W28434  15.181  10.781  15.409 -0.0462 -0.2839 -0.1464
25215W        W28435   5.571   8.499   2.750  0.0937  0.0138 -0.2927
25216W        W28436   0.034  13.428   1.289 -0.0947 -0.0538 -0.0346
25217W        W28437   5.085  16.046  16.697  0.0348  0.0314  0.1011
25218W        W28438   9.858  13.212  11.171 -0.0458 -0.0934 -0.0025
25219W        W28439   8.212   5.378   1.963  0.1463 -0.2007  0.0134
25220W        W28440  13.286  14.560   1.882 -0.2387  0.2170  0.1207
25221W        W28441   8.899   2.484   9.050 -0.1264  0.0135  0.1317
25222W        W28442   4.863   5.146  10.294  0.2385  0.0502 -0.0841
25223W        W28443   2.326  10.113   9.084 -0.0380 -0.2071 -0.2030
25224W        W28444   7.111  15.794  12.441  0.0080  0.1565 -0.1143
25225W        W28445  10.676   2.920  10.596 -0.1744  0.2307 -0.1794
25226W        W28446   1.990  15.784  16.260  0.2345 -0.3051 -0.2576
25227W        W28447   3.218  13.435  16.729 -0.0574 -0.4035  0.2168
25228W        W28448  13.028   8.191  10.618 -0.2578  0.1314 -0.1802
25229W        W28449   8.907  13.012  12.964  0.2050  0.1375 -0.0102
25230W        W28450   4.444   5.797   9.811  0.0739  0.2051 -0.0068
25231W        W28451   6.840   9.982  17.826 -0.1783  0.0782 -0.2586
25232W        W28452  12.655   9.230   6.096 -0.0628  0.0645  0.0668
25233W        W28453   5.503   8.620  12.221 -0.1638  0.0300 -0.1966
25234W        W28454  15.407  10.356  15.693 -0.1356  0.0240 -0.4595
25235W        W28455   5.453   2.851  13.839 -0.2401  0.1064 -0.1052
25236W        W28456  10.287   7.564  14.688 -0.2846  0.0160 -0.0641
25237W        W28457   8.198   1.261   8.302  0.0901 -0.0675  0.2786
25238W        W28458  10.196   6.420  12.683  0.0276 -0.1945  0.2123
25239W        W28459  16.216   8.103   8.108 -0.1829 -0.1383 -0.1673
25240W        W28460   6.256   7.700   7.787 -0.1535  0.2317  0.2017
25241W        W28461   3.611   3.654   3.048 -0.0612 -0.2733 -0.0932
25242W        W28462  10.577   8.693  13.801  0.0576 -0.1751 -0.0850
25243W        W28463  13.719   6.949  16.821  0.2103 -0.2705  0.3549
25244W        W28464   9.107   9.377  13.619 -0.3557 -0.0528  0.0493
25245W        W28465   0.775   5.241  17.105 -0.4245  0.1026 -0.1462
25246W        W28466   9.543   4.400   0.298 -0.2640  0.1892 -0.0010
25247W        W28467  10.894  12.223  13.561  0.1858  0.0973  0.3361
25248W        W28468  10.596  11.729  13.013 -0.1206 -0.0693 -0.1929
25249W        W28469   8.798  11.965  15.357 -0.0455 -0.1905 -0.1264
25250W        W28470  17.897   9.994  13.126 -0.1744  0.1382 -0.1971
25251W        W28471  10.520   1.961  16.722 -0.2645 -0.2987 -0.2652
25252W        W28472  10.628   5.912  16.196  0.1378  0.1935  0.2551
25253W        W28473   9.770  11.604   6.380  0.0478  0.2311  0.0264
25254W        W28474   0.986  12.377   3.873  0.2329 -0.0098 -0.1217
25255W        W28475   5.028  10.096   1.524 -0.0248  0.0134 -0.2493
25256W        W28476   8.306   7.286   4.956 -0.2232 -0.1546 -0.0421
25257W        W28477   0.955  11.247  15.544  0.1327 -0.1543 -0.0038
25258W        W28478   1.770   5.295  12.879 -0.0236 -0.1990  0.0611
25259W        W28479   6.114   7.752  12.616 -0.0393  0.1001  0.0301
25260W        W28480  14.659   4.763   5.175  0.1138 -0.0289 -0.1474
25261W        W28481  17.481  12.239   0.518 -0.0965  0.0681  0.0509
25262W        W28482   0.193  11.073   7.038 -0.0270 -0.5109  0.3853
25263W        W28483  11.028   6.567  14.673  0.0547 -0.2240 -0.0401
25264W        W28484   7.775  16.514   3.361 -0.0889 -0.1320 -0.1693
25265W        W28485  13.476  11.782   2.391  0.0662  0.0054  0.2584
25266W        W28486  14.604   7.865  16.225 -0.0045  0.2952 -0.0976
25267W        W28487   3.728  11.980  17.991 -0.1252  0.1842 -0.0656
25268W        W28488   4.669   6.368  13.706 -0.0775  0.2783  0.0301
25269W        W28489  13.279  15.458   3.146 -0.2680  0.0151  0.1584
25270W        W28490   3.813  10.150  13.929 -0.1509 -0.1628  0.1891
25271W        W28491  10.296  14.159   7.506  0.0520  0.2183 -0.0078
25272W        W28492   5.600  11.346  15.563 -0.0899  0.1068  0.0446
25273W        W28493   7.083   7.962   6.080 -0.0848  0.1039  0.2058
25274W        W28494  12.092   3.851  17.700  0.0902  0.0057 -0.1127
25275W        W28495  10.758   6.718   7.770  0.0338  0.1904 -0.1555
25276W        W28496   9.575   6.401  16.971  0.0637 -0.0326  0.0797
25277W        W28497  11.445  14.990  14.519 -0.1489  0.3301  0.0779
25278W        W28498   9.532   0.400   0.256  0.2553 -0.2251  0.0512
25279W        W28499   8.961  17.128   1.311  0.1240  0.0707 -0.2001
25280W        W28500  13.453  14.946   0.865 -0.1112 -0.3026 -0.2515
25281W        W28501   4.128   7.435  14.080 -0.0172 -0.1281 -0.0222
25282W        W28502   5.385  15.667  13.288 -0.2634 -0.2053 -0.6212
25283W        W28503   4.639   9.949  17.054  0.1368  0.0082 -0.0857
25284W        W28504   4.684   2.283  15.729 -0.1210 -0.1756 -0.1572
25285W        W28505  15.857   5.576  11.427 -0.0787  0.3475 -0.0527
25286W        W28506  10.347   3.836  14.150  0.0448  0.2086 -0.0551
25287W        W28507  10.035  15.823  18.062 -0.1028 -0.2528  0.0242
25288W        W28508  13.209  13.500  15.951 -0.5480 -0.1317 -0.0226
25289W        W28509   9.317   2.598  14.431 -0.1126 -0.3632 -0.0462
25290W        W28510   3.433   9.086  13.642 -0.0637 -0.0653 -0.1355
25291W        W28511   9.408  16.489  14.257  0.2799 -0.0389 -0.2357
25292W        W28512  12.836  12.643   0.194  0.0116 -0.0588 -0.1050
25293W        W28513  10.662  10.435   7.960 -0.0119  0.4883 -0.4313
25294W        W28514  10.570   8.734   1.029  0.2669  0.2406  0.0644
25295W        W28515  12.541   4.932  12.864  0.0511 -0.0295  0.2627
25296W        W28516   4.655   6.952  13.730 -0.2422  0.1985  0.0160
25297W        W28517   5.430   6.435  17.642 -0.0279  0.1191  0.1059
25298W        W28518   7.182   9.668  17.162 -0.1435 -0.3856 -0.0919
25299W        W28519   6.775   8.486   1.171 -0.2783 -0.0730  0.0258
25300W        W28520   6.519   6.265   3.952  0.1496 -0.0557 -0.0496
25301W        W28521   8.224   9.086  12.567 -0.2897 -0.0537 -0.0287
25302W        W28522   9.313  11.342  16.617 -0.1026  0.0685 -0.0853
25303W        W28523   3.417   3.368  13.226  0.0218  0.0975  0.1685
25304W        W28524   3.872  11.797  14.508 -0.2020  0.0597  0.0735
25305W        W28525   7.593   7.583  14.288  0.0765 -0.0228 -0.2333
25306W        W28526   6.715   1.641   9.471  0.1678  0.0260  0.4764
25307W        W28527   2.512   4.234  10.079 -0.3935  0.1109  0.1340
25308W        W28528  17.735   5.316  10.347  0.1787 -0.0370 -0.4583
25309W        W28529   7.461   8.153  16.912 -0.1411  0.1606  0.1516
25310W        W28530  14.065   6.555  10.694 -0.1162 -0.2032 -0.1727
25311W        W28531   8.413   6.780  14.781  0.1966  0.3085 -0.0048
25312W        W28532  14.041   9.655   4.118 -0.3331 -0.0269  0.0625
25313W        W28533   8.255   6.758  15.441  0.0612  0.0736 -0.0677
25314W        W28534  12.347  14.791  14.818  0.1762  0.1662  0.1621
25315W        W28535   9.756   5.260  17.376 -0.2235 -0.3206  0.0604
25316W        W28536   6.278   6.289  18.099 -0.1015 -0.0339  0.3714
25317W        W28537   4.912   4.200   3.361 -0.3273 -0.1672  0.2266
25318W        W28538  12.499   4.488   8.886  0.0022 -0.1619  0.0899
25319W        W28539  11.572   3.999  16.579  0.0734  0.1703 -0.0179
25320W        W28540   9.716   7.938   7.045  0.5502 -0.2686  0.0012
25321W        W28541   6.822  11.195   0.938  0.2437  0.0915 -0.2929
25322W        W28542   7.284   2.704   1.631 -0.1963  0.0423  0.0219
25323W        W28543  10.424   1.026  16.924 -0.2122  0.1229  0.3215
25324W        W28544   6.102   6.561  16.913 -0.1811 -0.3648 -0.0577
25325W        W28545  13.251   9.440   0.665 -0.1166 -0.2608 -0.0074
25326W        W28546   7.398   6.621   7.075  0.0870  0.0382  0.1329
25327W        W28547  14.168   8.305  15.661  0.1161  0.0019  0.1057
25328W        W28548   6.842  12.321   0.433 -0.0584  0.1049 -0.0159
25329W        W28549   9.751  10.427  17.091  0.0032  0.2718 -0.0867
25330W        W28550  11.477   3.403   0.185  0.0779 -0.1305  0.0476
25331W        W28551   6.232   6.006   4.339  0.2504  0.0330 -0.1724
25332W        W28552   6.437   3.619   2.434  0.2624  0.0514 -0.1443
25333W        W28553   7.570  10.154  15.007  0.0973 -0.0582 -0.0019
25334W        W28554   6.412   2.942   0.400 -0.1103 -0.0608  0.2064
25335W        W28555   3.245  12.109  11.485  0.0953  0.1189  0.1018
25336W        W28556   6.573  11.427   2.159  0.1682  0.1469  0.1110
25337W        W28557   3.016  10.404  15.633  0.1580 -0.1999  0.2827
25338W        W28558   4.510   8.033   3.229 -0.0794 -0.0721  0.2137
25339W        W28559  12.811  16.610   0.916 -0.0711  0.0334 -0.2022
25340W        W28560   1.209  12.671   0.595 -0.0647 -0.0539  0.3400
25341W        W28561   5.878   6.389  16.504  0.1504  0.1151  0.0780
25342W        W28562   2.285  14.431  15.487  0.1061  0.2739  0.3478
25343W        W28563  15.966  15.314   0.860 -0.1446 -0.1386  0.1816
25344W        W28564  14.840   6.910  16.791 -0.1381  0.0229  0.0220
25345W        W28565   9.118   9.710   4.698 -0.0875  0.2468  0.1454
25346W        W28566  11.457   8.700   2.022  0.0782 -0.1559  0.0688
25347W        W28567   7.972   4.874  14.367  0.0392  0.0293 -0.1673
25348W        W28568  13.624   8.686   5.503 -0.0804 -0.2867  0.2130
25349W        W28569   8.577  12.211  13.550  0.2111 -0.0102  0.0498
25350W        W28570  11.091  14.748  13.054 -0.0895  0.2936  0.2077
25351W        W28571  10.732  12.975   4.872  0.3900 -0.0757  0.1169
25352W        W28572   6.727   9.447   4.891  0.1826 -0.3233 -0.1856
25353W        W28573  18.064  13.930  16.651  0.1383 -0.4016 -0.1913
25354W        W28574  15.029   8.395  13.854 -0.0021 -0.1296  0.1046
25355W        W28575   5.731   5.447  12.802  0.1387 -0.1814  0.0050
25356W        W28576   5.310   2.255  18.045  0.0625  0.1028 -0.0145
25357W        W28577   4.526   3.981   4.873  0.0055 -0.0365  0.1061
25358W        W28578   6.718   6.835  18.095 -0.0067 -0.1139  0.1567
25359W        W28579  14.539  11.549  15.432  0.2221 -0.1710  0.1623
25360W        W28580   9.617  14.306  16.730 -0.0406  0.1057  0.1400
25361W        W28581  11.736  17.305   0.420 -0.2836 -0.0726 -0.0761
25362W        W28582   9.927  13.198  12.635  0.2476  0.0733  0.4078
25363W        W28583   7.406   8.795   3.823  0.0288  0.0789 -0.2226
25364W        W28584   9.279   3.993  17.300  0.2676  0.2058 -0.0472
25365W        W28585  16.715   6.141   6.006 -0.1293 -0.2312  0.1276
25366W        W28586   9.271   6.164  17.316 -0.2679  0.2216 -0.1666
25367W        W28587  17.193  12.426   2.759  0.0449  0.0146 -0.2249
25368W        W28588   8.639  11.878  12.097 -0.3862 -0.0124 -0.0278
25369W        W28589  11.990  11.095   3.339  0.0450  0.1788 -0.0329
25370W        W28590  12.003  10.087   1.941 -0.1597 -0.1770  0.0810
25371W        W28591  11.504  15.039   1.638  0.1420 -0.1354  0.0543
25372W        W28592  10.961   6.584  10.170 -0.2006 -0.0074 -0.2642
25373W        W28593  12.548  11.543  17.919 -0.2266 -0.0981 -0.1657
25374W        W28594   6.003  14.302   9.699 -0.3491 -0.1514  0.1110
25375W        W28595  10.694   4.882  14.851  0.2305 -0.2255 -0.2410
25376W        W28596  11.574   4.962  16.847 -0.1897  0.0235 -0.0094
25377W        W28597   5.791  11.788  14.295  0.1335  0.0698 -0.1410
25378W        W28598   7.014   9.926  14.706  0.0901  0.0674 -0.0549
25379W        W28599   3.581   9.781  14.184  0.0304 -0.0471 -0.1499
25380W        W28600   5.007  12.853  15.991 -0.1885  0.0510 -0.0486
25381W        W28601   9.120   5.141  10.609  0.2269 -0.1285 -0.0411
25382W        W28602  10.701   6.494   5.148 -0.0888 -0.3072  0.4033
25383W        W28603  10.220   7.276  15.055  0.1869 -0.2156 -0.1189
25384W        W28604  14.197   8.878  13.961  0.0153 -0.0482 -0.1813
25385W        W28605   5.964   9.127  15.460  0.0598  0.0272  0.1338
25386W        W28606   1.362  13.814  17.288 -0.1391 -0.4111  0.0183
25387W        W28607   8.988   9.699   0.286  0.2245  0.0386  0.1208
25388W        W28608  11.457  13.166  13.223  0.0994 -0.3966 -0.2002
25389W        W28609   6.176   9.213  10.577  0.2786  0.0603 -0.1441
25390W        W28610   2.040   6.746  10.605  0.0437  0.0019  0.3118
25391W        W28611  10.975   3.730   2.450 -0.2193 -0.4249 -0.2780
25392W        W28612   3.389  10.412  17.224  0.3474 -0.0637  0.0656
25393W        W28613   7.595   7.337  14.750  0.0094  0.3823 -0.0251
25394W        W28614   3.916   4.344   2.380 -0.1201 -0.1168 -0.1268
25395W        W28615  12.986  10.590  16.903  0.0865 -0.0739  0.0952
25396W        W28616  10.174   8.306  16.504 -0.1426  0.1969  0.1250
25397W        W28617  11.885   3.614   0.380 -0.1051  0.0092  0.1251
25398W        W28618  13.911  12.133  16.701 -0.0714 -0.0200 -0.1613
25399W        W28619   9.455   9.399  18.086 -0.0235 -0.3301 -0.1715
25400W        W28620  12.451  13.326   4.031 -0.1084  0.1664 -0.1084
25401W        W28621   8.434   6.205   5.872 -0.2568 -0.2014 -0.2064
25402W        W28622  10.162   9.803  17.702  0.2541 -0.1268 -0.1744
25403W        W28623   5.608   4.059  10.438  0.3609 -0.0556  0.0260
25404W        W28624  11.679  11.082  13.771  0.1013 -0.1525  0.0700
25405W        W28625   3.840  12.818   2.637  0.2123 -0.0962 -0.1030
25406W        W28626   8.245   9.917  17.902  0.0555  0.4002 -0.0516
25407W        W28627   8.681  15.917   6.274 -0.0284 -0.0131  0.0342
25408W        W28628  11.425  12.177   1.336  0.2898 -0.0673 -0.3837
25409W        W28629   2.710  10.004  11.751  0.2464  0.0086  0.0125
25410W        W28630  13.196  13.157  12.111 -0.0931 -0.0630  0.1158
25411W        W28631   8.798   3.225   0.335  0.1446  0.0538 -0.1933
25412W        W28632   8.585   3.059   0.853 -0.1953 -0.1962 -0.3158
25413W        W28633   9.983  11.760  17.759 -0.1727  0.4037  0.1418
25414W        W28634   7.123   5.398   4.797 -0.3083  0.1350 -0.2500
25415W        W28635  11.173  10.510  16.528  0.0444 -0.1602  0.0884
25416W        W28636  16.887   8.891   1.579 -0.0177 -0.2078  0.1650
25417W        W28637   5.775  10.579  17.550 -0.1656  0.3355  0.2314
25418W        W28638  11.085   8.871   0.194 -0.2072  0.0673  0.3144
25419W        W28639   4.388   6.774  14.636  0.0447  0.1623  0.0090
25420W        W28640  13.687   7.157  14.164  0.2295 -0.1543  0.0058
25421W        W28641   9.485   9.353  15.881  0.2661  0.1908 -0.4102
25422W        W28642   5.360  13.312   7.406 -0.2640  0.1650  0.3975
25423W        W28643   3.723   3.787  17.888 -0.1546  0.0493  0.0005
25424W        W28644   9.202  10.311  14.083 -0.2380  0.2068  0.3425
25425W        W28645   8.243   9.534  11.024  0.0312  0.1870 -0.1695
25426W        W28646  17.775  15.682   7.927 -0.1618  0.0713  0.1393
25427W        W28647  15.748  16.835  15.384  0.2607  0.2007 -0.2830
25428W        W28648  14.961   8.368   2.854 -0.1895  0.0157  0.1851
25429W        W28649   5.903   8.617   5.652 -0.0674 -0.0108  0.1861
25430W        W28650  17.673   4.003  17.809  0.4694  0.3739 -0.1076
25431W        W28651  11.975   2.439  15.352 -0.1549 -0.1858  0.0932
25432W        W28652  10.318   2.329   4.741  0.3496 -0.0598  0.0634
25433W        W28653   1.470   0.189  11.334 -0.1113 -0.1350  0.3534
25434W        W28654   0.941  11.343  12.947 -0.0234  0.0162  0.2028
25435W        W28655   3.530   7.565   5.527  0.3623 -0.0315 -0.3278
25436W        W28656   2.882   9.652   3.104  0.1717 -0.3632 -0.0890
25437W        W28657   4.847  11.577  12.276  0.0499 -0.0529  0.1125
25438W        W28658   8.734  11.426  11.468  0.2307 -0.1876  0.0713
25439W        W28659   6.623   9.988  14.018  0.0248 -0.0492  0.0238
25440W        W28660   9.719  12.586  10.858 -0.0130 -0.1308 -0.1645
25441W        W28661  12.637   1.338  17.851  0.0553 -0.4338 -0.1318
25442W        W28662  12.384   8.909   1.568 -0.0617  0.0847  0.0027
25443W        W28663   7.955   8.554   0.511 -0.0011 -0.1717  0.3286
25444W        W28664  14.057  14.476  15.922 -0.2054  0.0030 -0.1928
25445W        W28665   6.022   7.178  10.169 -0.1226 -0.3103  0.3191
25446W        W28666  16.529  16.410  17.683 -0.1273  0.0284 -0.0089
25447W        W28667   5.776   1.653   1.463 -0.0839 -0.0761  0.0180
25448W        W28668   7.059   3.062   0.856 -0.0744  0.2024  0.1218
25449W        W28669   9.328   7.145  16.157  0.2359  0.0075 -0.1692
25450W        W28670  13.983   7.951  16.069  0.1636  0.0946  0.1205
25451W        W28671  15.449  14.864  13.570 -0.1160  0.2343 -0.2327
25452W        W28672  15.645   7.898  13.890 -0.0130  0.0755 -0.2282
25453W        W28673  11.963  12.693  16.484 -0.4504  0.0805 -0.2025
25454W        W28674  13.807  10.347   7.968 -0.0117 -0.0826 -0.1038
25455W        W28675   3.526   8.253  17.485 -0.0811 -0.1736  0.1679
25456W        W28676  14.641  11.398  17.502  0.1501 -0.0738  0.3696
25457W        W28677  11.208  12.137   2.961  0.0165  0.3975 -0.0403
25458W        W28678  12.098  16.576   3.873 -0.0032 -0.0791 -0.0223
25459W        W28679   0.834   2.052  12.246 -0.1341 -0.1239 -0.1680
25460W        W28680   0.294  11.375  14.364  0.0769 -0.3065 -0.0733
25461W        W28681  17.424   8.366   0.053  0.0801  0.3758 -0.0059
25462W        W28682   7.259  12.707   0.406  0.0978  0.3303 -0.0827
25463W        W28683   2.343   9.033   1.031  0.0444 -0.0588 -0.0104
25464W        W28684   5.855   8.085  12.251 -0.1146 -0.0363  0.1821
25465W        W28685  14.356   9.425   0.680  0.1008  0.0905  0.2109
25466W        W28686  10.644  11.901   1.609 -0.0044  0.0994  0.3344
25467W        W28687   8.466   7.798   6.142  0.2237  0.2789 -0.0029
25468W        W28688   6.643   0.559  13.003 -0.2848 -0.2912 -0.2106
25469W        W28689  10.328  11.097  17.338 -0.0434  0.1482 -0.0088
25470W        W28690  16.134   2.997   0.552 -0.0784  0.0243  0.1510
25471W        W28691  12.905   9.178   3.892 -0.0555 -0.0101 -0.0807
25472W        W28692  11.311  13.402  10.325  0.1055  0.1059 -0.0052
25473W        W28693   7.960   9.183  13.033  0.2426  0.0619 -0.1519
25474W        W28694   9.710  15.514  14.608  0.1434 -0.1591  0.4000
25475W        W28695   9.060  10.608   1.510 -0.4006 -0.1207 -0.0929
25476W        W28696  14.535  11.490  11.899  0.2115  0.1810 -0.0655
25477W        W28697   9.286   7.765  17.545  0.1703 -0.2074 -0.3318
25478W        W28698  12.171   5.941   3.983 -0.3787  0.0951  0.1262
25479W        W28699   6.943   4.784  17.148 -0.1943 -0.0508  0.0484
25480W        W28700  10.930   4.296   1.748 -0.2083  0.0675 -0.0098
25481W        W28701   1.935  12.079   2.761  0.1058  0.5040 -0.1570
25482W        W28702  12.398  10.485   7.850  0.0975 -0.2539  0.0862
25483W        W28703   9.520  17.740   4.489  0.0694  0.1083  0.2601
25484W        W28704  13.101   6.785   1.341  0.0807 -0.1064 -0.2696
25485W        W28705   7.439   0.536  11.187 -0.1721  0.0508  0.2360
25486W        W28706  11.118  14.456   0.464 -0.1032  0.2880  0.0084
25487W        W28707  13.846  11.494   3.173 -0.0532 -0.0621 -0.1347
25488W        W28708   9.458  10.941  17.122  0.0178  0.1049  0.1211
25489W        W28709   5.096  10.942  18.207 -0.3662  0.2623  0.2928
25490W        W28710   2.281   9.457   3.170  0.1058  0.2041  0.2159
25491W        W28711   7.671  11.503   2.492  0.1458  0.2998 -0.0371
25492W        W28712  14.473   6.523  13.465 -0.0704 -0.0037  0.0987
25493W        W28713  13.351  15.459   0.142  0.0502 -0.1342  0.1381
25494W        W28714  10.440  10.772   3.721  0.0145  0.1703  0.4018
25495W        W28715  11.735   8.558  17.411 -0.3182 -0.2678  0.0033
25496W        W28716   6.135   6.745   3.825 -0.2779  0.0321 -0.0805
25497W        W28717   7.001   3.970   2.030  0.1012 -0.0887  0.1121
25498W        W28718  15.064   0.131   1.144 -0.3439  0.1254 -0.1972
25499W        W28719   8.177   1.067  18.089 -0.0249 -0.0880  0.1136
25500W        W28720   9.828   4.159  13.449 -0.0272  0.2659 -0.0360
25501W        W28721   6.260   3.681   3.394  0.1725  0.0699 -0.2498
25502W        W28722   7.925   4.360   3.764 -0.3707 -0.1945 -0.1618
25503W        W28723  16.579  10.209  10.254  0.1827  0.1312 -0.1477
25504W        W28724   9.202   9.102   4.468 -0.0928 -0.1303  0.3589
25505W        W28725   9.687  11.888  15.857 -0.1258 -0.0324 -0.1906
25506W        W28726  13.172   7.215   0.030 -0.1521  0.0692 -0.3314
25507W        W28727  13.289   9.393  17.134  0.1630 -0.1195  0.1025
25508W        W28728   4.465   6.380   7.408  0.1930  0.2207  0.1312
25509W        W28729   6.904  10.159   5.547 -0.0693 -0.0240  0.0904
25510W        W28730  14.719  14.419  17.797 -0.1503 -0.1710  0.0530
25511W        W28731  13.540   7.254   7.528 -0.0103  0.1778 -0.0551
25512W        W28732  15.095   2.421  15.725  0.0695  0.1340 -0.0621
25513W        W28733  11.076   8.367   0.826 -0.2339 -0.3767  0.0326
25514W        W28734   6.224  11.241  13.623 -0.4195 -0.2374 -0.3051
25515W        W28735  11.110   8.294   3.396  0.2440 -0.2591  0.2762
25516W        W28736   8.695   4.178   4.213  0.1643 -0.0713  0.5144
25517W        W28737  15.016   8.591  17.261  0.0448 -0.2166 -0.2204
25518W        W28738   8.861   1.394  10.109 -0.2385  0.3633  0.1413
25519W        W28739   7.502  11.901  13.729 -0.0137 -0.0029 -0.1140
25520W        W28740   8.503   6.866  11.360  0.1242 -0.0167  0.3202
25521W        W28741   9.416   7.684   4.113  0.0531 -0.1843  0.0674
25522W        W28742  13.999  12.996  17.598  0.0772  0.1173  0.2949
25523W        W28743   2.475   3.942   2.492  0.1024  0.0137 -0.3608
25524W        W28744  13.560   7.379  17.953  0.0062  0.2481 -0.0804
25525W        W28745   0.691  10.213  14.157  0.4365  0.3388  0.0778
25526W        W28746   4.535   6.551   1.400 -0.0898 -0.0082  0.2536
25527W        W28747   5.727   0.858  12.888 -0.0111  0.0149 -0.0439
25528W        W28748   4.759   4.094  15.087  0.1785 -0.3007 -0.0995
25529W        W28749   2.119   1.001   4.097  0.1830  0.1211  0.1595
25530W        W28750  12.869  10.008   4.637  0.4389 -0.2807 -0.4189
25531W        W28751   6.972  13.192  13.833 -0.1139 -0.0006  0.0374
25532W        W28752  16.811   2.762  16.173  0.2228  0.0486  0.1716
25533W        W28753   8.251  10.843   5.478  0.0727  0.1997  0.0183
25534W        W28754   5.072  11.591  10.755  0.1133 -0.0010 -0.2373
25535W        W28755  12.726   8.500  14.634 -0.0044 -0.2534 -0.0585
25536W        W28756  10.240  12.416  11.022  0.1058  0.0860  0.0068
25537W        W28757   9.671   4.526   2.658  0.1751 -0.0944  0.0674
25538W        W28758  11.117  10.576   4.548  0.2010  0.2112 -0.1042
25539W        W28759  11.487  11.234   8.407  0.0289  0.0677 -0.1509
25540W        W28760  12.736   2.618   0.718 -0.1188 -0.4601  0.0758
25541W        W28761  11.362   8.141  15.723  0.5563 -0.2087 -0.1013
25542W        W28762   5.030  12.463  17.753 -0.1427 -0.0294  0.1783
25543W        W28763   6.031  14.020  17.289  0.0725 -0.1380 -0.0625
25544W        W28764   6.356   8.114  16.448  0.0578  0.2449  0.1756
25545W        W28765  10.450   5.408  16.129  0.2453  0.2725 -0.3726
25546W        W28766  15.346   9.959  11.172  0.0903  0.0054  0.0265
25547W        W28767  11.279  13.595   0.085 -0.0631 -0.2886 -0.0497
25548W        W28768  10.755   2.132  11.302  0.0443 -0.4546 -0.2610
25549W        W28769   7.488  11.944  16.301 -0.1342  0.0903  0.1232
25550W        W28770  16.052  12.817   0.140  0.1481 -0.2199  0.1453
25551W        W28771   9.265  10.059  10.897  0.0143  0.0232  0.0135
25552W        W28772   6.559  11.243  15.171  0.1650  0.0442  0.2389
25553W        W28773   7.249   2.037  12.162  0.0371 -0.1177  0.0673
25554W        W28774   7.980  10.644  16.031  0.0251  0.1258 -0.0407
25555W        W28775   7.499   2.243   6.359 -0.0511  0.2503  0.1287
25556W        W28776   5.136  14.524   3.588 -0.2941 -0.2023  0.1328
25557W        W28777   4.119  13.171  13.300 -0.2422  0.1366  0.3560
25558W        W28778   6.819   4.687   7.540  0.1179  0.2084 -0.2967
25559W        W28779  13.753   9.565  13.587  0.0077  0.1204  0.0373
25560W        W28780  10.865   4.935   5.086 -0.1195 -0.2360 -0.0483
25561W        W28781  11.060  13.747  10.110 -0.1715 -0.0914 -0.0854
25562W        W28782   4.960   4.863  13.888 -0.0960 -0.0304 -0.2650
25563W        W28783  10.571  11.661  10.379 -0.0168  0.1835  0.0657
25564W        W28784  13.531  12.314   8.047  0.1414  0.1516 -0.3381
25565W        W28785  11.135  12.472   7.174 -0.0373 -0.2833 -0.2479
25566W        W28786   8.927   7.320   3.443  0.0374  0.1205 -0.0437
25567W        W28787   6.743   7.980   1.887 -0.1221  0.1181  0.3005
25568W        W28788  10.592   8.187  12.511  0.0094  0.1613 -0.3749
25569W        W28789   8.815  12.197  11.720  0.3148  0.3761 -0.4559
25570W        W28790  10.086  10.914   1.726  0.0592 -0.3078  0.1917
25571W        W28791   8.200  16.292  18.199 -0.2919 -0.1962 -0.0447
25572W        W28792  13.512   7.801  10.593  0.3154  0.0098  0.2244
25573W        W28793  12.004   7.154   7.748 -0.0400  0.1253  0.1818
25574W        W28794   2.130   7.745  17.192  0.2194 -0.1261  0.0630
25575W        W28795   6.201   7.680  18.013 -0.1709  0.1060 -0.3397
25576W        W28796   6.557  10.896  10.040 -0.1128 -0.0051  0.1872
25577W        W28797   8.330   5.602  15.813  0.1479  0.0122 -0.1592
25578W        W28798   8.670   2.883  11.424 -0.0982 -0.0635 -0.0806
25579W        W28799   0.957  14.503   1.146 -0.0744 -0.3828 -0.1499
25580W        W28800   5.698  12.232   0.047 -0.1508  0.0447  0.2108
25581W        W28801   4.542   3.720  17.439 -0.1171  0.3157  0.0392
25582W        W28802  11.118  11.254  13.609 -0.1017  0.3747  0.1978
25583W        W28803  13.155   7.924   4.411 -0.0961  0.0737  0.2600
25584W        W28804   6.691   8.004  14.445 -0.1298  0.2061  0.1774
25585W        W28805   1.536   8.962   3.415  0.2321  0.1517  0.1087
25586W        W28806   8.718  11.053   0.447 -0.0134 -0.1021 -0.1553
25587W        W28807  13.747   9.847  16.640 -0.0245  0.2503 -0.2853
25588W        W28808  17.224  12.221  17.385  0.0392 -0.0429 -0.1930
25589W        W28809   1.193  13.843   0.045  0.0252  0.1579  0.0665
25590W        W28810   8.840   4.877   2.229  0.0069  0.4515 -0.4169
25591W        W28811   4.877  17.698  13.707 -0.3011  0.0289  0.0961
25592W        W28812  12.361   6.820   0.324 -0.3048  0.1177  0.1082
25593W        W28813   4.356   9.064  15.003 -0.1070 -0.2841 -0.0121
25594W        W28814   0.212   5.674   2.137 -0.2425  0.0955 -0.1469
25595W        W28815  10.578  10.519  11.256  0.3284  0.2630  0.0290
25596W        W28816   8.168   6.375  10.547  0.1416 -0.1588  0.1045
25597W        W28817   6.531  13.172   1.015  0.2924  0.1034 -0.1478
25598W        W28818   7.085   9.329   7.561  0.0014 -0.0438  0.0301
25599W        W28819   8.464  15.581  17.442 -0.1480 -0.2763 -0.0406
25600W        W28820   5.718   6.758  11.765 -0.3670  0.0361  0.0378
25601W        W28821   9.536  11.749   2.415  0.1426 -0.1153 -0.0156
25602W        W28822   2.593   6.985  17.367  0.0530 -0.1216 -0.0701
25603W        W28823   6.021   4.905  17.617  0.1555  0.3358 -0.2215
25604W        W28824  10.650   7.496  14.343 -0.2044 -0.3427 -0.3267
25605W        W28825  11.913   8.662  15.022  0.2434  0.1339 -0.0580
25606W        W28826  11.913   6.761  15.113 -0.1897 -0.0029  0.1282
25607W        W28827  16.975   4.395   3.590 -0.4298 -0.0211 -0.0987
25608W        W28828   3.257  15.185  10.954 -0.0961 -0.0357 -0.0195
25609W        W28829  10.461  17.220   2.974 -0.1753 -0.3485 -0.1498
25610W        W28830   7.549  16.048  15.292  0.4055  0.0649 -0.1571
25611W        W28831   5.084   5.044   2.465  0.0296 -0.0098 -0.2707
25612W        W28832   2.599   3.953  14.831  0.3052  0.1736 -0.1716
25613W        W28833  11.052   8.888   4.565  0.0173  0.0121  0.1814
25614W        W28834   7.344   4.773  18.053  0.1814 -0.2524 -0.0704
25615W        W28835  12.318   7.162  17.562  0.0712 -0.3003  0.0790
25616W        W28836   6.487  11.155  13.096  0.3223 -0.0714 -0.0678
25617W        W28837   5.426   4.497   0.688  0.0075  0.1896  0.2902
25618W        W28838   2.864  10.475  11.902  0.0795  0.0705 -0.1254
25619W        W28839   9.056   2.591   0.947  0.3853 -0.2035  0.0489
25620W        W28840   5.015  12.685   0.738 -0.1305 -0.0322 -0.0226
25621W        W28841  15.261  10.034   0.687 -0.1766  0.0327 -0.1774
25622W        W28842  17.222  10.437  17.220  0.2738  0.3005  0.1647
25623W        W28843   5.102   7.793   2.174  0.2068 -0.1124  0.0065
25624W        W28844   6.977  11.512  14.370 -0.0646 -0.1123  0.4560
25625W        W28845   6.332   5.377   1.370  0.0886  0.2826 -0.0711
25626W        W28846  14.326   6.083   4.328  0.1595  0.3656  0.1731
25627W        W28847   5.577   3.562   0.964 -0.0020 -0.0225 -0.0545
25628W        W28848   7.775   8.336  11.862 -0.0637 -0.0544  0.2616
25629W        W28849   8.510  11.445  12.500  0.2378 -0.0748  0.2297
25630W        W28850  13.550  10.677   1.331  0.1169  0.1372  0.3384
25631W        W28851  15.474  12.560  17.320 -0.3666  0.2157 -0.1822
25632W        W28852   2.040   5.912   1.334  0.1083 -0.1292  0.0131
25633W        W28853   9.238   6.650   1.487 -0.0913 -0.0440 -0.1984
25634W        W28854  10.632   9.121  14.072 -0.2305 -0.4991 -0.1080
25635W        W28855   6.104   3.455   0.997  0.2018 -0.4461  0.0508
25636W        W28856   3.129  12.845   5.681 -0.1991 -0.1576 -0.1821
25637W        W28857   8.436   9.229   5.399  0.0521  0.1645 -0.1052
25638W        W28858  13.560  10.155   0.055 -0.0252  0.2605  0.2241
25639W        W28859   5.959  18.234   7.446  0.1372  0.0988  0.3102
25640W        W28860  10.985  10.978   0.518 -0.1774 -0.2315  0.0325
25641W        W28861   5.106  14.986  15.026  0.0964 -0.1330 -0.0292
25642W        W28862  12.437  15.978  13.958 -0.3187  0.1813  0.1194
25643W        W28863   9.432  10.820   7.929 -0.1320  0.1065  0.1681
25644W        W28864  10.567   1.416   4.440  0.1740  0.2425 -0.3351
25645W        W28865   6.443  11.376   5.613 -0.0842  0.0733  0.0616
25646W        W28866   6.810   9.514   1.533  0.0673  0.0543 -0.0422
25647W        W28867  14.990  10.027   2.037  0.2706  0.0416  0.0846
25648W        W28868  13.956  14.594  14.666 -0.2967 -0.0820  0.0628
25649W        W28869   3.883   6.525   7.261  0.2271 -0.3828 -0.1757
25650W        W28870  11.259  15.218   2.063  0.1347 -0.0186  0.1348
25651W        W28871   9.920  12.952  13.606 -0.2162  0.1873  0.2880
25652W        W28872  10.780  11.398   0.336 -0.3291  0.1006  0.0255
25653W        W28873   8.053  10.530  14.232 -0.2507  0.3519  0.2667
25654W        W28874   6.999   9.682   6.376  0.0715 -0.0253 -0.0837
25655W        W28875  10.014   9.417   3.948 -0.1174  0.0681 -0.1053
25656W        W28876   7.112   8.947  14.033  0.1868  0.5006 -0.1472
25657W        W28877   6.366  11.025   2.517  0.2194  0.0813  0.1511
25658W        W28878   2.092  13.458  16.100  0.1401  0.1760  0.2872
25659W        W28879   6.307  17.626  17.558  0.0740 -0.1072 -0.0649
25660W        W28880  10.995  13.341   8.905 -0.3712 -0.1094  0.2749
25661W        W28881   2.588  16.170   9.879 -0.2895  0.1719 -0.0290
25662W        W28882   6.906   8.135   6.672  0.2357 -0.0447 -0.0243
25663W        W28883   8.762   9.285   6.793 -0.0719 -0.0518 -0.0733
25664W        W28884  10.226  14.054   1.477  0.0678 -0.1724  0.1727
25665W        W28885   1.977  10.634   0.548 -0.2484 -0.2476  0.1527
25666W        W28886   7.040  13.394  18.002  0.0573 -0.0650 -0.0825
25667W        W28887   9.539  11.578   0.781 -0.2891 -0.0254 -0.0889
25668W        W28888   5.656  11.469   7.426  0.0421 -0.0660 -0.2469
25669W        W28889  14.156  14.087   1.904  0.0517  0.0593 -0.1789
25670W        W28890   9.455  13.255   0.295  0.0907  0.0157 -0.0984
25671W        W28891  10.644  15.562   1.381  0.3682  0.2115 -0.0170
25672W        W28892  13.531  12.072   4.433 -0.1916 -0.0304 -0.2272
25673W        W28893   7.576   0.104   3.447 -0.0628 -0.0012 -0.0529
25674W        W28894  16.221   7.648   2.690 -0.0316  0.0483 -0.1072
25675W        W28895  13.662   4.333   0.018  0.1299 -0.4198  0.2383
25676W        W28896   8.119   1.786  13.538  0.3063  0.2619  0.0563
25677W        W28897  10.857   3.281   2.523  0.0171 -0.0381  0.0860
25678W        W28898   6.649  15.045  14.047  0.0769 -0.0946 -0.2714
25679W        W28899   9.316  12.834  15.186 -0.2079  0.0576  0.0086
25680W        W28900   4.347  17.929   1.457 -0.2441 -0.0984  0.1404
25681W        W28901  10.241  11.558   3.732  0.2097 -0.0211  0.1344
25682W        W28902   6.841  14.707   1.651  0.2894  0.2587  0.1081
25683W        W28903  14.716  16.686   0.313  0.0860 -0.0054 -0.0393
25684W        W28904   9.012   5.717   2.437  0.0746  0.3475  0.0413
25685W        W28905  10.329  10.502  18.220 -0.1414 -0.0802 -0.4584
25686W        W28906  11.912  12.941   4.244 -0.0316  0.0725  0.1095
25687W        W28907  11.225  17.276  16.189 -0.3028 -0.1145  0.0128
25688W        W28908   9.977  15.956   4.826 -0.1132  0.1181 -0.2697
25689W        W28909   7.242   9.596  11.465  0.0672  0.0599  0.1043
25690W        W28910   5.555  12.398   0.506  0.2922 -0.0295 -0.1069
25691W        W28911  13.467   5.997   3.138  0.2062 -0.1438 -0.0900
25692W        W28912   8.472  12.982   0.029 -0.1117 -0.1572 -0.0104
25693W        W28913   9.214  10.527   0.688  0.2605  0.0170  0.2441
25694W        W28914   9.703  13.952   4.940  0.1571 -0.0711  0.0376
25695W        W28915   8.805   9.501  10.477  0.0642  0.1611  0.1579
25696W        W28916   6.033   9.807   3.450  0.1921  0.0954 -0.1230
25697W        W28917   8.874   6.174   4.968 -0.0411  0.0266 -0.1696
25698W        W28918   7.760  10.276   5.347  0.3141  0.1057  0.1009
25699W        W28919   5.536  17.158  18.169 -0.2258  0.4521  0.1316
25700W        W28920   6.077  13.460  12.012 -0.3335 -0.1449 -0.1377
25701W        W28921   5.070  16.860  15.888 -0.1472  0.1613 -0.0567
25702W        W28922  14.001  15.444   1.549  0.2152 -0.0796  0.0680
25703W        W28923  13.206  11.035   7.672 -0.0873 -0.1935 -0.3433
25704W        W28924   1.351  17.535  18.122  0.1171 -0.0410  0.0089
25705W        W28925   7.972  15.776   0.209 -0.2494  0.2599  0.2084
25706W        W28926  13.963  10.222   6.538  0.3194 -0.1193  0.0395
25707W        W28927  14.727  12.104  18.050 -0.1325 -0.0741  0.1324
25708W        W28928   8.107  14.324  16.850 -0.3891 -0.0835  0.1131
25709W        W28929  10.835  17.052  15.958 -0.0669  0.0894 -0.0395
25710W        W28930   4.165  13.613  14.537  0.1627 -0.1577  0.0988
25711W        W28931  16.256   2.577   1.813 -0.0890  0.1274  0.1329
25712W        W28932   6.995  15.130   1.015  0.1748 -0.1409  0.0188
25713W        W28933  11.129   4.735  17.726  0.1936 -0.2685 -0.2358
25714W        W28934   0.918  10.815   3.514  0.2839 -0.0526 -0.2204
25715W        W28935   4.713  11.744   2.864  0.3299 -0.0832 -0.2842
25716W        W28936  10.588   3.467   3.755 -0.0553 -0.1144  0.2630
25717W        W28937   1.880  16.262   3.728 -0.1947 -0.2058  0.0489
25718W        W28938  15.430  13.451   8.332 -0.1936  0.0774  0.1681
25719W        W28939  10.453  14.733  15.096  0.1738  0.0289  0.0172
25720W        W28940   5.548   1.558   3.720 -0.0413  0.3013  0.2177
25721W        W28941  10.436   8.061  13.471 -0.2808 -0.0625  0.0297
25722W        W28942   9.553  12.573  13.506  0.1394  0.1139 -0.0490
25723W        W28943   6.532   8.888   7.413  0.1794  0.1197  0.1000
25724W        W28944   5.717  14.626   4.320 -0.4139 -0.2073  0.4235
25725W        W28945   9.206   0.962   2.513 -0.0609  0.0730 -0.3029
25726W        W28946   3.335   7.278  17.740  0.1317  0.0392 -0.0692
25727W        W28947  10.920   7.235  15.662 -0.0505 -0.0168 -0.2560
25728W        W28948  12.106  17.427   2.425  0.1863 -0.0732  0.1295
25729W        W28949  11.299  15.210  16.157  0.0530 -0.0018  0.0837
25730W        W28950  11.571   8.956   7.542  0.3264  0.0592 -0.0959
25731W        W28951   6.615  11.397  10.465  0.0468 -0.1206  0.3184
25732W        W28952   8.689  12.745  14.306  0.1656  0.0351 -0.0534
25733W        W28953   6.062  12.936  18.150 -0.2043  0.0922  0.1921
25734W        W28954   4.841  13.645   2.904 -0.2117  0.0263  0.0166
25735W        W28955   4.634   8.924   2.957 -0.3110 -0.1310  0.0219
25736W        W28956   9.422  16.306   4.894  0.1277 -0.2593  0.0565
25737W        W28957   6.892  13.211   6.933 -0.2289 -0.2689  0.2335
25738W        W28958   9.784   8.249  14.792 -0.0906  0.1914 -0.3054
25739W        W28959   7.551   7.508   3.011 -0.2491  0.0779 -0.0105
25740W        W28960  11.115   1.328  14.682 -0.0515  0.0028 -0.3423
25741W        W28961  12.133   7.834   6.353 -0.0196  0.0888  0.2030
25742W        W28962   5.173  13.861  17.567 -0.0160  0.2034  0.2065
25743W        W28963   6.345   7.613   1.530 -0.0948 -0.0563  0.0026
25744W        W28964   8.215   1.596   2.148  0.1481  0.3324 -0.1425
25745W        W28965   9.573  13.380  15.496  0.0456  0.2937 -0.1492
25746W        W28966   6.375   2.422   1.171 -0.2876 -0.0344 -0.1657
25747W        W28967  10.912  12.617   2.154 -0.2026  0.0129  0.3605
25748W        W28968  10.036  15.473  17.223 -0.2067  0.1689  0.1313
25749W        W28969   8.765  10.252  16.997  0.1872  0.3411  0.1617
25750W        W28970  11.078  12.859   3.278 -0.1471 -0.0890 -0.0929
25751W        W28971   7.849  13.443   6.015 -0.0591  0.2752  0.0256
25752W        W28972  11.432   6.977   1.471  0.1004 -0.2329 -0.3349
25753W        W28973   8.816  16.211  10.231  0.1501 -0.1712 -0.3635
25754W        W28974  12.919   8.929   1.380 -0.0966  0.3754  0.0965
25755W        W28975  15.152  18.126   1.958 -0.1145  0.1098 -0.2790
25756W        W28976   9.606  10.993   3.419 -0.2377  0.1830  0.0730
25757W        W28977   8.379  11.776   5.295 -0.0774  0.0667 -0.0046
25758W        W28978  10.744   8.104   4.281  0.2971 -0.0389  0.4448
25759W        W28979   9.133   6.123  14.786 -0.3542  0.0286 -0.1148
25760W        W28980  15.560  10.578   4.686 -0.3172 -0.1979 -0.0591
25761W        W28981   9.453  10.092   4.390  0.0753  0.2263  0.0136
25762W        W28982   8.502  13.360   5.493  0.1926  0.0605  0.2083
25763W        W28983  11.976  16.470   1.438 -0.1751  0.1926  0.0012
25764W        W28984  17.112   9.964   5.936 -0.2374  0.3746  0.0467
25765W        W28985   7.757   9.956  18.161  0.2954 -0.4539  0.1886
25766W        W28986  17.413   8.720   8.479 -0.2797  0.1071  0.2020
25767W        W28987   6.014  14.960   3.503  0.1023 -0.2044  0.1155
25768W        W28988  17.047   2.437   5.036  0.1347  0.0135  0.0688
25769W        W28989   8.490   1.513   2.538  0.0312  0.0706 -0.2587
25770W        W28990  11.370  13.174   1.224  0.1063 -0.3563  0.2766
25771W        W28991  15.955   7.020   4.696  0.2640  0.1344  0.1455
25772W        W28992   9.527  16.914  14.522  0.1427  0.0698 -0.1468
25773W        W28993   9.957   4.926   1.169 -0.1478 -0.1460 -0.2676
25774W        W28994   8.777  12.653  17.504 -0.0516 -0.1183 -0.0399
25775W        W28995   7.672   9.757   5.350 -0.0250 -0.1285  0.0185
25776W        W28996  12.664   8.105  11.045 -0.0840 -0.2156  0.1361
25777W        W28997   7.244  12.965  14.251 -0.2152 -0.0375 -0.4070
25778W        W28998  12.687  13.728   2.850 -0.1747 -0.0237 -0.0077
25779W        W28999  10.052  10.546   1.352 -0.2310 -0.1421  0.0264
25780W        W29000   7.742   9.183  18.269  0.0278 -0.0650  0.1213
25781W        W29001   6.005  13.990   3.198 -0.2423 -0.0645  0.1660
25782W        W29002   6.579  14.987   3.781  0.2313 -0.0515  0.2417
25783W        W29003   7.516   0.490  15.016  0.1412  0.2927  0.0387
25784W        W29004  16.413  16.282   0.780 -0.1239 -0.1817 -0.1575
25785W        W29005  13.362  10.751  16.604 -0.0230  0.0843  0.4725
25786W        W29006   1.767  14.547   3.946  0.0935  0.0174  0.2517
25787W        W29007  11.136  17.839   0.375 -0.1965 -0.1492  0.2345
25788W        W29008   8.945   8.462   3.182  0.0933  0.0221 -0.1213
25789W        W29009   6.590  15.168  18.034 -0.2268 -0.3088  0.1163
25790W        W29010  12.297  11.978   8.812 -0.0326 -0.2022 -0.0461
25791W        W29011  15.420  13.073   0.908 -0.0009 -0.2588 -0.0611
25792W        W29012  12.227  17.997  18.177 -0.0105 -0.1671  0.1375
25793W        W29013   9.744  12.723   6.028 -0.1772  0.3435 -0.2423
25794W        W29014  13.822  10.154  16.176 -0.0483 -0.2878 -0.1634
25795W        W29015  13.215   9.134   2.237 -0.0136 -0.0546 -0.0651
25796W        W29016  12.919  10.676  15.396  0.0593  0.0164  0.2557
25797W        W29017  11.308  16.742   4.992  0.1253  0.4811  0.2362
25798W        W29018  15.056  10.672   3.868 -0.1751 -0.1216  0.0222
25799W        W29019   7.116  14.409  12.327 -0.1178  0.1020 -0.0903
25800W        W29020  11.811   5.028   5.053  0.0864  0.1362 -0.1497
25801W        W29021  16.235  11.044   2.631  0.0671  0.0626  0.3279
25802W        W29022   5.699  10.091   6.877  0.2170 -0.3645  0.0083
25803W        W29023   3.985  14.286  11.619 -0.3674  0.0845  0.1075
25804W        W29024  11.318   1.094  17.607  0.0840  0.1561  0.2896
25805W        W29025   8.635  15.164   5.691  0.0293 -0.1824  0.1178
25806W        W29026   5.602   0.675   4.718 -0.1571 -0.1208  0.0886
25807W        W29027   7.576  11.621   6.243  0.0968  0.1010 -0.0335
25808W        W29028   9.794   0.691   3.329 -0.0853 -0.3146 -0.3531
25809W        W29029  10.459   9.000   0.037 -0.0743  0.0374  0.2657
25810W        W29030   6.938  15.445  17.634  0.0171 -0.0269 -0.1726
25811W        W29031  11.675  15.458  17.591  0.0031  0.1457  0.0934
25812W        W29032   6.173  16.230   9.882 -0.1196 -0.0739 -0.1424
25813W        W29033   9.100  13.232   3.259  0.1115  0.5876 -0.1310
25814W        W29034  17.640  14.244  15.513 -0.1035  0.0857  0.1648
25815W        W29035  12.134  17.514   3.572 -0.2644 -0.0075  0.0458
25816W        W29036   5.202  10.169   1.048 -0.0046  0.3666 -0.1856
25817W        W29037  11.203  13.291  16.014 -0.1534  0.0913 -0.2851
25818W        W29038   7.633   8.333   5.168 -0.1108 -0.3264  0.1968
25819W        W29039  10.295   0.769   1.367  0.0350 -0.0622  0.0098
25820W        W29040   8.395   8.933  14.525  0.1191  0.0331  0.2444
25821W        W29041   4.702  10.354   1.223 -0.0654 -0.1922  0.1409
25822W        W29042   2.723   8.809  16.434 -0.1807  0.3267  0.1033
25823W        W29043   6.943   8.794   5.786  0.0384  0.2560  0.0188
25824W        W29044  11.562  12.692  13.303 -0.0679 -0.0985  0.1761
25825W        W29045  13.135  15.353  16.893 -0.2158 -0.1442  0.0534
25826W        W29046  17.852  14.311   6.520 -0.0127  0.1194 -0.0764
25827W        W29047   8.156  11.380   2.620  0.1234 -0.3104 -0.0421
25828W        W29048   9.328  13.180   9.253  0.2017  0.1696  0.1494
25829W        W29049   8.857  15.213   2.595  0.1051  0.0086 -0.1156
25830W        W29050   9.363  12.048  17.146  0.2673  0.2451  0.0037
25831W        W29051  10.344  12.278   1.337 -0.3842  0.0239 -0.0006
25832W        W29052  10.013  11.865  16.181  0.4480 -0.1267  0.2858
25833W        W29053   8.781   8.101  16.367 -0.0932  0.2996 -0.1707
25834W        W29054   8.012  12.760  15.169  0.3235 -0.0007 -0.0707
25835W        W29055   6.855   9.009  15.593 -0.2652 -0.2075  0.1642
25836W        W29056   2.460   9.518   8.902  0.0044  0.1012 -0.0584
25837W        W29057  10.423  15.917   2.991  0.0942  0.1331  0.0464
25838W        W29058  10.356  14.240   9.281 -0.0981 -0.0444 -0.0221
25839W        W29059   5.694  11.894  12.507 -0.0390  0.1858 -0.2234
25840W        W29060   4.465  13.290   6.278  0.2082 -0.1217  0.0240
25841W        W29061  13.124   5.042   3.802  0.0974  0.0571  0.1316
25842W        W29062   4.510  15.170   4.449 -0.0151 -0.3151  0.0725
25843W        W29063   8.803  15.601   5.909 -0.1599 -0.0395 -0.1637
25844W        W29064   5.155   6.907   1.776  0.2312  0.0698 -0.2039
25845W        W29065  12.715   9.414  17.738 -0.0713  0.1016 -0.1363
25846W        W29066  17.886  12.767   1.684 -0.0302 -0.1769  0.0765
25847W        W29067   9.012  15.725   0.000  0.2637  0.0985  0.3477
25848W        W29068  13.595   9.562   4.501 -0.1663 -0.0876 -0.1257
25849W        W29069   5.718  15.587   2.497  0.1037 -0.1676 -0.1504
25850W        W29070  11.864   6.337   0.897  0.0057 -0.2045 -0.1671
25851W        W29071   8.363  14.433   5.066 -0.4143 -0.2122 -0.1142
25852W        W29072  16.257  10.459  15.217 -0.1969 -0.3429 -0.1532
25853W        W29073   4.262  16.640   8.987  0.2710  0.1179  0.2118
25854W        W29074   5.167  12.449  18.219  0.0486 -0.0423 -0.1756
25855W        W29075  10.198  12.284   0.357 -0.1223  0.1868  0.1103
25856W        W29076   8.054  15.084   0.987 -0.1381 -0.0182  0.4053
25857W        W29077  15.089   0.867   2.140 -0.2686  0.1935 -0.1745
25858W        W29078   7.780   7.147  18.035  0.2695 -0.0993  0.3760
25859W        W29079  10.118  14.120   6.619 -0.0100  0.2768 -0.1113
25860W        W29080   7.081  12.502  16.041 -0.1394 -0.0576  0.0224
25861W        W29081  14.027  17.447  11.679 -0.0215 -0.0532 -0.2220
25862W        W29082   7.780  13.533   4.137 -0.0059  0.1468  0.1199
25863W        W29083  12.561  14.440   6.081  0.1811  0.0716 -0.0014
25864W        W29084   5.942  16.795  17.180  0.3180 -0.1059  0.0065
25865W        W29085  12.710  11.894   6.973 -0.1262  0.0330  0.1520
25866W        W29086  10.292  14.607  17.292 -0.4084 -0.2236  0.0882
25867W        W29087  12.348   9.606   2.549 -0.0104 -0.1332  0.1605
25868W        W29088  11.436  17.071   0.764  0.1279 -0.1783 -0.1866
25869W        W29089  16.752   6.563   6.805  0.1817  0.0427 -0.0266
25870W        W29090   5.653   6.823  10.836 -0.1703  0.2066  0.0798
25871W        W29091   4.542  13.730   1.787  0.0227 -0.0979  0.1881
25872W        W29092  10.534  12.354  15.718 -0.2269  0.2179 -0.0738
25873W        W29093  11.446  10.997  11.853  0.0026 -0.3478  0.2297
25874W        W29094   7.940  15.959  16.763 -0.1403  0.2205  0.1585
25875W        W29095   6.665  13.964   0.414 -0.0993 -0.0045 -0.0460
25876W        W29096  17.890  10.563   6.129  0.1554  0.2793  0.1651
25877W        W29097  11.865  10.113  11.133  0.0055 -0.0061 -0.1099
25878W        W29098  10.655  10.860   0.910 -0.0545  0.3432  0.0930
25879W        W29099  13.222   9.781  17.436 -0.1086  0.0076  0.2294
25880W        W29100   7.044   8.418  16.771  0.1702 -0.5656  0.0597
25881W        W29101   8.026  10.449   0.754 -0.0376  0.1592 -0.0885
25882W        W29102  13.541  14.065  15.307  0.3879 -0.1748 -0.1173
25883W        W29103  11.356   7.294   9.175 -0.2432 -0.3792  0.0395
25884W        W29104  13.771  13.901  16.494  0.0496  0.0154 -0.1853
25885W        W29105  11.410  16.974   3.963  0.0122 -0.0840 -0.0532
25886W        W29106   8.733   9.029   2.450  0.2526  0.1774 -0.2240
25887W        W29107   7.096   7.138   5.107 -0.1446 -0.1195  0.2748
25888W        W29108   3.520  14.290   3.868 -0.0506 -0.2716 -0.3041
25889W        W29109  12.825  11.546   3.452 -0.0889  0.0029 -0.2201
25890W        W29110  12.248  17.798  17.741  0.0563  0.0321 -0.1041
25891W        W29111  17.626  12.013  17.579  0.0360  0.0443 -0.0194
25892W        W29112   4.819  12.972   6.924  0.0473  0.2988 -0.3627
25893W        W29113   9.940   8.674   5.906 -0.1047 -0.0017  0.1759
25894W        W29114  11.847  10.785  11.564  0.3237  0.0618 -0.1258
25895W        W29115   5.657   1.372  16.877 -0.0042 -0.0025  0.0983
25896W        W29116  10.436  10.081  16.827 -0.1340  0.1558 -0.3767
25897W        W29117   9.224   0.393  17.353  0.0118 -0.1225 -0.0900
25898W        W29118   2.524  18.033   5.917 -0.3139 -0.0592 -0.2433
25899W        W29119  12.390  13.742  17.028 -0.1625  0.1171  0.1150
25900W        W29120   4.318  14.256  13.806  0.3179 -0.0367 -0.1408
25901W        W29121  10.485  15.265   0.974  0.1136 -0.4061  0.1707
25902W        W29122   7.433   6.768   3.660  0.0573 -0.2089 -0.0174
25903W        W29123   8.522  13.691  14.401 -0.1559  0.0286 -0.0836
25904W        W29124   7.079  13.665   9.339  0.0250 -0.0464  0.1179
25905W        W29125  11.227   7.159   4.704 -0.0400  0.2376 -0.2072
25906W        W29126   7.357  11.716  18.105 -0.4775 -0.1540  0.0521
25907W        W29127   5.091  16.402   0.638  0.0385 -0.0466 -0.0889
25908W        W29128   7.678   0.816  15.784 -0.0292 -0.1010  0.1962
25909W        W29129  12.147  11.611  18.225 -0.1238  0.0507 -0.2089
25910W        W29130  11.981  11.799   5.972  0.0935 -0.0215 -0.0504
25911W        W29131  11.681  12.351  16.262 -0.0559 -0.2065  0.1223
25912W        W29132   7.487   6.916   0.345  0.0974 -0.1740 -0.0619
25913W        W29133   8.868   0.619   0.783 -0.0664  0.1386  0.0440
25914W        W29134   8.608   8.494   1.504  0.1175 -0.2999  0.2070
25915W        W29135   8.231  15.515   3.487  0.2472 -0.2288  0.0267
25916W        W29136  12.832  13.073   3.863 -0.2497  0.0210 -0.1969
25917W        W29137  10.511   2.160   8.889 -0.0765  0.3083 -0.0532
25918W        W29138   9.694  11.457   4.565  0.1144  0.2821  0.1281
25919W        W29139   8.664  12.336   1.490 -0.0401  0.1026  0.1925
25920W        W29140  10.628   5.158  16.807 -0.2835  0.2859 -0.0082
25921W        W29141   8.254   7.487   4.035 -0.1536  0.0670 -0.0381
25922W        W29142   9.915   9.168  18.238  0.1508 -0.5015  0.1428
25923W        W29143   8.829   6.692  11.863 -0.2134  0.3302 -0.1971
25924W        W29144   7.759   3.071  17.608  0.0232 -0.2823 -0.1821
25925W        W29145   5.690  10.003   0.942  0.3210 -0.1697  0.0493
25926W        W29146   8.667   5.299  17.669  0.0927 -0.1652 -0.0696
25927W        W29147  13.648   9.635   3.438  0.2940 -0.3626  0.1156
25928W        W29148   6.771   9.958   5.092  0.2969 -0.3803 -0.1117
25929W        W29149   8.683  10.118  18.107 -0.2614 -0.3828 -0.1496
25930W        W29150   7.775   6.828   8.890 -0.1593 -0.2873 -0.0416
25931W        W29151  10.582   0.636   3.076  0.5313  0.3874 -0.1562
25932W        W29152   6.918  16.186  15.811 -0.2302  0.0724  0.0067
25933W        W29153  12.098  12.854   4.834  0.0685 -0.1616  0.0657
25934W        W29154  11.285   7.859   3.656  0.0729  0.1398  0.0831
25935W        W29155   5.309  10.643   4.516 -0.2051  0.0015  0.0481
25936W        W29156  11.135   0.056  10.102  0.1095  0.4142 -0.0474
25937W        W29157   4.982  15.102  13.447  0.0319  0.0482  0.1180
25938W        W29158   6.817  13.221  14.876  0.2230  0.0102 -0.0902
25939W        W29159   9.459  13.825   1.116 -0.3312 -0.2721 -0.2813
25940W        W29160   5.717  18.027  17.130  0.1421  0.0110 -0.0562
25941W        W29161   5.360   9.315  14.378  0.1130  0.2981 -0.4557
25942W        W29162  10.591  13.381   3.238 -0.1978  0.0779  0.0414
25943W        W29163   2.127  10.962   2.100  0.1044  0.1869 -0.0393
25944W        W29164   1.841  14.508   1.227 -0.3591  0.2350 -0.0488
25945W        W29165   9.910  13.695  17.264 -0.2157 -0.0169 -0.1841
25946W        W29166  15.078   9.491   8.696  0.0685 -0.2629 -0.3611
25947W        W29167  10.217  10.063   1.393  0.2026 -0.1318 -0.1684
25948W        W29168   6.694  11.961   0.104 -0.4766  0.3108 -0.1492
25949W        W29169  11.312   9.688   6.313 -0.2099 -0.0106  0.3692
25950W        W29170  12.266  12.401   1.549  0.2374 -0.1962  0.0943
25951W        W29171   9.063   9.219  16.175 -0.0245  0.1046  0.0782
25952W        W29172   4.826   8.264  15.024  0.1742 -0.0174  0.1265
25953W        W29173  11.630   3.351   5.747 -0.0669 -0.1747 -0.0328
25954W        W29174  11.380   7.747   8.656  0.2566  0.0023 -0.2051
25955W        W29175   2.005  13.683   2.036  0.0018  0.0513  0.1068
25956W        W29176  13.677   6.667   1.350  0.0448 -0.0506  0.2612
25957W        W29177  13.902   7.323   2.175 -0.0253  0.3620 -0.1029
25958W        W29178   7.773   5.215  10.713  0.3977 -0.1785 -0.2052
25959W        W29179   1.997  12.943   2.258 -0.1118 -0.0928 -0.0434
25960W        W29180   3.070  15.336   6.760 -0.0226 -0.1234 -0.4403
25961W        W29181   5.215  15.290   4.856  0.0083 -0.1310  0.4487
25962W        W29182   5.011   8.738  17.486  0.1120  0.4134  0.0721
25963W        W29183  12.829  11.019   3.690  0.0447 -0.3014  0.0412
25964W        W29184   8.657   7.937  16.853 -0.3866  0.0407  0.0710
25965W        W29185  12.897   8.501  14.113  0.2139  0.0994 -0.0585
25966W        W29186   7.504  11.868   3.144 -0.0471  0.0385  0.2075
25967W        W29187   9.484  15.379   7.297  0.3181 -0.1981  0.1275
25968W        W29188   7.665  10.253   1.546  0.0344  0.2028  0.0441
25969W        W29189   6.927  18.115  17.041 -0.1139 -0.1948  0.1453
25970W        W29190  12.951  16.695  16.449 -0.0197 -0.0690  0.0046
25971W        W29191   5.057  16.794  15.356 -0.1923  0.1733  0.1058
25972W        W29192  10.044   8.183  11.318  0.0054  0.0230  0.0751
25973W        W29193  17.114   5.695   5.204  0.1692 -0.0223 -0.0223
25974W        W29194   8.094  10.309   1.277 -0.0792  0.1601  0.3369
25975W        W29195  12.239   8.229   2.379 -0.0471  0.0638 -0.1730
25976W        W29196   6.397   5.001   4.049  0.1574  0.2446 -0.0518
25977W        W29197  12.573  17.383   2.254 -0.1612 -0.0209  0.1822
25978W        W29198   9.551   9.793  13.279 -0.0465 -0.1577  0.1558
25979W        W29199  10.488   3.833  16.977  0.1136  0.0536  0.0790
25980W        W29200   9.896  12.911  17.883  0.0846 -0.0442  0.0877
25981W        W29201   2.784  12.763   5.383  0.1875 -0.1749  0.0421
25982W        W29202   8.772   7.170   8.746  0.2033 -0.0728 -0.2208
25983W        W29203   4.648  13.601  17.984 -0.3768  0.3966  0.4807
25984W        W29204   8.902  11.204   3.149  0.0752  0.0132  0.2648
25985W        W29205   5.506  12.033   6.254 -0.0837 -0.1588 -0.4904
25986W        W29206   8.533   6.032   1.474  0.0940 -0.1554 -0.1410
25987W        W29207  10.910  13.774  18.037  0.1876 -0.1391  0.0232
25988W        W29208   9.167  11.474  15.926 -0.2564  0.0046 -0.0549
25989W        W29209   6.317  13.090   0.567 -0.0686 -0.2122  0.0305
25990W        W29210  11.896   5.460   4.037 -0.3713 -0.1161 -0.0404
25991W        W29211   6.391   8.174  13.590  0.1298  0.1770  0.0786
25992W        W29212  13.583   5.370   0.036  0.2463  0.3750  0.0182
25993W        W29213  10.777   4.545   1.324  0.3426 -0.1855  0.0207
25994W        W29214   9.161   9.791   5.599  0.2356  0.0507 -0.2793
25995W        W29215   5.838  13.929   1.002  0.3618  0.1783  0.2247
25996W        W29216   6.632  12.808   2.291 -0.0500  0.0491 -0.2532
25997W        W29217  11.091  14.858   3.663  0.1564 -0.2085  0.0305
25998W        W29218  12.848  13.636   8.173 -0.2611 -0.1470  0.1333
25999W        W29219   9.828  12.708  14.976  0.0091 -0.0268  0.1454
26000W        W29220   6.859  13.600   7.816 -0.0584 -0.2536  0.3795
26001W        W29221   2.254  14.659   6.524  0.0180  0.0489 -0.2167
26002W        W29222  10.303   8.777  16.449 -0.1272 -0.3576 -0.0137
26003W        W29223   9.639   9.986   3.515  0.2470 -0.2656 -0.0110
26004W        W29224  17.409  13.190   3.007  0.1419  0.0360 -0.1950
26005W        W29225   7.979   1.390   7.854  0.3237  0.1385 -0.0362
26006W        W29226  13.064  11.348   1.963  0.0147 -0.1190 -0.0523
26007W        W29227  13.014   6.902  10.452  0.0185  0.0734  0.2713
26008W        W29228  11.774   1.587  15.343  0.1506 -0.3883 -0.0371
26009W        W29229  13.478   4.919   7.059 -0.3489 -0.0778  0.1835
26010W        W29230  16.510  14.581  17.851 -0.4118 -0.0269 -0.0235
26011W        W29231   3.667   7.034   5.027  0.3085 -0.1242 -0.1449
26012W        W29232   9.997  12.333   7.471 -0.1745 -0.3292 -0.0432
26013W        W29233   4.978  13.807   7.392 -0.0853  0.0959  0.2265
26014W        W29234   9.672  11.530   1.282  0.1236  0.0468 -0.0072
26015W        W29235  13.181  14.391   2.341  0.2196 -0.1432  0.1050
26016W        W29236   4.513   1.526   3.633 -0.1181  0.1806  0.1753
26017W        W29237  12.886   5.097   9.198  0.1594  0.2982  0.0700
26018W        W29238   5.405   7.565  15.001 -0.1104 -0.2986 -0.2454
26019W        W29239   3.880   0.879   0.726  0.1654  0.2654 -0.2816
26020W        W29240  14.783  16.945   6.385  0.0198  0.2252 -0.3824
26021W        W29241  14.808  16.866   9.173  0.1222 -0.2844 -0.0098
26022W        W29242   9.003  16.861  11.006  0.0407 -0.0872 -0.1413
26023W        W29243   4.716  11.572   2.343 -0.0851 -0.2689 -0.3384
26024W        W29244   6.236  13.650   4.851  0.0429 -0.1063 -0.0275
26025W        W29245  17.060  16.472   9.486  0.0741  0.5220 -0.0302
26026W        W29246   6.107  12.768   4.507  0.1785 -0.0276 -0.0863
26027W        W29247  11.231  11.658   2.708 -0.4030 -0.0383  0.0377
26028W        W29248   7.561  12.157   4.592 -0.0557 -0.2006 -0.1785
26029W        W29249   8.830  12.252   2.016  0.0320  0.1342 -0.2016
26030W        W29250   5.459   0.809   5.648  0.1470  0.1428 -0.2220
26031W        W29251   5.525   3.310   3.064  0.4043  0.0720 -0.2891
26032W        W29252  16.769   0.954   7.715  0.1963  0.1871  0.1274
26033W        W29253  15.428  16.809   7.625  0.1313  0.0655 -0.3174
26034W        W29254  13.210   7.888   1.493 -0.0180  0.1074 -0.0064
26035W        W29255  11.686  11.499   7.912  0.2342  0.3763  0.1609
26036W        W29256  12.418  10.169   4.858 -0.1119 -0.3031 -0.0758
26037W        W29257  13.078   6.464   1.747  0.1539  0.1643 -0.0299
26038W        W29258  11.866   0.792   5.781  0.0046  0.2232 -0.0612
26039W        W29259   9.292   1.193   1.407 -0.0794 -0.0948  0.2647
26040W        W29260  13.247   4.083  11.807 -0.0386 -0.2652  0.3221
26041W        W29261   5.874   2.175   6.723 -0.0204  0.0535  0.1306
26042W        W29262  13.048   7.743  13.049 -0.0926  0.0032  0.0823
26043W        W29263   4.729  15.807   7.076 -0.3721 -0.3246  0.1543
26044W        W29264   8.443  16.292   5.370 -0.0936  0.1637  0.3190
26045W        W29265   6.751  15.085  15.868 -0.3701  0.1646  0.0057
26046W        W29266  16.008  10.444   4.452  0.1475 -0.4100 -0.1506
26047W        W29267  13.639   8.714   3.538  0.2961 -0.1103 -0.2223
26048W        W29268   3.290  16.366   6.519 -0.1333 -0.2550 -0.1826
26049W        W29269  11.943  13.255   6.331 -0.0483  0.0004 -0.1397
26050W        W29270  12.208  12.080   5.654  0.3036 -0.1378  0.1470
26051W        W29271   8.461  14.821   5.385  0.0385  0.0851  0.2571
26052W        W29272  13.926   7.012   7.231  0.0101 -0.3533 -0.1523
26053W        W29273   0.910  18.129   3.252 -0.2012 -0.2129  0.3250
26054W        W29274   2.712   0.951   7.910 -0.0502  0.0849  0.0570
26055W        W29275   4.408  10.754   9.244 -0.0937  0.0752  0.0643
26056W        W29276  12.055  12.520   7.178 -0.0816 -0.0498 -0.1491
26057W        W29277   4.112  18.074  15.147 -0.1090 -0.2789 -0.3198
26058W        W29278   7.515   8.448   2.198  0.1468  0.0539 -0.0054
26059W        W29279   2.836  10.509   9.146  0.2398 -0.1419 -0.3231
26060W        W29280  16.941   9.345   6.604 -0.0428 -0.3136 -0.0026
26061W        W29281  11.737  11.723   8.448 -0.0822  0.1624  0.1669
26062W        W29282   6.285   9.237   7.789  0.2097 -0.3086  0.0070
26063W        W29283  12.713  10.476   6.218  0.1772  0.0381  0.0269
26064W        W29284   4.413  15.011   0.679 -0.0739 -0.3218 -0.3271
26065W        W29285   8.671  12.243   0.009  0.1748  0.0945 -0.1770
26066W        W29286   6.907   1.231   3.437 -0.2407 -0.1598 -0.2234
26067W        W29287  13.071  11.730   9.561 -0.1107  0.0721  0.3614
26068W        W29288   9.261  10.895   5.637 -0.2217  0.2381  0.1918
26069W        W29289   7.460  10.347   8.607 -0.1098 -0.1477  0.0755
26070W        W29290  10.513  13.407   2.703 -0.1290  0.0277  0.2343
26071W        W29291   6.653  13.806   5.127 -0.0245  0.3104 -0.0256
26072W        W29292   7.600  11.990   2.595  0.0477  0.0588  0.0461
26073W        W29293  10.535  14.953   5.596 -0.4367  0.1264 -0.1093
26074W        W29294  10.188  10.364   6.628  0.1773  0.0275  0.1672
26075W        W29295  10.544  11.405   3.029  0.0783 -0.1007 -0.2632
26076W        W29296   0.235   1.311   5.928  0.2461 -0.0284 -0.0539
26077W        W29297  10.281  10.855   5.864  0.1601 -0.0043 -0.1634
26078W        W29298  15.036   6.350   1.948  0.2737  0.0449 -0.1593
26079W        W29299   8.213  13.501  18.136 -0.1973 -0.2953  0.1710
26080W        W29300  10.079  12.763   3.860  0.0558  0.1181 -0.0464
26081W        W29301   9.822   5.881   1.779  0.2827  0.3414 -0.0473
26082W        W29302  12.599  14.160   7.292  0.1621  0.0196 -0.0542
26083W        W29303   3.454  15.412   7.371  0.0283 -0.3770  0.2824
26084W        W29304   8.176  10.061   5.805 -0.0844 -0.2468  0.0913
26085W        W29305  12.099  13.192  10.726  0.0930  0.1794 -0.1828
26086W        W29306  13.212   7.019   3.998  0.0390  0.1232  0.2871
26087W        W29307  12.281  11.138   1.382 -0.1867 -0.0626  0.0624
26088W        W29308  12.553  10.903  17.773 -0.3298 -0.1949  0.3329
26089W        W29309  10.375  14.472   7.965  0.1847 -0.2593  0.0146
26090W        W29310   7.137  15.237   7.454  0.1446  0.1761  0.1732
26091W        W29311   5.033  11.840   4.918 -0.0472  0.1874 -0.0851
26092W        W29312   6.396  13.300   0.047  0.1172 -0.3982 -0.0635
26093W        W29313  14.071   7.163   6.128 -0.1825  0.0494 -0.0738
26094W        W29314  17.366   9.715   7.131  0.2376  0.3402 -0.4217
26095W        W29315  10.221  14.538   0.318 -0.2019  0.0775  0.0321
26096W        W29316   3.092  13.243   9.130  0.0404 -0.1134  0.2902
26097W        W29317   5.939  13.842   9.783  0.0145  0.0155 -0.0031
26098W        W29318  12.249  16.222   4.993  0.1967 -0.1082 -0.2641
26099W        W29319  10.055   4.211   9.783 -0.1928  0.0842 -0.2410
26100W        W29320   6.568  15.936   2.408 -0.2485 -0.0050  0.3994
26101W        W29321  12.053  11.248  14.559 -0.1114 -0.1730 -0.1262
26102W        W29322   7.023  13.900   8.247  0.1492 -0.2039  0.1804
26103W        W29323   3.396  13.209   1.198 -0.3528  0.0378  0.1200
26104W        W29324   9.308  14.111   4.486 -0.1240 -0.0145  0.0233
26105W        W29325  16.512  13.250   9.705  0.0093  0.0401 -0.0130
26106W        W29326  11.565   9.802   5.493 -0.0993  0.0667  0.1016
26107W        W29327  12.907  16.043  10.520 -0.2728  0.1728 -0.4693
26108W        W29328  12.627  13.312  15.385 -0.0084 -0.0332  0.0293
26109W        W29329  17.707   7.518   6.454 -0.0026  0.2651  0.1301
26110W        W29330   7.020   2.664   5.667  0.1384  0.0697 -0.0012
26111W        W29331   9.534   7.616   4.642  0.1342 -0.1050  0.2029
26112W        W29332  13.836   9.063  11.172 -0.0466 -0.3652 -0.1302
26113W        W29333   4.795  12.747   3.899  0.3164  0.2684 -0.2006
26114W        W29334   6.615  17.507  11.659  0.1568 -0.1618 -0.2632
26115W        W29335   8.579  12.074   9.265 -0.2380  0.1319  0.0573
26116W        W29336  11.937   9.188  10.765 -0.0969  0.3730 -0.1115
26117W        W29337   6.398  14.218  11.896  0.0774 -0.0662 -0.1103
26118W        W29338   7.080   5.306   6.944 -0.0028 -0.2889  0.1446
26119W        W29339   3.402  17.144   0.215 -0.0586 -0.1806  0.2591
26120W        W29340  10.511   2.779  18.231 -0.0778 -0.2077  0.3540
26121W        W29341  14.785  14.304  16.384 -0.3111 -0.1672  0.0679
26122W        W29342   1.332  11.518  15.771  0.2711  0.0649  0.0769
26123W        W29343  10.072  17.356   1.463  0.1853 -0.0720 -0.2668
26124W        W29344   7.541  14.272   6.452 -0.0248 -0.0557 -0.1634
26125W        W29345   5.684   6.017   5.152  0.1809 -0.2943  0.0215
26126W        W29346   3.436  11.678   9.314  0.1005  0.0534 -0.0955
26127W        W29347  12.129  13.799   0.745 -0.1596  0.1146  0.0487
26128W        W29348   5.462   9.016   2.663 -0.4170  0.1717 -0.0530
26129W        W29349  12.373  17.527   3.154  0.0840 -0.3763  0.0741
26130W        W29350  11.496  13.009   5.871  0.2374  0.2529  0.0087
26131W        W29351  12.895  12.870   6.023  0.0267 -0.0685  0.1871
26132W        W29352  10.950  15.948   2.709 -0.0725  0.1188 -0.0295
26133W        W29353  10.617  15.999  12.003  0.1286  0.3353  0.4182
26134W        W29354   5.365   0.314   9.002 -0.2651  0.2915 -0.0217
26135W        W29355  12.533   9.949  16.577  0.1647  0.0503  0.2678
26136W        W29356  16.186  14.393  17.580 -0.3887  0.3855  0.3061
26137W        W29357  17.352   4.049   6.519 -0.1001 -0.0482  0.1643
26138W        W29358  13.938   3.729   0.085  0.0115  0.1999 -0.2236
26139W        W29359  15.595  10.054   8.282 -0.1581 -0.0019 -0.0934
26140W        W29360   6.968   9.152   2.186  0.0084  0.1322 -0.3814
26141W        W29361  13.349  14.678   6.135  0.0561  0.0748 -0.2417
26142W        W29362   8.590  14.684   7.393  0.0944  0.1627  0.2803
26143W        W29363   5.787  10.697   4.568  0.0184 -0.1189 -0.0712
26144W        W29364   8.571  11.438   2.411 -0.0069  0.2875 -0.0126
26145W        W29365  13.061  13.186  17.488 -0.1062  0.3361 -0.1787
26146W        W29366  11.040   7.541   7.673 -0.2046 -0.2133  0.0681
26147W        W29367   8.372  12.721   5.426 -0.2439  0.0249  0.2732
26148W        W29368  12.797  11.269   2.364  0.0778  0.1672 -0.2232
26149W        W29369   6.898  17.354   2.694 -0.0428  0.1855  0.2091
26150W        W29370   9.054   1.226   6.849 -0.1414 -0.0552  0.1242
26151W        W29371  12.561   7.652  15.229  0.1396 -0.1474  0.0505
26152W        W29372  13.772  10.219   6.023 -0.0158  0.1735 -0.0793
26153W        W29373   1.625  13.951   8.148 -0.3143  0.1740  0.2340
26154W        W29374  14.116   8.023   6.406  0.1415  0.0521  0.0139
26155W        W29375  13.567   2.727  11.742 -0.0597  0.1520 -0.0950
26156W        W29376   8.422  13.499   8.989 -0.0464  0.2262  0.1510
26157W        W29377   9.520   3.752  11.563 -0.0498 -0.3445 -0.0730
26158W        W29378  17.658  14.345   3.393 -0.0477  0.1248  0.2912
26159W        W29379  10.711  15.961   1.649  0.1966  0.0193  0.1774
26160W        W29380  10.348  17.377  16.006 -0.0951  0.4845 -0.4231
26161W        W29381   3.687  11.738   9.776 -0.0044 -0.1306 -0.1332
26162W        W29382   8.022  16.119   5.643 -0.0031 -0.2768 -0.1923
26163W        W29383   5.784  17.420   4.303  0.1908 -0.2653  0.2907
26164W        W29384   3.888   1.360   2.335  0.0916 -0.1851 -0.0161
26165W        W29385   6.510  15.233   8.079  0.1938  0.2221  0.0888
26166W        W29386  12.064  11.428   5.082  0.1620 -0.2376  0.0212
26167W        W29387  14.538   7.706   4.318  0.2297  0.1017  0.4151
26168W        W29388   6.856  14.416   7.965  0.1493  0.0000  0.1657
26169W        W29389   8.530   9.096   9.441 -0.2240 -0.0337  0.0887
26170W        W29390  13.629  17.904   9.426  0.0514  0.0911 -0.0929
26171W        W29391  13.371   9.773   4.141  0.0745  0.0790  0.1022
26172W        W29392  12.584  16.796   5.498 -0.2038 -0.0647  0.3060
26173W        W29393  11.010   5.077  11.279  0.0414 -0.0689 -0.0178
26174W        W29394   1.684  11.564   9.836  0.2060 -0.0957  0.1848
26175W        W29395  15.197   9.676   8.248  0.0706 -0.2663 -0.1218
26176W        W29396   8.133   5.849   4.534  0.1538 -0.0826  0.5132
26177W        W29397   3.363   0.163   6.343 -0.0792  0.1364 -0.0908
26178W        W29398   0.510   3.682   1.343 -0.0050  0.2175  0.1736
26179W        W29399   4.039  17.241  17.144  0.1747 -0.1045 -0.1270
26180W        W29400   2.661   9.632   1.669 -0.2598  0.1031  0.0112
26181W        W29401   0.281  15.372  10.785 -0.1148  0.4463 -0.0507
26182W        W29402   9.555  15.079   3.524  0.1618  0.2291  0.2978
26183W        W29403   8.009  15.161   5.364 -0.3288 -0.2610 -0.1122
26184W        W29404  14.216   0.727   4.104  0.0594  0.1845 -0.0580
26185W        W29405  11.726   7.362   9.489  0.0258 -0.3403 -0.5503
26186W        W29406   6.030  14.454   3.440 -0.0328 -0.0255  0.0585
26187W        W29407   8.964  11.519  10.429 -0.1599 -0.1594  0.0182
26188W        W29408   3.273  14.981   9.866 -0.0666  0.0906 -0.0031
26189W        W29409   9.921   6.858  13.948 -0.1010  0.0491  0.0951
26190W        W29410   8.841  12.441  15.259 -0.1211  0.0673 -0.2158
26191W        W29411  12.076  17.951   2.365  0.0970 -0.0706 -0.0437
26192W        W29412  12.900   7.279   5.137 -0.0281 -0.1024  0.0933
26193W        W29413   8.594  10.484   4.808  0.2749  0.0681 -0.1490
26194W        W29414  10.179  18.053   1.537  0.4343  0.0546  0.1668
26195W        W29415   1.445  16.757   3.669  0.0262  0.0591  0.0966
26196W        W29416   9.274   9.496   7.531 -0.1153  0.2556 -0.0945
26197W        W29417   5.943  13.743  10.632 -0.3682 -0.1074 -0.0224
26198W        W29418   5.652  16.367  11.261  0.0027 -0.0131 -0.0925
26199W        W29419   5.771  11.991   4.415 -0.0268  0.0555  0.2650
26200W        W29420   2.409   9.772   5.116  0.3580 -0.2900  0.0693
26201W        W29421  16.867  15.545  15.700 -0.3268 -0.1853  0.4560
26202W        W29422  12.227  14.697  10.501 -0.1891 -0.1559 -0.0102
26203W        W29423  11.651  15.169   4.266  0.1603  0.3633 -0.1978
26204W        W29424   6.913  11.936   5.154 -0.0926  0.3255  0.3433
26205W        W29425   1.760  17.558  16.088 -0.2184  0.2573  0.2376
26206W        W29426  18.225  16.845   6.494 -0.0306 -0.1983  0.2344
26207W        W29427  11.141  10.501   6.761 -0.0017 -0.0686  0.2651
26208W        W29428   4.393   8.153  15.368 -0.0822  0.0186 -0.0681
26209W        W29429  11.572  15.186   8.131  0.0437  0.1090  0.1828
26210W        W29430  16.603   9.345  10.833  0.0751  0.3917 -0.1918
26211W        W29431   4.852  12.904   5.527 -0.0546 -0.0251 -0.2266
26212W        W29432  13.155  10.217  18.059  0.0184 -0.3346  0.0442
26213W        W29433   6.430  10.709   8.721  0.0712 -0.0871 -0.0128
26214W        W29434  15.609  11.301  11.185 -0.0641 -0.6451  0.0943
26215W        W29435  15.414  11.246   6.708 -0.3106  0.0239 -0.0995
26216W        W29436   4.831   7.011   9.115  0.0789  0.0230 -0.2855
26217W        W29437  14.999   6.457   9.401 -0.2589 -0.0824  0.2661
26218W        W29438  12.370  13.399   2.987 -0.1664 -0.0368 -0.0662
26219W        W29439   0.818   7.791  16.387  0.0499  0.3575  0.2317
26220W        W29440  12.675  14.383   3.521  0.3408  0.0942  0.0380
26221W        W29441   5.523  14.085  18.252  0.4458  0.1563 -0.0089
26222W        W29442  14.191  12.209   5.058  0.0943  0.1055 -0.1770
26223W        W29443   7.519  14.986   2.485 -0.1621 -0.2242  0.3817
26224W        W29444   9.398   6.825  17.883 -0.0957 -0.1925  0.1452
26225W        W29445   8.099  13.060   9.997 -0.0563 -0.1374 -0.0941
26226W        W29446   7.548  12.251   0.615  0.0346 -0.2733  0.2740
26227W        W29447   5.999  11.078   5.546 -0.1259  0.0626  0.1727
26228W        W29448  10.402  13.632  17.826  0.0080  0.2875  0.3720
26229W        W29449   7.576  12.342  15.964 -0.2026  0.0756  0.2352
26230W        W29450   9.521   7.304   3.241  0.1683  0.2391 -0.0595
26231W        W29451   7.988  14.631   3.299 -0.0714  0.1515  0.0322
26232W        W29452   8.213  16.170   8.378 -0.2863  0.2232 -0.0322
26233W        W29453   9.764   2.383  11.998 -0.1110 -0.2163  0.0868
26234W        W29454   2.455   9.482   6.628  0.0212 -0.0951  0.4445
26235W        W29455  15.227   1.705  12.802  0.2990 -0.1346 -0.0425
26236W        W29456   0.701  12.096   6.342 -0.1044  0.2517 -0.3502
26237W        W29457   9.436  13.035   7.844 -0.3404  0.3893 -0.0490
26238W        W29458  11.587  16.305   3.665 -0.0936  0.2158 -0.1373
26239W        W29459  13.355  10.242   6.341  0.2555  0.0421 -0.2132
26240W        W29460   9.188  10.026   8.420 -0.4145 -0.0373 -0.0540
26241W        W29461  14.608  11.278  10.961  0.1248 -0.0560  0.1085
26242W        W29462   9.408  17.765   7.823 -0.1272  0.0041 -0.0062
26243W        W29463   7.667  11.801   8.241 -0.0783  0.1694 -0.1831
26244W        W29464   3.789  10.216   5.957 -0.0218  0.1717  0.1398
26245W        W29465  11.646  15.694   4.512 -0.0756  0.1542 -0.2146
26246W        W29466   9.437  16.626   2.599 -0.3036 -0.0044 -0.0196
26247W        W29467   5.218  15.090   0.735  0.2355 -0.0335  0.0670
26248W        W29468  10.337  13.160   6.467  0.0107  0.0211  0.0922
26249W        W29469   1.293  14.578   6.825 -0.1038  0.0093 -0.1935
26250W        W29470  12.578  12.548  11.543 -0.2577  0.1888  0.1473
26251W        W29471  10.708  13.135   8.523  0.4721  0.0386  0.2178
26252W        W29472   8.542  14.831   4.387 -0.0658 -0.0071  0.1797
26253W        W29473   6.033   5.951   1.984  0.1707 -0.2604  0.1541
26254W        W29474   9.364   2.368   2.874  0.0823 -0.0835  0.0018
26255W        W29475   7.999  14.814   8.828  0.0100 -0.0643  0.2415
26256W        W29476  12.464   4.189   5.040 -0.0343 -0.0365 -0.0142
26257W        W29477  10.358  12.700   5.101  0.4062 -0.4957  0.1939
26258W        W29478  15.869   9.655   5.014  0.0974  0.1312 -0.1143
26259W        W29479  13.025  12.351   6.023  0.2055 -0.2953 -0.1619
26260W        W29480   6.437  18.119   6.960  0.3423 -0.2058  0.1205
26261W        W29481   4.911  16.518   7.702  0.0870 -0.2422 -0.3470
26262W        W29482   7.625  18.018   2.905 -0.0154 -0.2420 -0.0719
26263W        W29483   1.266  15.099   8.111 -0.2641  0.0182 -0.1230
26264W        W29484   5.969   7.349   4.122  0.1253  0.1419 -0.0485
26265W        W29485  17.333  17.253   5.786  0.0232  0.3488 -0.0575
26266W        W29486   6.129  15.730   6.577 -0.1075 -0.2019 -0.1753
26267W        W29487   5.931  17.046   9.306 -0.2221 -0.0186 -0.0559
26268W        W29488   2.621  10.509  10.451 -0.0096  0.2452 -0.0142
26269W        W29489   7.034  10.098   6.084 -0.0624 -0.5171  0.1107
26270W        W29490  12.150  12.836   5.304 -0.3179 -0.0130  0.1865
26271W        W29491  10.384   8.099   2.998  0.1957  0.0621 -0.0164
26272W        W29492   4.662   1.851   8.633  0.1393  0.2214  0.3118
26273W        W29493   2.424  11.954  14.377  0.0965 -0.2287 -0.0856
26274W        W29494   5.042  14.919   6.655 -0.1500 -0.2948  0.2961
26275W        W29495  13.321   6.165   5.772 -0.1551 -0.0707 -0.0457
26276W        W29496   3.303  13.514   6.897 -0.0727  0.1215  0.1245
26277W        W29497  13.593  11.598   6.930  0.1449 -0.3199  0.0292
26278W        W29498   7.405   9.036   5.143  0.2475 -0.1367  0.0369
26279W        W29499  12.741   9.019  10.409 -0.2810 -0.1481 -0.0278
26280W        W29500  12.449  11.718   4.836 -0.2051 -0.0308  0.1195
26281W        W29501   8.911  10.087   4.369 -0.0410 -0.1958 -0.0510
26282W        W29502  12.146  12.851  11.121 -0.0202 -0.1087  0.4239
26283W        W29503   5.569  13.558   7.061 -0.1264  0.2427 -0.0325
26284W        W29504   4.114  17.337   7.699 -0.0274 -0.1552  0.1466
26285W        W29505   7.152   0.855   6.190 -0.1680  0.1183  0.4020
26286W        W29506   7.892   2.261   6.714 -0.1151 -0.0122 -0.1952
26287W        W29507  10.563   9.784  10.597  0.0586  0.0060  0.0769
26288W        W29508  11.717  16.298   3.045  0.0562  0.0526  0.0924
26289W        W29509   6.352   3.392  10.406  0.3262 -0.1917  0.2635
26290W        W29510  18.034   2.447   6.643  0.0003  0.1705  0.1527
26291W        W29511  12.904  12.481   5.223 -0.0216 -0.2365  0.0871
26292W        W29512   6.818  15.040   5.452  0.2144  0.2493 -0.2230
26293W        W29513   7.296  12.671  10.522  0.3722  0.0628 -0.1981
26294W        W29514  13.391   8.379  11.005 -0.0920  0.0570 -0.0299
26295W        W29515   5.213   7.881   6.807 -0.0622 -0.0843 -0.2194
26296W        W29516  11.121   1.177  11.283 -0.0365  0.0578 -0.1948
26297W        W29517   2.326  15.759   6.891  0.1550 -0.0258 -0.0091
26298W        W29518   8.883   3.847   5.960 -0.1835  0.0937 -0.0730
26299W        W29519   7.594  15.372  11.277 -0.1688  0.0037 -0.0986
26300W        W29520   5.847  13.217   0.848 -0.2907  0.0475  0.0324
26301W        W29521   9.583   8.777   6.282  0.0227  0.0303 -0.0384
26302W        W29522   3.727  18.245  11.498 -0.0228 -0.4869 -0.4310
26303W        W29523   9.467  11.423   2.827 -0.3372 -0.3404  0.0126
26304W        W29524  16.583  12.729   5.374 -0.1945  0.0364 -0.0574
26305W        W29525   9.985   6.604   8.535 -0.1788 -0.1090  0.0301
26306W        W29526   3.708  11.023   5.631 -0.4147  0.0672  0.0665
26307W        W29527  12.381   7.631  18.078  0.0309  0.2267 -0.1675
26308W        W29528  14.278   1.978   1.449 -0.1059  0.2868 -0.0544
26309W        W29529  13.525  14.434   1.457  0.0052 -0.2291 -0.0273
26310W        W29530  12.328   9.640   3.187  0.1578 -0.3279  0.1491
26311W        W29531  10.217  11.323   4.587  0.2283  0.0643 -0.3370
26312W        W29532  10.386   5.181  10.594 -0.5312  0.2122 -0.0726
26313W        W29533   4.998  15.479   5.334 -0.1455 -0.0288 -0.4232
26314W        W29534   9.299  11.847   5.778 -0.3493  0.0126  0.0982
26315W        W29535   3.105  15.804   7.532  0.2460 -0.0725  0.0629
26316W        W29536  10.095  11.603   0.876 -0.0639 -0.1210 -0.0482
26317W        W29537   8.855   2.756  15.492  0.2522  0.0840  0.1417
26318W        W29538  10.825  15.013   2.254  0.4456  0.2753 -0.0614
26319W        W29539  10.216   4.630  10.031 -0.2432  0.0242  0.0283
26320W        W29540  10.031  12.011   9.692 -0.0084 -0.0245 -0.2643
26321W        W29541   4.414   1.876  11.497  0.2069  0.2673 -0.0774
26322W        W29542   6.027  14.777  11.704  0.0662  0.3184  0.1779
26323W        W29543  14.534  12.986   6.538 -0.0668 -0.1469  0.1354
26324W        W29544  16.187  10.775   4.125  0.0476  0.0894 -0.0923
26325W        W29545  10.115  15.083   6.901  0.0211 -0.1106 -0.0272
26326W        W29546  13.124   6.979   9.807  0.2960  0.0581 -0.0975
26327W        W29547   8.790  11.755  16.512  0.1200  0.1351  0.2067
26328W        W29548   7.761   2.229   5.113  0.0425  0.0001  0.0601
26329W        W29549   8.582  17.407   1.012 -0.2043  0.1561 -0.0711
26330W        W29550  10.323   8.985   8.503  0.1615  0.1070 -0.1799
26331W        W29551  11.727  14.917   5.057  0.0610 -0.0720 -0.0667
26332W        W29552  10.107   2.905  14.784 -0.0787  0.3430  0.0293
26333W        W29553   2.793   7.728   8.057  0.1171  0.0240 -0.2197
26334W        W29554   5.438  14.260  13.777  0.1708 -0.2832 -0.3058
26335W        W29555   9.120   7.345   7.847  0.0816  0.2911  0.1933
26336W        W29556   8.839  13.335   1.508 -0.0973  0.1586 -0.0511
26337W        W29557   9.875   0.988   7.645  0.0545 -0.0707  0.1307
26338W        W29558   7.297  16.241   4.050 -0.2397  0.1019  0.3896
26339W        W29559   3.253  16.183   5.592  0.1114 -0.0478  0.1097
26340W        W29560   6.104  16.604   7.501  0.0171  0.0587  0.1066
26341W        W29561   7.622  11.405   4.829  0.0118  0.0062 -0.1765
26342W        W29562  12.292  14.819   3.565  0.1671  0.3333 -0.0039
26343W        W29563   8.866  14.868   3.971 -0.0572 -0.1452  0.1458
26344W        W29564   7.127   6.389   8.569 -0.1398 -0.2430  0.0448
26345W        W29565   7.964  11.852   0.770  0.0419  0.0484  0.2061
26346W        W29566   9.914  14.828   1.272 -0.2253 -0.1508 -0.0221
26347W        W29567  11.435   9.737   4.342 -0.0489  0.1110  0.3832
26348W        W29568   2.096   2.532  12.689 -0.1853  0.4649 -0.0475
26349W        W29569  14.673   9.135  12.093  0.0130  0.1633 -0.0083
26350W        W29570  15.905  15.298  15.189 -0.0450 -0.2779 -0.1439
26351W        W29571   8.543  10.991   7.306 -0.0132 -0.1687  0.1902
26352W        W29572   5.696  13.315   8.274  0.0249  0.1306  0.0783
26353W        W29573  14.512  12.381   4.259  0.3990  0.3216  0.0751
26354W        W29574  15.235   8.843   7.447 -0.0805 -0.2193 -0.1205
26355W        W29575   9.222  14.430  16.062 -0.0437 -0.0679 -0.0410
26356W        W29576   8.010  18.270   3.927 -0.0540  0.1168 -0.1890
26357W        W29577  11.067   8.196   8.798  0.1976  0.0984  0.0666
26358W        W29578   6.564  10.671   0.911 -0.0261  0.0638 -0.0129
26359W        W29579   4.898  14.786   7.649  0.0326  0.1792 -0.2317
26360W        W29580  10.472   7.440   2.384 -0.0954 -0.0130 -0.1308
26361W        W29581   9.693   5.061   2.925 -0.2616  0.1327  0.0746
26362W        W29582  12.005  10.563   1.925  0.0800  0.2260 -0.2147
26363W        W29583   5.267  13.427   2.643  0.0212 -0.0657 -0.2852
26364W        W29584  10.172  12.194   6.474 -0.2022  0.0486 -0.1252
26365W        W29585   6.734  18.063   1.052 -0.0143 -0.1908 -0.2256
26366W        W29586   9.406   9.492  17.204  0.0775  0.1511  0.0578
26367W        W29587   7.012  11.803   1.933  0.2447  0.2325  0.0493
26368W        W29588   5.935  12.747   4.964  0.0658 -0.1716 -0.3468
26369W        W29589   7.620   9.822   3.192 -0.0439  0.0977  0.0732
26370W        W29590   8.418  10.525   7.268 -0.2577  0.1306  0.1863
26371W        W29591  15.193   8.002   1.424 -0.1544  0.0165  0.0338
26372W        W29592  11.352   5.689   6.594 -0.0171 -0.1068 -0.1586
26373W        W29593   2.402   3.359   1.931  0.2904  0.0497 -0.1952
26374W        W29594   5.051  13.362   0.391 -0.2197  0.0481  0.1434
26375W        W29595  10.513  16.212   6.062  0.0613  0.1714  0.1387
26376W        W29596  14.811  13.010   9.913  0.1096  0.2047 -0.0610
26377W        W29597  12.253  10.584   9.437  0.0622 -0.1574  0.2630
26378W        W29598  14.527   7.585   5.248 -0.2842  0.2718 -0.0873
26379W        W29599   9.412  12.369  17.512  0.2176  0.1291 -0.1000
26380W        W29600   6.992  11.803   4.046 -0.4098  0.1534 -0.1893
26381W        W29601  11.118   6.760   9.193  0.2852 -0.1955 -0.2225
26382W        W29602  13.741   9.466   8.568 -0.1933  0.1495 -0.1979
26383W        W29603  15.007   3.014   2.433 -0.0286 -0.0897 -0.0628
26384W        W29604   8.729  13.737   4.679 -0.0245 -0.0026 -0.3207
26385W        W29605   9.536  14.524   5.610  0.0733 -0.0031 -0.1095
26386W        W29606  11.930  17.663   1.909  0.1889 -0.1155  0.0431
26387W        W29607  10.343   8.474  17.791 -0.1353 -0.0993 -0.0308
26388W        W29608  12.373  14.225   2.134 -0.1376  0.0405 -0.1187
26389W        W29609  16.944  10.413   5.873  0.3349 -0.0062 -0.0991
26390W        W29610  14.909  13.324  12.971  0.1585 -0.0162 -0.1602
26391W        W29611   9.247   9.646   6.731  0.1408  0.2265 -0.2583
26392W        W29612  12.029   8.741  11.084  0.1582  0.4330  0.0130
26393W        W29613   6.811  17.495   4.305 -0.2715  0.1193  0.0695
26394W        W29614   7.916  13.181   2.971  0.1941  0.1988 -0.0177
26395W        W29615   7.602  13.367   5.212  0.1502 -0.2516 -0.0804
26396W        W29616  10.749  11.201  17.132  0.2434  0.1634 -0.1813
26397W        W29617   1.075   9.359   8.026  0.1342  0.2229  0.2816
26398W        W29618   3.128  13.557  13.394  0.0037  0.0176 -0.0940
26399W        W29619  11.873  12.658   2.521 -0.0775 -0.1898  0.1121
26400W        W29620   3.298  16.099   0.806 -0.1398 -0.0246 -0.0066
26401W        W29621   6.963   5.783   6.737  0.3044  0.3339 -0.1684
26402W        W29622  14.177  10.521   4.471  0.1664  0.2665  0.1886
26403W        W29623   7.937  14.771  12.022  0.3222 -0.1548  0.0970
26404W        W29624   9.625  13.915   0.557 -0.0688  0.1865 -0.1997
26405W        W29625   5.080  15.307   8.425  0.0081  0.0317  0.0159
26406W        W29626  13.683  14.933  11.282  0.2731  0.2951  0.2405
26407W        W29627  12.700   6.576   6.285  0.0711 -0.2101 -0.1321
26408W        W29628   8.955  10.889  17.706  0.0435  0.0156 -0.2023
26409W        W29629  11.375  12.984   3.605 -0.0542 -0.1658 -0.3860
26410W        W29630   1.502   2.086   1.885 -0.2504  0.2599  0.2444
26411W        W29631  12.698   9.754   0.782 -0.3219 -0.0182  0.0705
26412W        W29632  11.249  17.503  17.729 -0.0787  0.2159 -0.0720
26413W        W29633   4.734  11.820   7.002 -0.3203  0.1209  0.2741
26414W        W29634  15.770   2.609  11.049 -0.3480 -0.0885 -0.3338
26415W        W29635  14.260  14.197   8.381  0.1895 -0.1001  0.0309
26416W        W29636   9.564  16.582   3.206  0.5268  0.1427  0.0086
26417W        W29637  10.871   0.882   9.619  0.2286 -0.1238  0.1493
26418W        W29638   6.705  14.186   5.941 -0.1546  0.0431  0.3180
26419W        W29639   4.500  10.719  10.144 -0.0521  0.0502 -0.2605
26420W        W29640   9.183  15.412   7.745  0.1246 -0.0174  0.1161
26421W        W29641   1.564   6.582   9.118  0.0720  0.0843  0.0290
26422W        W29642   5.839  10.921  14.613 -0.2357  0.0496 -0.2048
26423W        W29643   0.444  13.853   5.700 -0.2239 -0.2200  0.0915
26424W        W29644   9.579   6.980  13.536 -0.0444 -0.1173 -0.0177
26425W        W29645   0.218   8.962  10.581  0.1144  0.0437 -0.1787
26426W        W29646   7.971  13.929   7.101  0.0091 -0.0504 -0.0107
26427W        W29647   8.490  11.506   7.400  0.4987  0.1210  0.0714
26428W        W29648   8.347  11.701  14.369 -0.0351 -0.1538  0.0442
26429W        W29649  10.241   2.235  11.377  0.1481  0.1575 -0.0323
26430W        W29650   7.043  10.153   0.646 -0.1663 -0.1585  0.0048
26431W        W29651  13.644  11.480  10.477 -0.0158 -0.1380  0.1993
26432W        W29652   6.261  12.527  17.172  0.0952  0.0945 -0.1297
26433W        W29653  16.584   1.564   5.758 -0.1020 -0.1857 -0.1220
26434W        W29654  12.006  14.894   8.633  0.1029  0.2840  0.0364
26435W        W29655   3.602  15.074   5.555  0.0632  0.2043 -0.0704
26436W        W29656  12.249   7.987   9.336 -0.4362  0.2361  0.0302
26437W        W29657  12.034  14.938   9.128  0.3245 -0.0259  0.3219
26438W        W29658   6.273  11.173  14.667  0.0598 -0.1370  0.0379
26439W        W29659   6.783  13.219   3.994 -0.0209  0.0869 -0.1418
26440W        W29660   9.450  12.608  16.585 -0.1206 -0.1481  0.2558
26441W        W29661   8.093  13.747   6.374 -0.3278 -0.1158 -0.1192
26442W        W29662   4.070  12.708  10.464 -0.0896  0.0887 -0.1909
26443W        W29663   9.281   4.351   4.143  0.1815  0.2429 -0.0860
26444W        W29664  10.503  13.760   0.667  0.2828 -0.0985 -0.1982
26445W        W29665   7.995  10.227   6.293 -0.1363 -0.2724  0.0777
26446W        W29666   6.448  13.830   2.222 -0.1644  0.0745 -0.5374
26447W        W29667  11.292   9.666  12.455 -0.1636 -0.2402 -0.0517
26448W        W29668   4.244  15.332  17.735  0.1428  0.1667  0.0043
26449W        W29669   2.377  13.721  11.928  0.0390 -0.0153  0.0590
26450W        W29670  12.318  10.815   5.897 -0.0600 -0.0821 -0.4837
26451W        W29671   9.893  16.491   9.236  0.3126  0.0233  0.3014
26452W        W29672   8.388   7.776   9.401 -0.0082 -0.0611 -0.2368
26453W        W29673  12.850  12.050  10.599 -0.0652  0.0260  0.3293
26454W        W29674   9.848   8.979   6.806  0.1581 -0.2955  0.0816
26455W        W29675   8.252  15.150  11.297 -0.1857 -0.1815  0.0184
26456W        W29676  12.303  10.305   7.340 -0.3824 -0.0301 -0.0167
26457W        W29677   6.196  10.394  11.577 -0.0797  0.0433 -0.0104
26458W        W29678  13.857   9.782   8.066 -0.0304 -0.2101  0.0046
26459W        W29679   8.054  12.732   0.620 -0.2079 -0.1123  0.0005
26460W        W29680  10.484   9.473   7.102  0.5824  0.0764 -0.0361
26461W        W29681  10.582  17.192   2.030 -0.2054 -0.2030 -0.0644
26462W        W29682   6.376   3.752  13.605  0.2570 -0.1782  0.0410
26463W        W29683  15.941  12.653   4.758 -0.0171  0.0204 -0.2355
26464W        W29684   8.688  13.803  10.472  0.4427 -0.1293 -0.0887
26465W        W29685   8.881  10.456  11.668  0.2949  0.1216 -0.1904
26466W        W29686   9.276   7.865   6.297  0.1554  0.1101 -0.1330
26467W        W29687  12.676   1.222   9.022 -0.1831 -0.0710 -0.0766
26468W        W29688   6.391  10.465  10.363 -0.0389  0.0035  0.0439
26469W        W29689  10.139   9.129   6.064 -0.0101 -0.2779  0.1392
26470W        W29690   8.531   8.532   9.721  0.1011  0.0378 -0.2079
26471W        W29691   9.648  10.012   8.660  0.2679  0.2107  0.1885
26472W        W29692   8.091  15.900   5.214 -0.2174 -0.1068  0.1615
26473W        W29693   5.490  13.522  14.649  0.3194 -0.0153  0.3373
26474W        W29694   2.964  11.409   6.277 -0.2255  0.0860 -0.3316
26475W        W29695   6.353  15.058  10.920  0.3084 -0.0068  0.0312
26476W        W29696   6.857  14.516   5.307 -0.0328  0.0687  0.0721
26477W        W29697   9.005  12.347   2.997 -0.1519  0.2469  0.2388
26478W        W29698  15.958  17.511  12.131  0.1625 -0.1277 -0.0074
26479W        W29699   2.244  11.097  13.005  0.1573  0.0746 -0.1082
26480W        W29700   6.306  15.698   9.745  0.0332 -0.2956 -0.0419
26481W        W29701  14.013   0.192   2.877 -0.2305 -0.2436  0.0130
26482W        W29702  14.080   8.791   6.425 -0.2977  0.1366 -0.1240
26483W        W29703  10.239   7.135   4.895 -0.5033 -0.1520  0.3131
26484W        W29704  18.203  15.082   4.343  0.2341  0.1700 -0.2650
26485W        W29705   8.258   8.457   8.162  0.0707 -0.1803  0.1160
26486W        W29706   5.130   1.819  10.006  0.1846  0.0473 -0.0385
26487W        W29707   5.571  17.554   8.002 -0.0936  0.0166  0.2513
26488W        W29708   8.331   3.040   7.997 -0.2851  0.2378 -0.1084
26489W        W29709   0.193  12.598  10.184  0.2865  0.0388 -0.1987
26490W        W29710  12.550  15.377  12.423  0.1608  0.1613 -0.0062
26491W        W29711  12.355  10.082  11.934 -0.2012 -0.2067  0.1225
26492W        W29712   1.887  11.906   6.780  0.0372 -0.0613  0.0282
26493W        W29713   9.462   9.994  15.892  0.1864 -0.1715 -0.0139
26494W        W29714  17.160  18.065   9.176  0.2934  0.1460  0.1485
26495W        W29715  11.477  14.153   8.402  0.0032  0.0874  0.0558
26496W        W29716   6.365  15.078  12.094 -0.1866  0.2047 -0.0383
26497W        W29717   2.722  15.390   9.568  0.0426 -0.0995  0.1106
26498W        W29718   5.350   5.625   5.386  0.0291 -0.2580 -0.1321
26499W        W29719   6.586  12.342   8.784  0.0048  0.1517  0.0178
26500W        W29720  10.565   7.499  10.815  0.0648  0.0149 -0.3897
26501W        W29721   9.960  16.011  15.435 -0.2685 -0.0780 -0.3395
26502W        W29722   0.712  12.996   7.820 -0.1318  0.0199 -0.2069
26503W        W29723   3.447   6.352   1.754  0.1924  0.2555  0.0685
26504W        W29724  11.062  14.114  17.677 -0.0261 -0.2371  0.0433
26505W        W29725   6.561   9.383   6.842 -0.2315 -0.0481 -0.0495
26506W        W29726  11.798   7.558   8.057 -0.1918 -0.3104 -0.1633
26507W        W29727   7.766  11.033   9.468  0.2880 -0.0560  0.1553
26508W        W29728  16.877   8.489  13.577 -0.0869 -0.1238  0.1571
26509W        W29729  10.462  12.263   7.080  0.0403  0.1675  0.1026
26510W        W29730   6.180  14.586   2.459  0.1212 -0.0628  0.1242
26511W        W29731   8.904  13.093   6.584 -0.0876  0.1145 -0.1802
26512W        W29732   9.574  16.136   9.080  0.0426  0.1006 -0.1448
26513W        W29733  10.439  13.286   0.435 -0.4686  0.2498 -0.3863
26514W        W29734   8.064  14.983   6.064  0.2494  0.1391 -0.0078
26515W        W29735   9.744  16.423  14.630 -0.1591 -0.1605  0.1455
26516W        W29736   4.992  13.095   8.907 -0.0534  0.1243  0.1277
26517W        W29737  17.038  15.311  10.342 -0.0105  0.1270 -0.1232
26518W        W29738   4.587  12.395   9.915  0.0555  0.0800 -0.3587
26519W        W29739   3.815  16.502   9.211  0.3747  0.0086  0.0367
26520W        W29740  13.581  13.104   2.055  0.2025 -0.0464  0.1969
26521W        W29741   6.907  16.378   5.132  0.1977 -0.0905 -0.2515
26522W        W29742   8.008   7.901   1.260  0.2219  0.2041  0.1344
26523W        W29743  11.420   9.456   7.775  0.0415  0.1751  0.1912
26524W        W29744   7.845  10.703  11.980 -0.0675 -0.3307  0.1227
26525W        W29745   8.866  11.184  13.311  0.0965 -0.0632  0.2565
26526W        W29746   4.394  13.355   8.131 -0.0487 -0.0275  0.2507
26527W        W29747   5.304  12.435   7.607  0.5352 -0.1807 -0.2183
26528W        W29748   9.350  13.570   7.833  0.1072 -0.1194 -0.0328
26529W        W29749  15.719  16.693  11.720 -0.0590 -0.2016  0.2886
26530W        W29750   8.858  11.642   5.396  0.2005  0.3403  0.2569
26531W        W29751   3.674  12.647  10.185  0.1589  0.5107 -0.0477
26532W        W29752   9.328   6.510   7.965  0.2248  0.3542 -0.0557
26533W        W29753   8.871   3.598   7.236  0.1719 -0.0389  0.1708
26534W        W29754   6.094  16.138   7.617 -0.1054  0.4051  0.0446
26535W        W29755  14.578   9.385   7.083 -0.1965  0.1725  0.2381
26536W        W29756  12.741   8.597   1.727  0.0745 -0.0803 -0.1723
26537W        W29757  12.128  10.637  11.162  0.5260  0.2273 -0.1817
26538W        W29758   7.511  15.824   7.744  0.0198  0.1571 -0.0737
26539W        W29759   3.850  10.834   8.254  0.0043 -0.2810  0.2814
26540W        W29760  17.932  13.208  16.207  0.1475  0.1025 -0.3754
26541W        W29761   7.050  15.827   4.280  0.0905  0.2531 -0.2751
26542W        W29762  11.345  17.258   1.572  0.1789  0.0911  0.1469
26543W        W29763   6.882   7.301   0.888 -0.0687  0.0866  0.2276
26544W        W29764   9.109   9.569  10.096 -0.1801 -0.0500  0.0657
26545W        W29765   4.977  13.119  10.251  0.0047  0.2352 -0.0377
26546W        W29766   0.208  11.711   4.660 -0.2450  0.2967  0.0463
26547W        W29767   8.588  12.617  16.954  0.0316 -0.3179 -0.1172
26548W        W29768   8.287   9.889   1.495  0.0662 -0.0718  0.1766
26549W        W29769   5.825  17.656  14.693 -0.1302 -0.0547 -0.0445
26550W        W29770   4.242  12.806  18.176  0.0534  0.1914  0.1465
26551W        W29771  14.272  11.087   8.771 -0.0702  0.1532  0.0580
26552W        W29772  13.340  15.012  12.551 -0.0034  0.0306 -0.2121
26553W        W29773   3.378   9.821   7.937 -0.0239  0.0131 -0.0128
26554W        W29774  15.398   5.673  14.316 -0.2316 -0.2646  0.1182
26555W        W29775   5.740   3.725   3.275 -0.4866  0.0947  0.1903
26556W        W29776   3.144  17.295   7.155  0.3652  0.0667 -0.0569
26557W        W29777   6.614  14.504   8.698  0.0820  0.1408 -0.1392
26558W        W29778   7.507  14.980   7.144  0.1122 -0.0812  0.0823
26559W        W29779   6.501  12.465   4.304  0.1397  0.1592  0.3602
26560W        W29780   7.337  15.434   1.320 -0.2097  0.0960  0.1781
26561W        W29781   7.580  13.680  10.334  0.1485 -0.1819  0.0664
26562W        W29782   7.803  10.864   7.847 -0.0631 -0.0277 -0.1449
26563W        W29783  15.202   0.151  11.671  0.0515 -0.0961  0.0532
26564W        W29784  11.429  10.340   7.703 -0.0692  0.2205 -0.2007
26565W        W29785  13.694   9.972  11.025  0.2844  0.1303  0.1600
26566W        W29786   3.114  12.498  10.450 -0.1914 -0.1637 -0.2607
26567W        W29787   4.418  17.339   7.311 -0.0444 -0.1241  0.1045
26568W        W29788   9.532  16.802   9.960  0.1562 -0.4851  0.0926
26569W        W29789  12.956  12.866   7.678  0.0496  0.1218 -0.1076
26570W        W29790  16.377   9.516   9.748  0.0409 -0.3076  0.0859
26571W        W29791  13.888  12.154   7.641  0.1174 -0.0457  0.0725
26572W        W29792   4.721   6.128  10.054  0.2883  0.0418 -0.1982
26573W        W29793   6.957   6.229  11.755  0.1387  0.0946 -0.0058
26574W        W29794  12.247   1.777  12.725  0.1797  0.2447 -0.2914
26575W        W29795   6.304  13.013   9.277 -0.1884  0.3896  0.3702
26576W        W29796  13.116   9.859  11.117  0.2981 -0.3027  0.0523
26577W        W29797   9.280  15.128   4.764  0.2702  0.0572 -0.0140
26578W        W29798  13.349  16.028   7.919 -0.4078 -0.0771  0.2397
26579W        W29799   5.435  10.229  13.803 -0.2357 -0.0583  0.1510
26580W        W29800  11.273  17.178  14.088 -0.0074  0.2351 -0.0795
26581W        W29801   3.769   8.415   9.282  0.1594  0.0457 -0.0751
26582W        W29802   8.862   8.944   8.227 -0.2886  0.0096  0.1153
26583W        W29803   4.791   9.862   6.040  0.0175 -0.1845 -0.0413
26584W        W29804   6.867  14.646  14.636 -0.0189  0.3177  0.0503
26585W        W29805   7.409  16.132   0.488 -0.5417 -0.1760 -0.0163
26586W        W29806   1.890  13.570  13.308 -0.1944 -0.0179  0.0576
26587W        W29807   7.246  15.411   2.577 -0.4157  0.0928  0.0162
26588W        W29808   4.959  10.574  10.375  0.0007 -0.2097 -0.1053
26589W        W29809   9.749  11.233   7.933  0.3238  0.1663  0.2052
26590W        W29810  15.764   9.725  11.429 -0.1238  0.0356  0.2861
26591W        W29811   4.141  13.643   7.281  0.0199  0.0021  0.2944
26592W        W29812  11.549   8.493   3.660 -0.0830 -0.0561 -0.0711
26593W        W29813   6.234  14.862   8.974  0.0490 -0.3508  0.0270
26594W        W29814   8.995  12.175   8.045 -0.0285  0.3008  0.1398
26595W        W29815  11.713   8.701   8.781  0.0113  0.0863 -0.1082
26596W        W29816  12.924   2.577  12.812  0.0239 -0.2250 -0.4153
26597W        W29817   0.836  12.028   3.497  0.3405 -0.4200  0.2614
26598W        W29818   7.081  10.634   7.374  0.1120 -0.1324  0.0886
26599W        W29819  12.139   9.229  14.234  0.0462  0.0188 -0.2080
26600W        W29820   6.547  17.489   9.515 -0.1799  0.0668  0.0701
26601W        W29821   9.382   6.228   7.169 -0.1044 -0.1562 -0.1609
26602W        W29822  10.871   8.837  12.358 -0.2622 -0.3397  0.0141
26603W        W29823   6.345   1.346   9.206  0.0383 -0.1025 -0.2079
26604W        W29824   4.495  18.040  13.663 -0.1293 -0.0303 -0.0409
26605W        W29825   8.938   2.069  13.777 -0.0287  0.1707  0.0445
26606W        W29826   6.519   9.007   4.391 -0.1577  0.1672 -0.0126
26607W        W29827   8.729  16.405   7.999  0.4384 -0.0584 -0.3047
26608W        W29828   1.585  13.037   8.687  0.0952  0.1223 -0.2802
26609W        W29829   8.473  10.786  14.288 -0.0017  0.1655  0.0552
26610W        W29830   6.690  16.771  10.420  0.1561 -0.1259  0.1747
26611W        W29831   6.429   5.782  15.309 -0.0312 -0.1306 -0.1552
26612W        W29832  10.776   3.848   6.158 -0.3119 -0.1147 -0.2141
26613W        W29833  10.057   7.078  17.445  0.0713  0.0235 -0.0127
26614W        W29834   8.110  14.594   1.773 -0.1880 -0.2220 -0.3499
26615W        W29835   4.239  11.616  15.998  0.0747 -0.0836  0.0403
26616W        W29836  14.718  11.444   5.008  0.1839  0.2371  0.0042
26617W        W29837  10.571   1.030   1.774 -0.0974  0.0865  0.0666
26618W        W29838  13.114  14.319  10.516  0.1535 -0.0358  0.0300
26619W        W29839  10.273   2.426  12.173 -0.1346  0.1381  0.1286
26620W        W29840  10.062  14.530   5.623 -0.0109  0.3907  0.0069
26621W        W29841   7.886  12.041   1.313  0.0621  0.2232  0.0527
26622W        W29842   6.439  11.267  11.321 -0.2665  0.3895 -0.0034
26623W        W29843  13.307  10.466  13.772  0.2276  0.1917  0.0027
26624W        W29844  14.155   1.602   4.856  0.1951 -0.1971  0.0603
26625W        W29845  13.442  13.022   9.954 -0.1826  0.0212 -0.2265
26626W        W29846   7.973   7.646   8.560  0.2415  0.1196 -0.2004
26627W        W29847   8.152   9.426  10.145  0.2254  0.0248 -0.2790
26628W        W29848  15.061  10.320   3.485  0.0797  0.0494 -0.0378
26629W        W29849   2.699  13.354   8.786  0.0134 -0.0975 -0.1069
26630W        W29850  16.471  13.888  13.976 -0.1788  0.1714 -0.0793
26631W        W29851  12.208  17.742   9.045  0.1601  0.0250 -0.1037
26632W        W29852   7.840  17.144   9.096 -0.4115 -0.3261  0.0833
26633W        W29853   9.972   7.120   8.250 -0.1761 -0.0695  0.0576
26634W        W29854  11.486  10.979   6.928 -0.4399  0.2356 -0.0653
26635W        W29855   6.619  14.399   7.211  0.1974  0.1024  0.3200
26636W        W29856  14.077  10.234   3.503  0.4103  0.0155  0.2530
26637W        W29857   1.814  16.724  10.097  0.1991  0.0872 -0.1316
26638W        W29858   7.702  12.269  12.966  0.2233 -0.2262 -0.0901
26639W        W29859   8.218   9.640  13.192  0.0994 -0.1486  0.1251
26640W        W29860   4.818  12.535  11.426 -0.1896  0.4041  0.1068
26641W        W29861  12.621  11.260  10.087  0.1288  0.5272  0.1327
26642W        W29862  12.628  11.807  10.965 -0.0189 -0.0011  0.0531
26643W        W29863  15.910   6.427   6.865 -0.1460  0.0696 -0.2594
26644W        W29864   9.771  12.045   5.197 -0.2414  0.1023 -0.0695
26645W        W29865   6.684  13.191   5.915 -0.3907  0.0627  0.1836
26646W        W29866   3.977   7.986   6.671  0.0767 -0.3995 -0.0783
26647W        W29867  11.086  15.048  15.735  0.2434  0.4897  0.1811
26648W        W29868   7.417   7.724   5.791  0.0918  0.0505  0.1744
26649W        W29869  17.990  13.595   7.688  0.0109 -0.2426  0.1470
26650W        W29870  11.734  12.411  13.751  0.1364  0.0399  0.0087
26651W        W29871  10.152   8.968  10.003  0.1332 -0.1356  0.0679
26652W        W29872  10.655  13.521   4.808  0.1740 -0.0715  0.2102
26653W        W29873  16.475   8.463   7.836  0.0490 -0.0985  0.1524
26654W        W29874   4.624   0.887  10.871 -0.0029 -0.2326 -0.1129
26655W        W29875   7.978   9.707   6.264 -0.2844 -0.1596  0.0091
26656W        W29876  13.858  11.579  14.843  0.1003  0.2121  0.3969
26657W        W29877   8.474   9.070  11.795 -0.2100 -0.2303  0.0450
26658W        W29878   9.696   7.842  11.666 -0.1785  0.1923  0.1080
26659W        W29879   7.134  11.893  11.000  0.1163 -0.0579 -0.0252
26660W        W29880   5.212  16.531  10.053  0.0150  0.0203  0.2089
26661W        W29881  14.245   5.597   7.446  0.0350  0.0847 -0.1763
26662W        W29882   1.243  15.550  10.497 -0.0369  0.0331 -0.0543
26663W        W29883   5.015  13.915  10.017 -0.0111 -0.2755  0.0834
26664W        W29884  14.847  17.381   3.576 -0.1150  0.0430 -0.0622
26665W        W29885  10.038  16.646   7.210  0.1055 -0.2803  0.0376
26666W        W29886   7.519  12.784   3.294  0.2560 -0.2440  0.0678
26667W        W29887   7.028   3.288   8.490  0.1431  0.0199 -0.0653
26668W        W29888   6.961  17.698   7.339  0.0862  0.3969  0.1389
26669W        W29889  10.719  17.815   5.916 -0.3951 -0.1664  0.0371
26670W        W29890  11.581   1.500   6.432  0.0420  0.0571  0.1740
26671W        W29891  10.370   9.747  11.522  0.1123  0.1139 -0.1433
26672W        W29892  13.468  13.945  16.926 -0.3419 -0.1828  0.2538
26673W        W29893   4.629  13.844   8.898 -0.1649  0.0117  0.0398
26674W        W29894   9.472   2.597   5.059  0.0168  0.1673 -0.0120
26675W        W29895   8.732  11.990   2.621 -0.1407 -0.2171  0.2517
26676W        W29896   4.903   9.543   8.568  0.1165 -0.0188  0.1780
26677W        W29897   3.809  15.141   9.755 -0.0769 -0.1640 -0.3710
26678W        W29898  12.551  11.426  14.724 -0.5002 -0.1682  0.1764
26679W        W29899  13.358   9.233  18.053 -0.3503 -0.2266  0.1804
26680W        W29900  13.089   1.967  11.508  0.2258  0.1562 -0.4297
26681W        W29901  18.186  11.074   8.253  0.1380 -0.2324 -0.1849
26682W        W29902   5.578  16.855   6.038 -0.2829 -0.0030 -0.2088
26683W        W29903   6.749  12.784  13.936  0.2262  0.1754 -0.1228
26684W        W29904   5.094  13.915  16.121 -0.1746  0.3287  0.1565
26685W        W29905  12.274  10.108   2.884  0.1122 -0.1826  0.0440
26686W        W29906   8.554  11.512   6.328 -0.0887  0.0246 -0.0098
26687W        W29907   7.529  10.190  10.585 -0.1890 -0.1689  0.2801
26688W        W29908   8.246   9.452   4.024 -0.0412 -0.0984 -0.0817
26689W        W29909  10.255  17.592  10.174  0.0523 -0.0861  0.3511
26690W        W29910   1.308   9.809   7.684 -0.1492 -0.2498  0.0653
26691W        W29911  10.820  16.246   9.215  0.1834  0.2924  0.0690
26692W        W29912  10.396  12.677   9.244 -0.0329  0.2208  0.3582
26693W        W29913   6.307  16.994   9.613  0.1182  0.1395  0.0916
26694W        W29914   9.291  10.862   9.271 -0.0345 -0.0730  0.3984
26695W        W29915   8.673   9.097  15.327  0.3042 -0.1562  0.3115
26696W        W29916  14.990   9.936  12.844  0.2477 -0.2893 -0.1405
26697W        W29917   6.414  13.142   3.632 -0.0971 -0.0144 -0.3523
26698W        W29918   7.081   7.302   6.130 -0.1818 -0.1748 -0.1804
26699W        W29919   9.928  13.773  12.312  0.0570 -0.0322 -0.0788
26700W        W29920  18.183  13.828   6.739  0.0813 -0.1770  0.5386
26701W        W29921  11.143  12.456  12.971 -0.1197  0.1072  0.0839
26702W        W29922   5.431  16.643   5.223  0.0859 -0.1556  0.0264
26703W        W29923   6.748   7.196  13.861  0.1050  0.0562  0.0264
26704W        W29924  13.123   8.416   1.419 -0.1598 -0.1170  0.1544
26705W        W29925  13.386   4.772   8.855  0.1286  0.0823  0.0392
26706W        W29926   7.526  13.102   7.767 -0.0754  0.1644  0.0246
26707W        W29927  15.186  10.688   9.460 -0.0156  0.3267 -0.2138
26708W        W29928   9.843   7.828   6.528  0.2585 -0.3098 -0.1848
26709W        W29929  12.379   5.163  10.079 -0.2353 -0.1297  0.0151
26710W        W29930   8.351  11.692   5.815 -0.4869 -0.0399 -0.0005
26711W        W29931   0.200  13.433  14.731  0.0791  0.0856 -0.0411
26712W        W29932  12.836   8.255   5.244 -0.4161  0.0231 -0.0230
26713W        W29933   9.975  11.465   4.136  0.0535 -0.0424 -0.2254
26714W        W29934   8.045  10.785   6.870 -0.0771 -0.0570  0.1138
26715W        W29935   3.787  15.169  13.449 -0.0849 -0.1696 -0.2589
26716W        W29936   7.154   4.711   5.646 -0.0550 -0.1791 -0.1407
26717W        W29937   8.001   3.115   8.454 -0.0621  0.1837  0.1675
26718W        W29938  11.122  15.920   7.319  0.1768  0.0670 -0.1379
26719W        W29939   0.382  16.287  14.713  0.0161 -0.0183  0.1252
26720W        W29940   4.136  12.314   6.523  0.1790  0.0164  0.0312
26721W        W29941   2.036  11.527  10.642 -0.2414 -0.1152 -0.0486
26722W        W29942  13.922   7.369   5.626 -0.1703  0.0668 -0.1257
26723W        W29943   9.291  12.012   5.337 -0.2952  0.1866 -0.3266
26724W        W29944   9.326   7.821   8.061  0.0859  0.1952 -0.2082
26725W        W29945   6.501  11.791   6.430  0.1006  0.2425  0.0103
26726W        W29946  18.038  11.473   4.004 -0.1600 -0.3683  0.0822
26727W        W29947   9.602   9.517   9.553 -0.3476  0.0051 -0.1268
26728W        W29948  14.499   8.463  13.048  0.0964  0.3398  0.0143
26729W        W29949   8.247   7.148   3.683 -0.2047 -0.2462  0.0831
26730W        W29950   2.465  15.653  13.543 -0.1840 -0.1000  0.1497
26731W        W29951   9.193   1.630  14.056 -0.1987  0.2203  0.0402
26732W        W29952   4.633   8.032   0.536 -0.1038  0.1576 -0.2862
26733W        W29953   8.824  12.181   7.576  0.0308 -0.1028  0.3102
26734W        W29954  12.244  16.499   7.005 -0.0329 -0.1601 -0.2766
26735W        W29955   9.496  15.998   5.610 -0.0103 -0.0062 -0.0695
26736W        W29956  12.758   3.429   6.871  0.1131  0.3237  0.0864
26737W        W29957  10.409  12.413  11.789  0.0495  0.5018  0.1696
26738W        W29958  11.428  13.393   9.420  0.0508 -0.2899 -0.2348
26739W        W29959  11.474  16.175  11.813 -0.0236 -0.2068 -0.0779
26740W        W29960   6.190  13.547   2.536  0.1446 -0.0946 -0.0662
26741W        W29961  11.716  12.620  10.116  0.1224 -0.0425  0.1087
26742W        W29962  10.522   5.826   9.197  0.1683 -0.1479 -0.1945
26743W        W29963   6.917  17.802  11.358  0.1687 -0.1907 -0.0166
26744W        W29964   9.284  14.812   5.232 -0.2610  0.3645 -0.1451
26745W        W29965   8.613  13.021   8.353  0.1610  0.4371  0.0181
26746W        W29966  10.187  13.876   3.871 -0.2697 -0.2458  0.3490
26747W        W29967  11.883  12.940  12.025  0.1637 -0.0560  0.3926
26748W        W29968  10.807  17.026  11.150 -0.2042  0.1944  0.2944
26749W        W29969   8.540  17.821  13.967  0.1451  0.0560 -0.1532
26750W        W29970   7.684  10.978   6.618 -0.0282 -0.0890 -0.1821
26751W        W29971   9.363  11.488  13.024 -0.0905 -0.1449 -0.2203
26752W        W29972  10.330  17.059  10.232  0.0396 -0.0366  0.1098
26753W        W29973   9.156  12.973  16.505  0.1980  0.0413 -0.1548
26754W        W29974  14.792  14.795   2.532  0.1125 -0.0341  0.0964
26755W        W29975   4.827  13.652  10.942  0.0113 -0.4325 -0.0912
26756W        W29976   4.735  13.118   9.334 -0.2687 -0.2338  0.0595
26757W        W29977   4.147  14.147  14.405  0.2547 -0.2020 -0.2051
26758W        W29978   9.476   5.040  10.141 -0.1203 -0.2546 -0.2008
26759W        W29979   7.899  10.947  12.417  0.0593 -0.0214 -0.0400
26760W        W29980   9.810  13.844   7.605  0.3382 -0.2835  0.0714
26761W        W29981   0.600  12.128  15.248  0.0009 -0.3012 -0.1149
26762W        W29982   9.091  15.746   7.336  0.0609 -0.4263  0.0674
26763W        W29983   4.041  13.954  10.302 -0.3000 -0.3669  0.1534
26764W        W29984  10.708  13.483   9.414 -0.0635  0.1917 -0.0916
26765W        W29985  10.453  14.394   4.387 -0.0331 -0.1738 -0.4591
26766W        W29986   0.616  13.657   9.853 -0.2480  0.0740  0.0376
26767W        W29987   6.869  13.734   4.042 -0.1406  0.1651 -0.0491
26768W        W29988  10.601  10.634   6.736  0.1109  0.2376  0.1197
26769W        W29989  11.362   1.378  12.069 -0.2096  0.0976 -0.0786
26770W        W29990  10.791  11.409   0.824 -0.3247 -0.0273 -0.4002
26771W        W29991   6.814  15.513   7.814  0.1016  0.0432  0.3162
26772W        W29992   7.796   0.902   5.085 -0.0659  0.0857 -0.1052
26773W        W29993   7.112  10.387   8.243 -0.2208 -0.1946  0.2983
26774W        W29994  13.704  14.981  15.021  0.2140 -0.1511  0.1368
26775W        W29995   8.575   7.665   3.709  0.2906 -0.0982 -0.2917
26776W        W29996  10.348   8.310   2.017  0.1628  0.1865 -0.2883
26777W        W29997  14.085   7.348   8.889 -0.1382  0.0455  0.3357
26778W        W29998  13.512  13.585   9.980  0.0811  0.0609 -0.0512
26779W        W29999   9.560  16.578   0.255 -0.3448 -0.0086 -0.0706
26780W        W30000   6.014  10.385   2.454  0.3394 -0.0898 -0.0562
26781W        W30001   4.710  16.389   9.765 -0.0758 -0.1947  0.1048
26782W        W30002   8.513  16.072   2.284  0.0876 -0.0964  0.1191
26783W        W30003  15.163  16.675   3.923  0.2795  0.0295  0.0949
26784W        W30004  10.546  15.041   2.653  0.0673 -0.0575  0.3272
26785W        W30005  12.753   6.337  10.373 -0.0688  0.2871  0.1219
26786W        W30006  16.219  13.886   8.468  0.0859  0.4394  0.0657
26787W        W30007   2.315   7.864   5.909  0.1227  0.0050 -0.0343
26788W        W30008   6.317   8.260  12.330  0.0596 -0.0395 -0.1381
26789W        W30009  10.550   7.933   2.524  0.1608 -0.3011 -0.0936
26790W        W30010   8.365   7.359   5.752  0.0983  0.2583  0.2532
26791W        W30011   7.308  17.218   7.633  0.2520 -0.1802 -0.1002
26792W        W30012   1.759   8.272  15.239  0.0341 -0.6022  0.1754
26793W        W30013  10.439   7.954   7.630  0.0975  0.0071  0.1982
26794W        W30014   3.039  13.112  13.645  0.1374 -0.0683  0.2004
26795W        W30015   7.338  13.364   3.230 -0.0869 -0.0620  0.3744
26796W        W30016   4.521  14.010  10.660  0.0143 -0.2901 -0.0610
26797W        W30017  11.820   4.439   2.275 -0.0867 -0.0854  0.1591
26798W        W30018  11.010   3.276   9.130  0.1555 -0.1202 -0.1161
26799W        W30019  13.746   0.082  11.585 -0.0349 -0.1288  0.0253
26800W        W30020  17.720   9.644  13.604  0.0593 -0.0232 -0.1159
26801W        W30021   8.144  10.556   5.096 -0.1365  0.2986  0.2855
26802W        W30022  10.306  14.840   3.136 -0.0839 -0.3688 -0.0751
26803W        W30023   7.156   1.556  11.986  0.1261 -0.0242  0.1101
26804W        W30024   7.400   5.032   9.443  0.1376  0.0862 -0.0628
26805W        W30025  10.259   9.994   6.224  0.0123 -0.3943 -0.2560
26806W        W30026   8.759   7.682   8.061  0.0850  0.0503  0.0221
26807W        W30027   8.114  17.661  15.751  0.0923 -0.1417  0.1348
26808W        W30028  14.733   7.584   2.162 -0.2038  0.0941 -0.1148
26809W        W30029  11.317   1.006   4.843  0.1036  0.0197  0.0196
26810W        W30030   8.255   6.984   5.320  0.1005 -0.2353  0.2348
26811W        W30031   6.446  14.997   6.483 -0.0184  0.2547 -0.0647
26812W        W30032  10.894   9.662  11.543  0.1243  0.1319 -0.2497
26813W        W30033  14.570  12.682   7.810 -0.0226 -0.0742  0.1208
26814W        W30034  10.802   7.761   3.877 -0.2766 -0.2259 -0.2445
26815W        W30035   2.445   7.696  13.692 -0.0425 -0.2105 -0.3937
26816W        W30036   7.132  10.070  11.520  0.0162  0.0284 -0.1689
26817W        W30037  11.359   8.736  12.588  0.0367 -0.1169  0.0997
26818W        W30038  11.162   6.810   1.013  0.1257  0.0809 -0.2434
26819W        W30039   9.526  10.672   4.642  0.1712 -0.0637 -0.0059
26820W        W30040  12.195  10.150  10.765 -0.0118 -0.1813 -0.1067
26821W        W30041   7.085   8.967   8.310 -0.1659  0.0510  0.0724
26822W        W30042   9.421  11.955   1.423 -0.1447 -0.1483 -0.0117
26823W        W30043  11.891  14.885   1.267 -0.2290 -0.1992  0.1495
26824W        W30044   9.980  11.990  11.241 -0.1356  0.0353 -0.2350
26825W        W30045  12.770  10.275  11.074 -0.2077 -0.2836  0.0446
26826W        W30046  10.068  12.654  17.525  0.1111 -0.2050  0.1413
26827W        W30047  13.752  10.231   8.480  0.0273  0.1130  0.0192
26828W        W30048   8.748   8.283  15.825 -0.2897 -0.1087  0.3834
26829W        W30049   7.859  11.809   8.809 -0.1046 -0.2443  0.1577
26830W        W30050  14.540  15.439   9.826  0.3404 -0.3803  0.0298
26831W        W30051   8.323   6.829  10.372 -0.1023  0.2716 -0.2523
26832W        W30052   8.129  13.891   9.677  0.1273  0.1127 -0.1365
26833W        W30053   6.348   0.199   9.786 -0.0664  0.1048 -0.1616
26834W        W30054   5.734   8.130   9.236 -0.0365 -0.1493  0.2488
26835W        W30055   8.317   7.966  16.426  0.2306  0.2725 -0.0883
26836W        W30056   4.563   7.437  10.434  0.3468 -0.0703  0.0403
26837W        W30057   6.334  14.696   9.499 -0.0245  0.0223  0.4620
26838W        W30058  11.357  11.089  10.701 -0.2743  0.0685 -0.0216
26839W        W30059   5.782  16.670   9.000  0.1504  0.0891  0.0468
26840W        W30060   4.591   9.748  10.846 -0.1968  0.2249  0.0856
26841W        W30061  16.140   2.510   0.309 -0.2194 -0.0116  0.3115
26842W        W30062   8.483  15.542   2.858  0.0853  0.1457 -0.2675
26843W        W30063   6.011   9.661   8.015  0.0725 -0.0883 -0.0164
26844W        W30064   8.179   4.865  10.741  0.2162 -0.0040  0.2487
26845W        W30065   7.270  13.915   9.894 -0.2476  0.0512 -0.0482
26846W        W30066   9.196   7.657  15.448  0.2951  0.1580  0.3877
26847W        W30067   1.615  14.072  17.607 -0.1103  0.0313  0.0291
26848W        W30068   4.068  11.580  13.320 -0.0990  0.0793  0.1234
26849W        W30069   8.823  12.124  12.505  0.1317  0.0545  0.2760
26850W        W30070   9.301  12.393   4.383  0.2691 -0.0852  0.0061
26851W        W30071   7.473  11.395   8.989 -0.0653 -0.0297  0.0774
26852W        W30072   8.071   6.826  16.814  0.0624  0.3174  0.1991
26853W        W30073   8.912   6.052   7.996 -0.3443 -0.1480  0.1005
26854W        W30074  13.504  11.893  15.171 -0.0085 -0.0161  0.0520
26855W        W30075   8.521  12.464  14.652 -0.2074  0.0028 -0.0880
26856W        W30076  13.992   9.814  14.558 -0.0162 -0.1452 -0.0700
26857W        W30077  11.929  12.547  14.449  0.0821 -0.3470 -0.1159
26858W        W30078  14.963  14.320  12.631 -0.0468  0.2177 -0.0740
26859W        W30079   3.329   8.047   2.586 -0.0273 -0.0830  0.0233
26860W        W30080   3.058  14.311  12.191  0.0152 -0.0431 -0.2172
26861W        W30081   6.025   8.016  10.873  0.2738 -0.0135 -0.0678
26862W        W30082   8.948  10.459  13.017 -0.1726  0.0292 -0.0395
26863W        W30083  12.555  11.522   1.609 -0.0265  0.0941 -0.0319
26864W        W30084  13.790  10.200  10.596  0.2882  0.2961 -0.2333
26865W        W30085   8.242  18.200  13.205 -0.0321 -0.2711 -0.0125
26866W        W30086   3.722  12.855   0.081 -0.1332 -0.2249  0.5874
26867W        W30087  14.424  13.401   9.848  0.0872  0.0980  0.1923
26868W        W30088   2.139  10.848  11.239  0.0256 -0.0801 -0.1093
26869W        W30089  16.589   9.823  11.181 -0.0615  0.0148 -0.0090
26870W        W30090   7.533   0.261   3.976  0.1208  0.1352  0.1935
26871W        W30091   8.960  11.609  12.471  0.1948 -0.1276  0.3008
26872W        W30092  10.380  10.917  13.381 -0.0117  0.0481 -0.1127
26873W        W30093  10.029   1.814   9.716 -0.3410  0.2267  0.0072
26874W        W30094   7.269   9.501  11.960  0.1752  0.1501  0.0127
26875W        W30095   8.734  16.384   8.696 -0.0834 -0.0002 -0.0535
26876W        W30096   4.768  12.513  10.878 -0.0300 -0.1405  0.1765
26877W        W30097   4.702  11.544  15.131 -0.2253  0.2248 -0.1121
26878W        W30098  16.790   7.075  12.100  0.1897 -0.0050 -0.1461
26879W        W30099   8.344   9.666  12.716 -0.0251  0.1787 -0.2736
26880W        W30100   4.189  12.672  13.444 -0.1070  0.1097 -0.2229
26881W        W30101   9.531  11.453  11.145 -0.0764 -0.1312 -0.0571
26882W        W30102   6.474  11.658  12.025 -0.0966  0.1502 -0.2058
26883W        W30103   4.414  11.717   8.173  0.0513 -0.0015 -0.2038
26884W        W30104  13.774  11.102   8.577  0.5571 -0.1792  0.1890
26885W        W30105  10.363  10.382   9.823  0.1214  0.0644 -0.1184
26886W        W30106  17.765  15.580   8.958  0.2495 -0.0880 -0.0066
26887W        W30107   1.464  12.677   8.347  0.0255 -0.2620  0.1902
26888W        W30108   8.457  10.501  12.856 -0.0876  0.3820  0.0140
26889W        W30109   2.675   8.151  14.511 -0.0714 -0.1759  0.0145
26890W        W30110   6.722  13.301  16.539  0.0917  0.1694 -0.4414
26891W        W30111   0.718   8.569  11.234 -0.0343  0.3432  0.0133
26892W        W30112   3.614  14.027  15.925 -0.2819  0.0769 -0.0194
26893W        W30113   7.244  15.005  10.643  0.2952 -0.0168 -0.1261
26894W        W30114   7.005  11.068  15.474 -0.1771 -0.1274  0.2676
26895W        W30115   7.821  13.362  16.249  0.3249 -0.0866  0.0115
26896W        W30116   6.060   8.530   9.375 -0.0718  0.1043  0.0713
26897W        W30117  10.066   8.366  12.659  0.1371  0.1827 -0.1971
26898W        W30118   8.087   9.962  12.258  0.1909  0.1254  0.1078
26899W        W30119   7.989  14.220  12.056  0.0651  0.0265 -0.0726
26900W        W30120   6.065   5.963   8.365  0.0731 -0.0220 -0.0241
26901W        W30121   9.417  12.267  10.581  0.0073  0.0605  0.1491
26902W        W30122   8.087  10.038   3.148 -0.0974 -0.3184  0.0402
26903W        W30123  16.936   9.321  11.836  0.0832  0.2938  0.0273
26904W        W30124   3.120  10.859  15.119 -0.1923 -0.4826  0.2634
26905W        W30125  13.091   9.000  11.860 -0.0056 -0.0687  0.1378
26906W        W30126  11.437   8.944   8.050 -0.1628  0.1018 -0.1141
26907W        W30127  11.029   8.678  10.162 -0.0903  0.1133 -0.2893
26908W        W30128   4.992   7.475  12.096  0.1761 -0.2187 -0.1934
26909W        W30129   9.369  12.393  13.911  0.0243  0.1342 -0.0843
26910W        W30130   3.643  17.305  17.420  0.0303 -0.3900 -0.0753
26911W        W30131   0.005   7.634  10.036  0.0685  0.0967  0.1192
26912W        W30132   4.952  14.924  17.664 -0.1135  0.3438  0.1278
26913W        W30133   8.988   9.818  13.467 -0.2489  0.0311  0.2138
26914W        W30134   9.221  15.692   0.501 -0.0598  0.4505 -0.1020
26915W        W30135  12.402   2.069   8.017  0.3013 -0.2097  0.0106
26916W        W30136   6.715   8.284  11.792 -0.2896 -0.3962  0.0579
26917W        W30137  14.214   8.990  13.023  0.0415 -0.1347 -0.1361
26918W        W30138   7.044  10.311  10.584 -0.1051  0.1346  0.2110
26919W        W30139   5.901  17.125  10.735  0.1472 -0.0138 -0.0704
26920W        W30140   9.739   9.648  16.145 -0.1224 -0.0374 -0.1018
26921W        W30141   7.113  14.974   3.888  0.4096  0.0040 -0.3173
26922W        W30142   7.258  14.501  11.565  0.3130  0.0680 -0.1273
26923W        W30143   8.449   9.463  12.282  0.1867  0.1200  0.1895
26924W        W30144  10.297  17.122   8.428  0.1453 -0.1479  0.0860
26925W        W30145   7.590  14.828  11.562 -0.1929 -0.0754  0.2188
26926W        W30146  10.420  11.206  12.915  0.0836 -0.1024 -0.1205
26927W        W30147   6.549   5.926  12.901 -0.5931 -0.0034 -0.1738
26928W        W30148  10.537  13.306  12.215 -0.2635  0.2897 -0.0642
26929W        W30149   6.010  16.781  11.260  0.2209 -0.2123 -0.1665
26930W        W30150  15.654  12.124  10.352 -0.1082 -0.2178  0.1144
26931W        W30151  12.322  16.471  17.972  0.0860 -0.0072  0.2123
26932W        W30152   8.743  13.159  15.058  0.1727  0.2075 -0.1637
26933W        W30153  13.709  16.207  11.449  0.2202  0.2041  0.1428
26934W        W30154  13.147  15.228   0.496 -0.1013  0.4114  0.1357
26935W        W30155  14.923  14.423   2.942 -0.2351  0.0970 -0.2171
26936W        W30156   0.968  11.636  10.852  0.1434  0.0949 -0.0007
26937W        W30157   8.234   8.346  10.066  0.1543  0.2771 -0.3361
26938W        W30158  12.205  13.630   6.026 -0.1644 -0.0896  0.2066
26939W        W30159  10.050  15.393   6.544  0.2097 -0.3077 -0.0944
26940W        W30160  14.596   6.702  10.917 -0.0955 -0.0721 -0.1217
26941W        W30161   1.166   8.523  11.634  0.1664 -0.1611 -0.1125
26942W        W30162   3.397  11.259  13.931  0.2540  0.0163  0.0428
26943W        W30163   6.738   1.419  12.904 -0.1598  0.0313  0.0429
26944W        W30164  18.231  14.347  13.806  0.2724  0.1477  0.1249
26945W        W30165   9.946  16.057   5.922 -0.0077 -0.2510  0.1591
26946W        W30166  12.039  17.801   8.021 -0.0991 -0.0186 -0.0730
26947W        W30167   3.227  14.124   8.740  0.0547 -0.2227  0.1245
26948W        W30168   3.323   9.630  13.275  0.0432 -0.2445  0.1478
26949W        W30169  13.906  10.046   0.401 -0.1420 -0.2366 -0.0438
26950W        W30170  13.810  16.404  11.956  0.0366  0.0636 -0.2392
26951W        W30171  12.944   1.038   9.617 -0.3133  0.1564 -0.0117
26952W        W30172  13.195   8.320  11.721  0.0879 -0.1911  0.2073
26953W        W30173   7.285  12.866  17.319 -0.4675 -0.0613  0.1967
26954W        W30174   9.268  14.630   9.415  0.5097  0.0498  0.2627
26955W        W30175  11.372  16.118  12.567 -0.1436 -0.2209  0.0426
26956W        W30176   3.762   7.633   4.864 -0.0647  0.1314  0.0157
26957W        W30177   6.108   5.734  16.382 -0.1945 -0.1098  0.0059
26958W        W30178  13.581   5.735  16.340 -0.0730 -0.0115 -0.2986
26959W        W30179   8.434  11.551  11.018 -0.0725  0.3090  0.4294
26960W        W30180   9.806  14.127  13.956 -0.0867  0.0254  0.2858
26961W        W30181   9.894  10.641  16.271  0.0420  0.0790  0.1075
26962W        W30182  13.497  13.130  12.466 -0.1464 -0.1723  0.1172
26963W        W30183  13.335   0.148   8.071  0.0295  0.1466  0.0948
26964W        W30184  12.061  15.205  13.849 -0.0404 -0.3941  0.3965
26965W        W30185  12.102  16.652  11.030 -0.0412  0.0887 -0.2610
26966W        W30186   7.273   8.733  15.383  0.2997 -0.0404 -0.0481
26967W        W30187   9.970   9.398  15.568 -0.3873  0.0329  0.0856
26968W        W30188  12.892   9.908   8.422  0.0221  0.1544  0.0342
26969W        W30189  13.003  15.615   8.834  0.0216  0.1384  0.1481
26970W        W30190  16.284  15.496   9.776  0.2518 -0.0279  0.4421
26971W        W30191   4.783  13.297  16.831  0.1826  0.1995 -0.1517
26972W        W30192   8.542  10.712  10.813  0.1577 -0.0621  0.1633
26973W        W30193  10.354   1.566  12.912  0.0503  0.0480  0.0097
26974W        W30194   7.747  15.677   3.516  0.2460 -0.0773 -0.1525
26975W        W30195  12.247  16.400   9.947 -0.0780  0.2631 -0.1002
26976W        W30196   7.481   4.497   7.039 -0.2026  0.2516  0.2002
26977W        W30197   8.707   8.695   0.010  0.1405 -0.0307 -0.0809
26978W        W30198  12.050  10.707   8.051  0.2111  0.2697  0.1083
26979W        W30199  12.553   5.903  18.006  0.1172  0.2402  0.5096
26980W        W30200   8.282  16.362  11.172  0.0418  0.1311 -0.0649
26981W        W30201   8.808   9.839  11.038 -0.0206 -0.2955 -0.0501
26982W        W30202   2.893   3.761  11.513  0.0457  0.0896 -0.2120
26983W        W30203  11.090   8.244   5.453 -0.0270 -0.0632 -0.0297
26984W        W30204   6.918  11.709  13.045 -0.1202  0.0594 -0.3188
26985W        W30205  13.452  12.933   9.014 -0.0346 -0.0954 -0.2004
26986W        W30206   3.238   7.365  13.189  0.3273  0.0778  0.1373
26987W        W30207  14.734   0.920  16.931 -0.0506  0.1416 -0.2195
26988W        W30208  10.158  14.519  13.092  0.0033  0.3611 -0.1907
26989W        W30209   9.615  14.993   9.720  0.1587 -0.0752  0.0002
26990W        W30210  12.150  12.068  15.354 -0.1248 -0.0198  0.0017
26991W        W30211  10.606  11.573  11.651  0.1187 -0.4076  0.1409
26992W        W30212   3.837   9.415  15.168 -0.1345 -0.0672  0.0804
26993W        W30213  10.035  12.286   8.020  0.2046 -0.0766 -0.0716
26994W        W30214  17.854  10.122   8.356  0.0536 -0.0317  0.1057
26995W        W30215   4.717  12.589   9.454  0.1644  0.1698 -0.2001
26996W        W30216   8.888   8.691   5.970  0.1388 -0.0020  0.2913
26997W        W30217   9.588   3.012   9.345  0.0323 -0.0761 -0.0631
26998W        W30218   5.949  11.758  10.373  0.0558 -0.3940 -0.0943
26999W        W30219   8.373  11.084  11.215 -0.3968 -0.2594  0.0490
27000W        W30220   8.564  17.386  12.782 -0.0508 -0.0514 -0.2070
27001W        W30221  12.685  13.383   6.786  0.0853 -0.3429  0.0868
27002W        W30222  12.264  10.485   5.464  0.4757 -0.1500  0.2781
27003W        W30223   9.954   4.925   0.650 -0.2761  0.0954  0.1186
27004W        W30224   3.914  11.444  12.385  0.1563 -0.1615  0.1923
27005W        W30225  14.865  17.320   9.520 -0.0312  0.0176  0.0790
27006W        W30226  14.343  18.012  13.134 -0.0761 -0.2751 -0.0607
27007W        W30227   8.369  12.252  15.234  0.1242 -0.0456  0.0835
27008W        W30228   3.400   8.543   9.605 -0.1330  0.0820  0.0228
27009W        W30229   4.671  11.198  17.248  0.0914  0.0393  0.0347
27010W        W30230   8.745  12.358  10.836 -0.2807 -0.3164  0.1354
27011W        W30231  12.660   6.744   7.079  0.3546 -0.2651  0.0476
27012W        W30232  13.583  13.628  14.191  0.1428  0.1257  0.1851
27013W        W30233   6.058  17.590  10.272  0.0047  0.2271 -0.0666
27014W        W30234   0.308   6.024   8.048  0.3403 -0.2692 -0.0295
27015W        W30235   7.344  15.073   9.428 -0.0668 -0.1166 -0.2500
27016W        W30236   6.282  16.082   1.364  0.0878 -0.0557 -0.2507
27017W        W30237   9.664   0.541  12.193 -0.3731 -0.3254 -0.0924
27018W        W30238  13.470  10.953   0.493  0.0152  0.0304 -0.0590
27019W        W30239  13.330  16.247  14.650 -0.0660  0.1906 -0.3022
27020W        W30240   7.662   9.740   5.816 -0.1582  0.3109  0.2429
27021W        W30241   6.283  15.818  14.531 -0.2340  0.0952 -0.2109
27022W        W30242   5.953  10.268  15.366  0.2258 -0.4954  0.0094
27023W        W30243  12.732   7.888   6.311  0.1360  0.2840  0.1697
27024W        W30244  10.201   9.176  15.170  0.2047  0.1965 -0.0230
27025W        W30245   9.468   7.685  14.314 -0.1060  0.0782  0.4710
27026W        W30246   3.760   9.808   0.722 -0.0105 -0.1034 -0.1085
27027W        W30247   8.107   8.967   6.239 -0.1131  0.2246 -0.0876
27028W        W30248  12.209  12.114  14.269  0.3756 -0.2036 -0.0186
27029W        W30249   5.358  10.367   8.083 -0.1670  0.0347 -0.0511
27030W        W30250   5.457  12.623   6.072  0.0129  0.2898  0.2101
27031W        W30251   6.435  15.081   7.006  0.2097 -0.1956  0.0051
27032W        W30252  10.702   5.198  14.448  0.2105 -0.1075  0.1828
27033W        W30253   7.781   9.089  10.370  0.2570 -0.1650 -0.1547
27034W        W30254  15.545   7.315   9.811 -0.2764 -0.0892 -0.0419
27035W        W30255   8.845  13.173   9.126 -0.3173 -0.2104  0.0305
27036W        W30256   7.487  12.448  11.153 -0.2727  0.0865  0.2337
27037W        W30257   9.110   4.183   9.404  0.0032 -0.1312 -0.0931
27038W        W30258   6.415  11.942   7.463  0.0034  0.0125  0.1068
27039W        W30259   5.803  15.038  10.310  0.1102 -0.0386 -0.2121
27040W        W30260   6.727   0.222   1.899  0.3528  0.1038  0.1339
27041W        W30261  14.448   7.587   0.169  0.0268 -0.0772 -0.2924
27042W        W30262   6.646   7.036  15.538  0.0182 -0.2215 -0.3112
27043W        W30263  10.028  13.955  10.935 -0.0243  0.0923  0.2172
27044W        W30264  11.467   9.057  16.070  0.0017  0.1265 -0.1581
27045W        W30265   6.826  14.178  16.702 -0.0459  0.2376 -0.4463
27046W        W30266   1.481  12.699  13.700 -0.0495  0.2315 -0.1354
27047W        W30267   4.109  14.735  10.812  0.0025  0.1639  0.1275
27048W        W30268  10.457   7.565  13.183 -0.1680  0.2507 -0.0504
27049W        W30269   6.670   3.044  15.710  0.0720  0.1654  0.1566
27050W        W30270  14.450   0.846   9.921 -0.0039 -0.2517 -0.1866
27051W        W30271   8.858   9.274   7.307  0.1944 -0.1371 -0.1126
27052W        W30272   9.708  13.647   9.122 -0.1671 -0.0228 -0.2598
27053W        W30273   4.290   6.121  14.128  0.2355 -0.3670  0.0362
27054W        W30274  10.018  13.334   7.472  0.0010 -0.1198  0.0937
27055W        W30275   3.336   6.802   1.823 -0.0383  0.1354  0.0490
27056W        W30276  10.960  13.967  13.149 -0.3438  0.1931  0.0502
27057W        W30277  13.102   8.147   8.245 -0.0006 -0.0662  0.1996
27058W        W30278  10.131   6.029  12.245  0.1360  0.0600 -0.0749
27059W        W30279   8.174  11.016  13.488 -0.0132  0.1314  0.0531
27060W        W30280   7.791   9.781   1.382  0.0606  0.1739 -0.0551
27061W        W30281   3.473  11.636  11.509  0.0730 -0.0271 -0.1878
27062W        W30282  10.343  10.748  13.848 -0.0292  0.1372 -0.1941
27063W        W30283   8.574  10.966  14.970 -0.1338 -0.1862 -0.0250
27064W        W30284  10.903  14.945  14.579 -0.3635  0.0397  0.2099
27065W        W30285   1.509   6.407   1.035  0.1155 -0.0241 -0.1790
27066W        W30286  10.303  15.785  17.564 -0.0410 -0.0496 -0.0149
27067W        W30287   5.562   0.561  16.357 -0.3451 -0.1144  0.2343
27068W        W30288   2.247  10.764   6.471  0.1253 -0.1322 -0.0146
27069W        W30289  11.040  15.360   3.524  0.0551 -0.3114 -0.0080
27070W        W30290   8.823   2.465   7.181  0.2328  0.1299 -0.2581
27071W        W30291  11.183   7.485   1.773 -0.2725 -0.1501 -0.0126
27072W        W30292  10.876  15.127   9.320 -0.0197 -0.0930 -0.1229
27073W        W30293   7.170  14.057   7.750 -0.0052 -0.0518 -0.2088
27074W        W30294   5.905   7.104  14.200 -0.1527  0.2758 -0.3747
27075W        W30295   7.349  17.085  13.596  0.2801 -0.1156  0.0562
27076W        W30296   7.872  11.291   9.875 -0.1859 -0.0496  0.0139
27077W        W30297  13.588   5.780   8.958 -0.0435  0.0342 -0.1853
27078W        W30298  14.355  12.704  10.799  0.1641 -0.0191  0.1225
27079W        W30299   4.663  12.552  13.463  0.0405 -0.4085 -0.1123
27080W        W30300   5.038  16.219  14.701 -0.0168  0.2255  0.1591
27081W        W30301  10.870  17.139   9.941  0.1984 -0.2105 -0.3906
27082W        W30302  10.781  13.019   9.456  0.2111  0.3106  0.0944
27083W        W30303  16.042  13.335  12.182  0.0108 -0.4478  0.0254
27084W        W30304   8.372   7.998  14.012  0.0788  0.1467  0.1060
27085W        W30305  13.677   2.224  11.712 -0.2511 -0.2422 -0.0566
27086W        W30306  12.223  16.021  13.367 -0.0163  0.0769 -0.2041
27087W        W30307   7.517   7.059  13.816 -0.2679 -0.3216 -0.0012
27088W        W30308   5.244  17.406  17.144 -0.0088 -0.1153 -0.0493
27089W        W30309  12.772  11.939   9.137 -0.1031 -0.2012  0.1568
27090W        W30310   8.143  16.146  12.197  0.0954  0.1081 -0.1007
27091W        W30311   3.011  13.551   4.933 -0.0355 -0.0808 -0.2028
27092W        W30312   7.556  13.384  14.665  0.1677 -0.2532 -0.1505
27093W        W30313   7.307  12.921   6.957 -0.0373  0.3242  0.1337
27094W        W30314   4.431  17.915   9.311  0.0185  0.0254 -0.0230
27095W        W30315   5.535   9.547  11.240  0.1388 -0.5095 -0.2857
27096W        W30316   9.425  12.612   7.446  0.2451  0.0157  0.1540
27097W        W30317   9.713  14.209  12.998  0.2434  0.0261 -0.2860
27098W        W30318   8.140  16.935  10.589 -0.3590 -0.0944 -0.1454
27099W        W30319  10.673  15.522  15.432  0.2300  0.4185 -0.0352
27100W        W30320   6.652   6.476  14.340  0.1746  0.1094  0.1866
27101W        W30321   9.140  12.624   7.862  0.0676  0.0432  0.0979
27102W        W30322  17.380   0.555  15.611 -0.2318 -0.1451 -0.0403
27103W        W30323  14.110  11.450  10.309  0.0120 -0.1716  0.0351
27104W        W30324   8.109   6.014  10.954 -0.0157 -0.1594 -0.0347
27105W        W30325  11.470  13.018   9.826  0.1456  0.2186 -0.0274
27106W        W30326  10.320   0.780   8.550  0.1869  0.1424 -0.0606
27107W        W30327  14.979   9.519  15.531  0.1024 -0.1110 -0.3549
27108W        W30328  11.590   2.916  11.082  0.2128 -0.1708  0.3628
27109W        W30329  12.388  12.462  12.881  0.0841  0.2030  0.0000
27110W        W30330   6.594  10.985  17.132  0.1239  0.2038 -0.1569
27111W        W30331  13.457   7.460   2.441 -0.2397 -0.0542  0.2863
27112W        W30332   9.360   9.290  11.976  0.1399  0.1445 -0.1252
27113W        W30333   2.424  17.686  12.971 -0.1062  0.1287  0.1347
27114W        W30334   8.230   3.610   8.471 -0.0023 -0.2689 -0.3444
27115W        W30335   9.824   8.313  13.434 -0.2742 -0.5908  0.1698
27116W        W30336  13.386  14.470   0.963 -0.0377 -0.0732 -0.1095
27117W        W30337   7.980  15.339  12.835  0.1301 -0.1866  0.0064
27118W        W30338  12.914  11.193   9.693 -0.1157 -0.2032 -0.1531
27119W        W30339   9.841  12.601   0.193  0.1262  0.0304 -0.2082
27120W        W30340   5.246   4.879  14.604 -0.1585 -0.1408 -0.2802
27121W        W30341  15.956   5.743  10.159 -0.0486 -0.0722  0.0225
27122W        W30342   9.972  10.946  11.771 -0.0885  0.2574 -0.1195
27123W        W30343   6.598   2.031  16.419  0.0107 -0.2294  0.1466
27124W        W30344   9.792  10.900  12.415 -0.3234 -0.0907  0.2760
27125W        W30345   3.261  11.232   6.650 -0.3488 -0.1436  0.1930
27126W        W30346  13.829   7.297  12.852  0.0447  0.1350  0.2479
27127W        W30347  15.175  15.649  12.520  0.1005 -0.2391  0.0619
27128W        W30348   6.615  15.623  12.105 -0.2738  0.2803 -0.3502
27129W        W30349   5.904   2.812  15.549  0.0740  0.0139 -0.4608
27130W        W30350  12.238   9.496   7.802 -0.0548 -0.1139  0.0241
27131W        W30351   4.967   1.386  15.515 -0.1358 -0.0951  0.3454
27132W        W30352   8.418  10.088  11.523  0.0483  0.1367 -0.1899
27133W        W30353   6.550  11.070   7.749  0.2372  0.0790 -0.2018
27134W        W30354   9.776  17.838   6.116 -0.1613  0.3619  0.0089
27135W        W30355   0.666   1.263   8.532  0.0545 -0.1328 -0.2279
27136W        W30356   7.524  15.920  13.139  0.1318  0.2276 -0.0108
27137W        W30357   9.070   5.109  16.653  0.3322 -0.1975 -0.2462
27138W        W30358  10.870   9.830   8.930  0.0181  0.0796  0.1171
27139W        W30359   1.447  15.784  13.265  0.0102 -0.2468 -0.3497
27140W        W30360  12.622   4.019   0.949 -0.0742  0.3312  0.1774
27141W        W30361  10.378  15.156   1.476 -0.0882  0.0577 -0.3421
27142W        W30362   9.890   9.564   8.519 -0.1259 -0.0465 -0.2990
27143W        W30363   4.639  12.337  14.369  0.0016 -0.1393  0.0182
27144W        W30364   7.412   3.524   7.283 -0.0683 -0.1246 -0.1649
27145W        W30365  11.805  11.905  11.121  0.0734  0.2055 -0.2246
27146W        W30366   8.082   8.804  13.674 -0.2384  0.4660 -0.2803
27147W        W30367   9.713  12.691   4.274 -0.1137  0.2026  0.0563
27148W        W30368   4.320   9.574   9.490 -0.0374 -0.1460  0.0639
27149W        W30369   4.265  14.698   1.697 -0.1776 -0.0355  0.4073
27150W        W30370   7.472  14.305   8.122  0.1354  0.0772 -0.0018
27151W        W30371   7.457   8.775  17.568  0.2750  0.0810 -0.0473
27152W        W30372   9.596   8.826  15.608  0.0002 -0.0061  0.0901
27153W        W30373   4.485  11.851  10.565 -0.2402 -0.1559  0.2367
27154W        W30374   1.889  16.486  14.160  0.4068  0.1043 -0.3844
27155W        W30375   3.475  11.324   8.922 -0.0091 -0.1371 -0.1843
27156W        W30376  10.515  14.312  11.752 -0.2934 -0.5265  0.0445
27157W        W30377   9.354   0.922  11.844 -0.0966 -0.2435  0.0396
27158W        W30378   6.352  15.268   9.324  0.2118 -0.1407  0.0000
27159W        W30379   6.999  14.177   9.562 -0.0209 -0.0187 -0.2547
27160W        W30380  12.820  15.376  12.882 -0.1384  0.1453  0.1102
27161W        W30381  10.096  14.922   8.665  0.1760  0.1976  0.2610
27162W        W30382   7.969  10.705  12.857  0.1228 -0.1818 -0.0658
27163W        W30383   5.286  10.300  10.028 -0.0160  0.3056 -0.0528
27164W        W30384   9.447  11.829  12.578  0.1428 -0.1057  0.1194
27165W        W30385   4.891   8.401  11.459 -0.1557  0.2292 -0.0600
27166W        W30386  16.201  11.372   7.226  0.0693  0.2357 -0.0189
27167W        W30387   0.660  15.200   9.109 -0.3752  0.1413  0.0485
27168W        W30388  13.032   2.464   9.289  0.0743 -0.1672  0.1362
27169W        W30389   7.770   9.288   6.662 -0.0031 -0.0423 -0.0500
27170W        W30390  12.254  15.072  12.044 -0.0626 -0.0808  0.0854
27171W        W30391  12.083   7.780   0.650 -0.4618  0.0370  0.0292
27172W        W30392   3.911  12.040  13.114  0.3880 -0.0543  0.0555
27173W        W30393   9.362   8.242  10.131  0.1492  0.3079  0.0268
27174W        W30394   6.593   0.614  11.789 -0.2600 -0.0280 -0.1985
27175W        W30395  11.024  15.887  10.602  0.2337  0.0772 -0.0655
27176W        W30396  12.195   7.439  14.262 -0.1485 -0.1853 -0.1190
27177W        W30397   9.315   3.807  15.794 -0.3018 -0.0500 -0.1838
27178W        W30398  11.769  17.843   3.344  0.0915 -0.0232 -0.2329
27179W        W30399   9.632  11.271   8.539  0.1157 -0.0045 -0.0684
27180W        W30400  10.934  17.549   7.386 -0.0192  0.2452  0.0326
27181W        W30401   9.544  15.549  17.330  0.0977  0.1875 -0.0574
27182W        W30402  14.074   9.242   9.572 -0.0972 -0.0219 -0.1525
27183W        W30403   7.074  10.524  11.137  0.1098 -0.2485 -0.2202
27184W        W30404   9.435  14.662  12.214  0.0415  0.0455 -0.0744
27185W        W30405   0.538   9.301  14.290  0.1680 -0.4285 -0.2960
27186W        W30406   7.604  17.298  11.269  0.3292 -0.0513 -0.1921
27187W        W30407   9.805   2.289   6.500  0.4426  0.3894  0.0505
27188W        W30408  10.735   0.636   8.278 -0.1045 -0.0724 -0.0778
27189W        W30409   7.382   4.775  13.218 -0.4140  0.0965  0.1704
27190W        W30410   8.994  15.377  15.892 -0.3455  0.0794 -0.0240
27191W        W30411   6.747  15.579  16.139  0.2357 -0.0561  0.1915
27192W        W30412  13.081  16.261  16.750  0.0191  0.1258 -0.1183
27193W        W30413  11.636  11.406  15.026  0.1233 -0.3568  0.4953
27194W        W30414   7.767   8.604  15.299 -0.1128 -0.1817  0.3581
27195W        W30415  11.461   0.986  11.700  0.1637  0.0306  0.1192
27196W        W30416   8.436   8.295  12.262 -0.0399 -0.0206  0.0607
27197W        W30417   2.700   6.960  14.228 -0.0517 -0.2280 -0.1972
27198W        W30418   6.256  17.401   8.508  0.0276 -0.0856 -0.3823
27199W        W30419   5.794  15.522  11.431 -0.5120  0.1030  0.2596
27200W        W30420   6.653  12.142   9.675 -0.2373 -0.2554 -0.1441
27201W        W30421   8.440  14.829   1.503  0.0733  0.0321 -0.0150
27202W        W30422  11.512  10.297   4.319  0.0787 -0.0760  0.2860
27203W        W30423  11.828   8.900  10.033 -0.1923 -0.2833 -0.0687
27204W        W30424   5.348  15.032  11.946  0.1337 -0.1869  0.2140
27205W        W30425   9.402  14.230  12.625 -0.0322 -0.0278  0.1413
27206W        W30426   5.178  11.998  17.875  0.2611  0.1103 -0.3454
27207W        W30427   8.761  14.604   6.843  0.1736 -0.1273 -0.1119
27208W        W30428   0.947  12.505  14.153 -0.0044  0.0395 -0.2192
27209W        W30429  11.512  13.294  11.926  0.0198  0.0012 -0.1699
27210W        W30430   2.365   9.735  13.072 -0.1745 -0.1698 -0.0847
27211W        W30431   0.104   0.422  16.050  0.0945  0.0746  0.1394
27212W        W30432   7.790  18.106  11.746  0.0132 -0.3069  0.2551
27213W        W30433  11.733   7.579  11.923 -0.0076  0.0130  0.0389
27214W        W30434  12.957  17.212  11.255 -0.1326  0.5851 -0.0512
27215W        W30435   9.391  17.023  15.925  0.4534  0.0020 -0.1409
27216W        W30436  12.140  15.403  13.310 -0.2728 -0.0201 -0.0081
27217W        W30437   6.260   8.453   3.397  0.1211  0.0643 -0.1495
27218W        W30438   7.522  10.569  15.833 -0.2732  0.4220 -0.0997
27219W        W30439   4.098  11.316   3.733  0.1117 -0.2425 -0.1040
27220W        W30440   6.150   1.338  14.894 -0.1368 -0.1950 -0.1530
27221W        W30441   7.572  15.041  14.252  0.2732  0.1627 -0.1515
27222W        W30442   9.815   2.634  17.033  0.1035  0.1035 -0.3556
27223W        W30443   5.817  10.946   1.208 -0.1921 -0.0367 -0.4269
27224W        W30444  15.233  12.774   1.835  0.1681  0.2050 -0.1462
27225W        W30445   6.897  13.129  17.021  0.0945 -0.0803  0.3257
27226W        W30446  11.126   8.766   8.937 -0.3266  0.0703 -0.0323
27227W        W30447   3.223  15.078  12.043 -0.0842 -0.0495  0.1345
27228W        W30448   9.691   8.221  15.873  0.1453 -0.1550  0.2247
27229W        W30449   5.972  17.177   1.083  0.2590  0.1737  0.0403
27230W        W30450   4.538   3.698  11.924 -0.1687 -0.0023  0.0223
27231W        W30451   7.689  13.689  17.192  0.0304 -0.1230  0.1222
27232W        W30452  11.710   8.473   1.188  0.0039  0.0064 -0.0776
27233W        W30453   8.889   4.455  11.778  0.0537  0.0352  0.1242
27234W        W30454  10.084  17.593   1.034  0.0982 -0.1232 -0.0140
27235W        W30455  10.173  11.429  16.268  0.1575  0.2350  0.1883
27236W        W30456  12.995  14.212  16.643 -0.1881 -0.0395  0.5142
27237W        W30457  16.319   9.887  17.095  0.0495  0.0654  0.1389
27238W        W30458   6.942   9.718  13.491  0.2060 -0.0851  0.3217
27239W        W30459   5.018  16.027   5.859 -0.2557  0.1430 -0.1910
27240W        W30460  11.923  15.582  15.720  0.2574  0.1991  0.0780
27241W        W30461   4.133   1.271  15.253  0.0207 -0.4441  0.3403
27242W        W30462   5.989  15.137   0.802  0.0396  0.1725 -0.0913
27243W        W30463  10.554  17.875  15.133  0.1948  0.1993 -0.0200
27244W        W30464   4.129   9.752  13.977 -0.1303 -0.0249 -0.1028
27245W        W30465   6.371  16.346   7.074 -0.0325 -0.0265 -0.2704
27246W        W30466   7.133  12.414   1.327 -0.1093  0.0517  0.1236
27247W        W30467  11.000  13.651   5.174 -0.1989 -0.0127 -0.2520
27248W        W30468  18.183  15.361   3.813 -0.3185  0.0197  0.0380
27249W        W30469  10.692  12.462  11.183  0.4547  0.1742 -0.2066
27250W        W30470   8.780  12.666  18.092  0.0432  0.0256  0.1571
27251W        W30471   6.533  12.421  11.377  0.0103 -0.5153  0.1666
27252W        W30472   5.253  11.526   1.526 -0.3179 -0.0884  0.1150
27253W        W30473  12.317   9.483   1.402 -0.3700  0.2336  0.0910
27254W        W30474  14.684  11.624   1.659 -0.1762  0.0969  0.0725
27255W        W30475  10.894   1.558  16.499  0.2829  0.0842  0.3689
27256W        W30476  15.549  18.260  12.916 -0.0795  0.0287 -0.0821
27257W        W30477  14.426   9.404  12.805 -0.2492 -0.0977  0.0520
27258W        W30478   9.816  11.476   0.308  0.4181 -0.1107  0.0526
27259W        W30479  13.861  11.306   4.901 -0.0168 -0.1969 -0.1957
27260W        W30480  14.039   7.845   2.229 -0.3151 -0.1667 -0.1157
27261W        W30481   9.724  12.882   9.465  0.2316  0.4514 -0.0147
27262W        W30482   5.532   3.956   4.075  0.0519 -0.0632  0.1393
27263W        W30483   7.624   9.329  11.676 -0.0965 -0.0650 -0.0369
27264W        W30484   8.842  16.642   7.116 -0.0992  0.2494  0.0423
27265W        W30485   8.542  11.848  12.798 -0.0677 -0.0633  0.3073
27266W        W30486   3.554  13.313  17.079  0.0905 -0.1944 -0.0927
27267W        W30487  10.376  16.684  11.180  0.2175 -0.2882 -0.0426
27268W        W30488   7.831   8.788   4.100 -0.0924  0.0082  0.2075
27269W        W30489   6.086  12.606  14.521  0.0110 -0.1887 -0.2177
27270W        W30490   4.305   3.338  12.165  0.0520 -0.2681 -0.1505
27271W        W30491  10.382  17.919   0.609 -0.0504  0.1539 -0.1356
27272W        W30492   9.615   7.444  13.446 -0.0425  0.1868  0.0230
27273W        W30493   7.147  15.212  15.371 -0.1978  0.1809 -0.0916
27274W        W30494   3.878  16.796  10.247 -0.2784  0.0423 -0.1179
27275W        W30495   9.834   8.914   0.857 -0.0976  0.0948 -0.0212
27276W        W30496   8.151  14.730  12.986  0.2012  0.3463  0.2025
27277W        W30497  11.787   5.985   8.985  0.1123 -0.0197  0.2966
27278W        W30498   3.597  10.777  13.449  0.0166 -0.5346  0.1194
27279W        W30499   3.282   2.979  14.047 -0.2256  0.0632 -0.4572
27280W        W30500   4.030  16.362   2.522 -0.0121  0.1988 -0.0029
27281W        W30501   3.226  15.385  16.377  0.1544  0.0376 -0.2555
27282W        W30502  11.477  16.661   0.462 -0.0591 -0.1064 -0.2484
27283W        W30503   5.805  10.627  16.865 -0.0164 -0.2748 -0.1122
27284W        W30504   4.964  15.233  14.435 -0.0539 -0.2419  0.0103
27285W        W30505  11.193   9.358  17.149  0.0741 -0.2213 -0.2153
27286W        W30506  12.167  16.287  15.677  0.0570 -0.0313 -0.0293
27287W        W30507   7.677  14.211   3.494 -0.0749 -0.0307 -0.1522
27288W        W30508   8.426  10.386   3.701  0.0558 -0.0536  0.0794
27289W        W30509  11.445  16.812  16.980  0.1874  0.2709 -0.1653
27290W        W30510  10.545  13.087   9.956  0.2012  0.2085 -0.2993
27291W        W30511   6.560  10.624  16.149 -0.1930  0.0828 -0.1466
27292W        W30512   8.971  15.786  12.055 -0.1915  0.0266  0.2315
27293W        W30513  10.980   6.110   1.852  0.3705  0.3227 -0.2199
27294W        W30514  10.171  12.226   4.965 -0.0460 -0.0735 -0.2311
27295W        W30515   4.205   9.761   1.140  0.2323 -0.0349 -0.0071
27296W        W30516  12.748  10.446  17.810  0.0376 -0.1203 -0.1886
27297W        W30517   5.631  15.201  16.673  0.1504  0.2030  0.0688
27298W        W30518   8.174  13.664   0.612  0.0775 -0.1658 -0.2222
27299W        W30519  14.553  11.961   6.938  0.1626 -0.1693  0.0452
27300W        W30520   7.843  12.937   1.631  0.2798  0.0792  0.1689
27301W        W30521   7.565   9.906  14.533 -0.0070  0.1731 -0.0558
27302W        W30522  11.925  10.338   7.667 -0.0991 -0.1350  0.0470
27303W        W30523   7.885   5.310   1.227  0.0217  0.0789  0.3281
27304W        W30524  12.511  16.584  17.139  0.1282  0.1544  0.2338
27305W        W30525   0.612  15.079  14.336 -0.3986  0.0492  0.0546
27306W        W30526  11.997  12.638  11.620 -0.0413  0.0422  0.1348
27307W        W30527   4.352  17.198   3.543 -0.0484  0.0162  0.0431
27308W        W30528  11.017   8.048  13.207  0.3069  0.3470  0.2177
27309W        W30529   7.695  13.952   5.966  0.1693 -0.1331  0.0505
27310W        W30530   9.688   7.800  17.199  0.0944  0.1214  0.1452
27311W        W30531  13.581  13.999   2.482 -0.0951  0.2606 -0.1604
27312W        W30532  13.930  12.158   9.903 -0.2112  0.2621  0.0042
27313W        W30533   4.981  16.359  15.178  0.1426 -0.2967 -0.0091
27314W        W30534   5.537   5.502  15.450 -0.3675  0.3983  0.0851
27315W        W30535  17.026  14.589   2.304 -0.0380  0.1373  0.1965
27316W        W30536   9.667  10.294   0.587 -0.4696  0.0645  0.4136
27317W        W30537   7.495  16.313   7.764  0.1539 -0.0475  0.1195
27318W        W30538  15.309  11.600  13.320  0.0745  0.3124 -0.0692
27319W        W30539  15.077   4.867  13.530 -0.1262  0.0970 -0.0123
27320W        W30540   2.176  12.710  17.190  0.0980  0.0538  0.1896
27321W        W30541   6.707  10.119   0.196  0.0017  0.1383  0.0335
27322W        W30542  10.234   8.436  15.213  0.0525  0.5029 -0.1676
27323W        W30543  11.023  15.501  16.435 -0.0136  0.5113 -0.1438
27324W        W30544   7.579   9.109  14.313 -0.0329  0.1045 -0.1635
27325W        W30545  14.160  15.088   0.245 -0.0177 -0.0461  0.1520
27326W        W30546   6.774  12.809   6.714  0.4122  0.1792  0.1593
27327W        W30547   3.765  13.066   1.570  0.0255 -0.1020 -0.0614
27328W        W30548  12.017  10.873   4.158  0.2002 -0.1142  0.0803
27329W        W30549   9.993   1.780  18.115  0.0155  0.1623 -0.1432
27330W        W30550   9.069   8.343   1.759 -0.2677  0.1873  0.0797
27331W        W30551   9.532  10.131  16.691 -0.2658  0.2525 -0.0868
27332W        W30552   5.749   3.861  12.764 -0.0822 -0.1229  0.0776
27333W        W30553   5.873  16.718  17.706  0.0964  0.0690 -0.0361
27334W        W30554  13.786  12.485  12.312  0.0019  0.2605 -0.0709
27335W        W30555  14.534  13.146  14.657  0.1040  0.1986 -0.0917
27336W        W30556   9.860   6.318   9.160 -0.0874  0.0244  0.0186
27337W        W30557   6.363  15.509   0.216  0.1055 -0.1744  0.1683
27338W        W30558   6.119  12.214   7.929  0.0889  0.0964 -0.0635
27339W        W30559   7.942   8.142  16.144  0.1623 -0.0724 -0.1051
27340W        W30560  12.022   8.667   0.811  0.2911  0.2469  0.0691
27341W        W30561   6.267  10.613  17.984  0.0559 -0.0933 -0.0656
27342W        W30562  14.896   9.233   6.002 -0.2933  0.0427 -0.0184
27343W        W30563  10.664  13.847  15.597 -0.0642  0.0766 -0.1054
27344W        W30564   8.106  11.528  14.773  0.2815 -0.0717  0.0663
27345W        W30565  11.392  12.678  17.210  0.1305 -0.0344 -0.1136
27346W        W30566   3.978   7.824  10.828 -0.1980 -0.1997  0.2059
27347W        W30567  10.038   6.944  10.098  0.0898 -0.1887 -0.1847
27348W        W30568   9.119  16.217   8.287  0.1166  0.2496 -0.0460
27349W        W30569   3.627   4.356   0.306 -0.0251 -0.1841 -0.1016
27350W        W30570   7.201  15.120  18.120 -0.2085 -0.1872  0.0401
27351W        W30571  12.984  10.788   0.651  0.1213 -0.0493 -0.2264
27352W        W30572   5.387  13.738   8.341  0.1648 -0.1558 -0.2693
27353W        W30573   8.387   2.766  17.197  0.0399 -0.0191 -0.4047
27354W        W30574  12.837   9.863  12.222  0.0654  0.1177 -0.1690
27355W        W30575   9.160  13.713   9.166 -0.1829 -0.2562  0.3139
27356W        W30576   3.581  10.239   4.761  0.2376  0.1909 -0.0223
27357W        W30577   6.492  10.306   3.745 -0.1239 -0.0965 -0.0605
27358W        W30578  11.543  17.719   8.220 -0.2099 -0.1669  0.1171
27359W        W30579   4.981  15.772   1.633 -0.0976 -0.1690 -0.1071
27360W        W30580  12.553  10.933   1.033  0.1530  0.0716 -0.1272
27361W        W30581   8.730  16.412   0.760  0.0223 -0.0646  0.3481
27362W        W30582  12.677  11.083   1.844 -0.1015  0.0112  0.1617
27363W        W30583   9.148  14.501   7.160  0.3831  0.0647  0.3050
27364W        W30584  14.285  11.935   0.732  0.1294  0.0081 -0.1318
27365W        W30585  10.696  10.975  14.088 -0.0196  0.2976  0.0160
27366W        W30586   1.666  17.459  14.216  0.0494  0.2405  0.0782
27367W        W30587   8.040   8.028  12.103  0.0983 -0.1796  0.2289
27368W        W30588   7.779  10.436  15.413  0.1631 -0.4716  0.2537
27369W        W30589  12.271  15.663  15.254  0.0615  0.0856  0.1790
27370W        W30590   8.896   9.954   2.482  0.0792  0.0498 -0.2172
27371W        W30591   2.987   8.063   7.481  0.4109 -0.0213 -0.2412
27372W        W30592   9.943  11.471  14.078  0.1556  0.0207  0.1483
27373W        W30593   4.896  12.886  12.275 -0.3278 -0.0927  0.0581
27374W        W30594   9.644   9.756   0.696 -0.0411  0.0946 -0.2107
27375W        W30595  14.042  12.055  17.512 -0.1427  0.1312  0.0363
27376W        W30596   6.868   5.295  16.851 -0.3357  0.1642 -0.0123
27377W        W30597   4.509  10.420  16.891 -0.0352 -0.1974  0.1500
27378W        W30598   7.201   5.601  15.591  0.1315  0.2363 -0.0825
27379W        W30599  11.502  17.014   0.119  0.2006  0.0843 -0.1656
27380W        W30600   4.979  14.521   5.556 -0.1565 -0.2692  0.0097
27381W        W30601   8.385  12.319  14.054 -0.1122 -0.0654  0.0969
27382W        W30602   6.323   8.993   1.210 -0.0847 -0.0883  0.0687
27383W        W30603   6.427   4.438   9.616  0.2017  0.1168 -0.0195
27384W        W30604   5.268  10.915  14.751 -0.0603  0.0507  0.3514
27385W        W30605   8.502  15.674  10.102  0.0325  0.2533  0.1138
27386W        W30606   2.090  15.662  10.841  0.0873 -0.0780 -0.1520
27387W        W30607  18.247   0.256   1.619 -0.1295  0.2304  0.0036
27388W        W30608   9.764   3.109   2.540 -0.1950  0.0507 -0.0036
27389W        W30609   7.967  14.366  16.003  0.1364  0.1076  0.0547
27390W        W30610   6.984  12.045  10.024  0.0360  0.1639 -0.1918
27391W        W30611  16.514   8.461   4.495  0.0784 -0.0417 -0.1072
27392W        W30612   3.963  18.182  17.270 -0.1021 -0.2627  0.0519
27393W        W30613   5.519   2.640  10.926 -0.0865 -0.0665  0.0361
27394W        W30614  12.974   7.381   0.502  0.2709  0.2868  0.1793
27395W        W30615   7.691  11.910   0.191 -0.3649  0.0116 -0.2554
27396W        W30616   8.149  12.134  15.724 -0.1805 -0.1808 -0.1020
27397W        W30617   9.532   9.308   4.959 -0.0554 -0.0590 -0.0542
27398W        W30618   6.695   8.969  12.601 -0.0325 -0.0008 -0.4453
27399W        W30619   5.629   3.685  14.280 -0.2029  0.1337  0.0729
27400W        W30620  17.992   8.503  15.407  0.0992 -0.0299  0.0198
27401W        W30621  17.444  14.436  17.764 -0.3207  0.2566 -0.4492
27402W        W30622   1.336  16.301  11.872  0.3795 -0.0152 -0.1776
27403W        W30623  11.008   9.504  10.656 -0.0786 -0.0743  0.1514
27404W        W30624  15.844  13.081  14.354  0.2233 -0.2507  0.1365
27405W        W30625   9.466  10.213   5.279 -0.3920  0.0772 -0.0534
27406W        W30626  11.011   9.333   0.506 -0.1263  0.1265  0.1653
27407W        W30627   9.184   7.029  13.225 -0.0116  0.1942 -0.1058
27408W        W30628   8.201  14.848  18.105 -0.2493  0.0164  0.0574
27409W        W30629   9.911   8.554  11.581  0.1470  0.0013 -0.0104
27410W        W30630   5.407  11.106  13.493  0.0567  0.1846 -0.3308
27411W        W30631  13.162  11.372   0.693  0.1998  0.0228  0.1312
27412W        W30632   0.400  16.402   2.547  0.0238  0.2543  0.3607
27413W        W30633  10.343   9.838  12.900  0.1593  0.1943 -0.1734
27414W        W30634   7.476   2.784   2.686 -0.0298  0.3540 -0.1690
27415W        W30635   6.137   9.552  14.726  0.3022 -0.0085 -0.0356
27416W        W30636   6.273  15.142   1.208 -0.1255  0.0826  0.1833
27417W        W30637  12.392  17.742   0.490  0.0946  0.1012  0.2535
27418W        W30638   7.648   7.368  11.409  0.0937  0.2279 -0.1902
27419W        W30639   4.609  12.655   0.167  0.2533 -0.1744  0.0152
27420W        W30640   6.084   7.949   9.493 -0.4358  0.4304 -0.1530
27421W        W30641   9.122  17.935   6.817  0.0704  0.0090 -0.2225
27422W        W30642   7.532  15.198  16.270 -0.2011  0.0519 -0.1566
27423W        W30643   8.779  14.105  17.807  0.0782  0.2314  0.4141
27424W        W30644   7.463  15.644   0.268  0.0655  0.6012  0.1368
27425W        W30645   2.896  10.417   2.674 -0.2611 -0.0212 -0.0197
27426W        W30646   8.749  12.828   1.734 -0.2333  0.1532  0.0538
27427W        W30647  12.467  14.482  17.735 -0.2284  0.1095  0.0462
27428W        W30648  15.419   8.309  13.162  0.0419  0.0061  0.1849
27429W        W30649   7.513  11.591  15.952  0.0318  0.1555 -0.2345
27430W        W30650  18.120  13.760  10.551  0.0447 -0.0372  0.2255
27431W        W30651   8.655  18.125  18.187  0.0258 -0.0301  0.0884
27432W        W30652   9.277  15.207  15.542 -0.0879  0.0755  0.0254
27433W        W30653  13.338  16.471  15.830  0.1465  0.2551  0.2537
27434W        W30654  12.299  12.048  10.680  0.0299 -0.3333 -0.2162
27435W        W30655   8.978  15.515   4.960 -0.0069  0.1546 -0.0260
27436W        W30656   5.152  17.352  14.765  0.1912 -0.0300 -0.2642
27437W        W30657   8.024   8.291   5.507 -0.0497  0.2092 -0.0688
27438W        W30658  14.701  10.020   4.707 -0.0796 -0.4191  0.0093
27439W        W30659   4.680   9.445  15.777  0.2082 -0.0864 -0.1022
27440W        W30660  14.853  15.171   0.870  0.3557 -0.0891 -0.1815
27441W        W30661   0.109   9.932  12.918 -0.0481  0.2726  0.0841
27442W        W30662  16.234   8.559  10.727 -0.2627  0.2222 -0.1436
27443W        W30663  11.648   9.736  13.646  0.1105 -0.2683 -0.0236
27444W        W30664  11.948   1.538  17.982  0.0032 -0.0127  0.1699
27445W        W30665   7.557  11.143  16.780  0.3004  0.1307 -0.4629
27446W        W30666   4.751   6.807  10.864 -0.0191 -0.1745  0.0353
27447W        W30667   4.198  17.928  16.451  0.2327  0.0968 -0.3529
27448W        W30668  15.288  13.062  11.031  0.0229  0.0591 -0.3138
27449W        W30669  12.577  13.425  16.601 -0.1052  0.4270  0.0874
27450W        W30670  12.804  15.973  12.044  0.0195  0.1009 -0.3283
27451W        W30671  13.841   6.462  17.743  0.0116 -0.0179 -0.2632
27452W        W30672   2.939   9.019   7.577  0.0075 -0.2840  0.0356
27453W        W30673  13.868  12.967  16.799 -0.2775 -0.3659  0.1598
27454W        W30674  12.685  14.588  11.652 -0.1006  0.0940  0.0632
27455W        W30675  17.611   1.233  15.363  0.0679 -0.3622 -0.1906
27456W        W30676  13.157  14.724  17.793  0.2645 -0.1223 -0.0230
27457W        W30677   7.987  11.727  16.091  0.1072  0.1161 -0.0446
27458W        W30678   2.651   9.383   0.267  0.0808 -0.5024  0.0141
27459W        W30679   6.355  13.756  13.026  0.0357 -0.0730 -0.0227
27460W        W30680  11.925  15.289   3.246 -0.3425 -0.0301  0.0456
27461W        W30681   9.146  13.625   0.316 -0.2359 -0.2334 -0.0820
27462W        W30682   9.647  11.353  15.739  0.3556 -0.2341 -0.3555
27463W        W30683  10.929   2.370  15.536  0.2372 -0.0058 -0.0172
27464W        W30684  11.076   1.402   1.219  0.2541  0.0037  0.0382
27465W        W30685  16.401   1.736  17.034 -0.0004 -0.2133  0.0794
27466W        W30686  11.700  11.016  18.087  0.1533 -0.1993 -0.0724
27467W        W30687  13.291   0.838  14.859  0.0021 -0.1390 -0.1686
27468W        W30688  11.359  15.657   8.077 -0.3411 -0.3888 -0.0779
27469W        W30689   4.449  11.878  13.011 -0.0775 -0.0230  0.2188
27470W        W30690  10.677  17.069   0.267 -0.0465 -0.1767  0.0071
27471W        W30691   8.935   2.739  10.010 -0.0252 -0.2232  0.0650
27472W        W30692   9.928   3.027   3.413 -0.2723  0.4379 -0.0765
27473W        W30693   2.291   5.587  17.049 -0.0380  0.0345  0.0576
27474W        W30694   8.717  11.008   6.414 -0.0691 -0.1250  0.3629
27475W        W30695  13.512  10.739  12.640 -0.0671 -0.0797  0.0625
27476W        W30696   8.575  11.822  13.925 -0.1473 -0.0476  0.2077
27477W        W30697  14.218  12.299  11.609  0.3436 -0.2252 -0.0120
27478W        W30698   4.296  16.639   9.924  0.2758  0.0464 -0.1408
27479W        W30699   9.789   1.407   9.809 -0.0441  0.2813 -0.3854
27480W        W30700   7.648   7.156   1.920  0.2929 -0.1503  0.0896
27481W        W30701  10.674   6.810  13.847 -0.3884 -0.0217 -0.3437
27482W        W30702  13.865  14.308   3.242 -0.2521  0.0901  0.2124
27483W        W30703   5.471   8.776   1.660  0.1311 -0.1884  0.1806
27484W        W30704   7.075   9.787   3.044 -0.2811  0.0740  0.1215
27485W        W30705   1.472   6.956   1.986  0.1190  0.2989  0.0122
27486W        W30706  11.259   2.217  14.674  0.0570  0.3346 -0.0582
27487W        W30707   6.562   7.173   2.061  0.1937  0.1139 -0.2224
27488W        W30708   2.713  13.284   7.774 -0.0301  0.2739 -0.3171
27489W        W30709  10.579  10.597  12.480  0.2259  0.1923 -0.3246
27490W        W30710   4.230   1.492   2.709  0.2335  0.1409 -0.2451
27491W        W30711  14.198  10.535  10.456  0.3257  0.2454 -0.0517
27492W        W30712  10.525   7.592   2.935 -0.2306  0.1945 -0.0572
27493W        W30713  12.467  16.448   0.204  0.3047 -0.0100  0.1057
27494W        W30714   7.703   9.454   0.442  0.1051  0.0417  0.2396
27495W        W30715  16.798  11.625  15.344  0.2422 -0.1428 -0.1833
27496W        W30716   0.903  11.929  13.230  0.0231  0.1479 -0.0841
27497W        W30717  10.112   9.467   1.467  0.0752  0.1293 -0.1126
27498W        W30718   5.312  15.901  17.800  0.0885  0.4294  0.0332
27499W        W30719   9.436  14.750  15.691 -0.1888  0.0639  0.1920
27500W        W30720   9.412  13.786   5.367  0.2662 -0.2448 -0.3004
27501W        W30721   9.161  10.939  15.816 -0.1061  0.3351 -0.0219
27502W        W30722  10.957  10.600  15.601 -0.0522  0.0617 -0.1632
27503W        W30723  13.461   5.036  10.633 -0.1363 -0.4022 -0.2063
27504W        W30724   9.649  12.042  13.066 -0.0981  0.0047 -0.1084
27505W        W30725  12.851  12.444  14.815  0.1550 -0.0259 -0.0958
27506W        W30726   9.948  11.017  15.325 -0.1577  0.1321  0.0564
27507W        W30727   9.175  13.006  17.411 -0.0744 -0.2023  0.2370
27508W        W30728  12.371   2.707   1.354  0.1597  0.3572  0.1088
27509W        W30729  17.609   4.336   0.557  0.1274  0.2631  0.1261
27510W        W30730   1.046   9.637  11.412  0.2698 -0.3579  0.0495
27511W        W30731  10.568   4.745  17.122 -0.1807 -0.0826 -0.0811
27512W        W30732   6.589  14.232  14.607  0.1089  0.0749 -0.0815
27513W        W30733  10.565   5.133   9.607  0.0205  0.2769  0.0839
27514W        W30734  13.584  13.126  17.152  0.1213 -0.0112 -0.0912
27515W        W30735   4.777  13.578  13.938  0.2028  0.2165  0.0056
27516W        W30736   3.800  17.189  14.258 -0.1438 -0.1128  0.1907
27517W        W30737  10.742  10.223  12.783 -0.1558  0.3229 -0.1702
27518W        W30738   9.509   2.094  14.268  0.3539 -0.0294  0.1183
27519W        W30739   7.184   8.865  12.942 -0.1637 -0.1363  0.3179
27520W        W30740  13.951  16.596   3.313 -0.0443 -0.3137  0.1434
27521W        W30741   5.577  17.692  11.483  0.1017  0.0290 -0.1367
27522W        W30742   6.749  12.631  16.391 -0.0505 -0.0279  0.3522
27523W        W30743   2.982  12.128  13.533  0.2749  0.0196 -0.0156
27524W        W30744  13.523  11.219  16.902 -0.0680 -0.1183 -0.0469
27525W        W30745  14.167  14.783  16.296 -0.2173  0.1593 -0.2482
27526W        W30746   3.213   9.135  12.578  0.1584 -0.0116  0.0072
27527W        W30747   6.510  11.542   0.680 -0.1968 -0.3683 -0.1445
27528W        W30748   8.306  15.904  10.954  0.0059 -0.2838 -0.0225
27529W        W30749  10.417  16.707   2.016  0.1343 -0.0786  0.1073
27530W        W30750  10.085  17.095  13.274  0.1765 -0.3578  0.1548
27531W        W30751   3.651  10.501  12.105  0.3709  0.0725 -0.0599
27532W        W30752   6.610   0.798  14.040  0.0528  0.0935 -0.1268
27533W        W30753   7.655  14.419   1.701 -0.0792 -0.0262  0.5110
27534W        W30754   0.982   6.472  15.343 -0.1931  0.0710 -0.1617
27535W        W30755  10.471   8.547   1.549 -0.0644  0.2565 -0.1437
27536W        W30756  13.075  10.541  10.461 -0.0741 -0.1330  0.2298
27537W        W30757   8.859  15.345  13.999  0.1708 -0.3806  0.0872
27538W        W30758   4.860  11.005  15.093 -0.2631  0.0118  0.1371
27539W        W30759  12.293  12.826  17.265 -0.1261  0.0443  0.2456
27540W        W30760  11.561   9.863   3.457  0.1079 -0.0125  0.1129
27541W        W30761   8.260   7.645   0.878  0.2284  0.0160 -0.2118
27542W        W30762   0.209  13.777  17.906 -0.1391 -0.0819  0.0525
27543W        W30763  12.413   5.458  12.773  0.2330  0.1708  0.0089
27544W        W30764  17.517   7.488  13.203 -0.1475 -0.0567  0.0934
27545W        W30765   5.841  13.125  14.719  0.3100  0.0620 -0.1058
27546W        W30766  12.561  11.189  12.288  0.0553  0.2214  0.2914
27547W        W30767   6.108  12.504  11.615 -0.2011 -0.1247  0.2014
27548W        W30768   5.545  12.131   1.866 -0.2527 -0.0410  0.1995
27549W        W30769   8.862   9.192   0.558 -0.3754  0.3304 -0.1354
27550W        W30770  14.658   7.300   8.323 -0.1288 -0.2144  0.0549
27551W        W30771   6.312  16.524  15.287  0.1999  0.0735  0.0582
27552W        W30772  11.714  13.074  14.912 -0.0900  0.2229  0.0290
27553W        W30773   9.718  10.208  13.572  0.2652 -0.2165  0.0933
27554W        W30774  13.565   1.163  17.430  0.2318  0.1091 -0.1883
27555W        W30775  17.648   0.893   4.292  0.1386 -0.2165 -0.5537
27556W        W30776   1.062  13.450  15.809  0.0399  0.0470  0.1689
27557W        W30777  10.166  12.525  15.309  0.0683  0.2646 -0.0472
27558W        W30778   7.482   3.599  10.695 -0.2473  0.1947  0.1455
27559W        W30779  14.155   2.508   2.334  0.0315 -0.0193  0.3085
27560W        W30780   4.964   9.552  17.080 -0.1258 -0.2590 -0.2094
27561W        W30781  10.798   8.314   8.047 -0.0813  0.0992  0.0204
27562W        W30782   6.243  10.841  12.335 -0.0517  0.2653  0.1346
27563W        W30783   7.235   5.015   7.743  0.0112  0.0868 -0.0960
27564W        W30784  17.262  15.584   8.652  0.3891 -0.2884  0.0767
27565W        W30785   3.608  15.131  17.203  0.3119  0.0061 -0.1542
27566W        W30786  12.322  13.320  15.755 -0.1427 -0.0719 -0.2040
27567W        W30787   3.638   2.174   0.230  0.1942 -0.0558 -0.2192
27568W        W30788  13.304   1.450  15.401  0.2153 -0.1239 -0.1228
27569W        W30789  12.678   1.837  12.428 -0.0936 -0.2081  0.0770
27570W        W30790  15.968  15.147   0.086 -0.1323  0.2860 -0.0021
27571W        W30791  17.736  13.515   8.181 -0.2385  0.1086  0.4520
27572W        W30792   9.079  15.376  11.098  0.2426 -0.2217  0.1237
27573W        W30793  10.271   8.900  11.816 -0.0733 -0.3426 -0.1152
27574W        W30794   5.272   6.544  11.463  0.3274 -0.0897 -0.0325
27575W        W30795   6.748   6.642  16.434  0.1335  0.0716  0.2406
27576W        W30796  12.832  12.812  17.008 -0.0135 -0.3076 -0.2717
27577W        W30797   4.652   9.046  16.073  0.1627 -0.0799 -0.0792
27578W        W30798  10.640   1.490   2.640 -0.2786  0.0431  0.0006
27579W        W30799   4.493  11.072  11.158  0.0354  0.1319  0.0769
27580W        W30800   8.950  15.807   3.150 -0.1094  0.3005  0.4667
27581W        W30801   9.930  17.189  15.236 -0.2696 -0.2241 -0.2943
27582W        W30802   6.138  10.935  16.935 -0.1987  0.1128 -0.1513
27583W        W30803   7.337  10.015  12.004 -0.1268 -0.2844 -0.4612
27584W        W30804   8.083  10.924  11.557  0.0418 -0.0984  0.1524
27585W        W30805  17.838  11.967  18.036  0.0902 -0.0643  0.0684
27586W        W30806   3.400  11.508  12.366  0.0384 -0.2898 -0.1897
27587W        W30807   2.305   0.072  15.467 -0.0228  0.2981 -0.1977
27588W        W30808  10.486   1.866   0.549 -0.0957  0.1378  0.2273
27589W        W30809  12.054   8.451   0.035 -0.0993  0.2581  0.2668
27590W        W30810   1.575  15.522  12.892 -0.1178 -0.0622 -0.1122
27591W        W30811   4.848  14.850   4.665  0.1399 -0.2396  0.3354
27592W        W30812   7.126   3.234  18.165  0.0476  0.0415 -0.1022
27593W        W30813  14.787  12.671   2.005 -0.1450  0.2032  0.1239
27594W        W30814   8.040   4.708   5.501 -0.1002  0.0543  0.0425
27595W        W30815   6.794   8.128  13.370 -0.2976 -0.0458 -0.0675
27596W        W30816   7.358  11.007   3.743 -0.0718  0.2854  0.0259
27597W        W30817   8.258  16.343  13.157  0.0876 -0.0763  0.1008
27598W        W30818   9.205  10.383  12.057  0.0762 -0.1844  0.0051
27599W        W30819   9.178  15.603  14.748  0.0742 -0.0404  0.1086
27600W        W30820   4.744  14.161  15.715  0.2602  0.0232 -0.1968
27601W        W30821   8.960  16.662   1.171 -0.0037 -0.2758  0.1286
27602W        W30822   7.273   4.778   2.476  0.2713 -0.1759  0.2238
27603W        W30823   4.863  12.698   2.975  0.2697 -0.0194 -0.0226
27604W        W30824   6.937  15.019   2.577 -0.1158  0.0958  0.0580
27605W        W30825   5.349  11.598  14.401 -0.1543 -0.3978 -0.0072
27606W        W30826   5.272  18.143   4.957 -0.3781 -0.0295  0.0096
27607W        W30827  11.299   3.071  16.437 -0.2853 -0.3710 -0.0019
27608W        W30828   6.202   2.163   7.539  0.2639 -0.0115  0.0422
27609W        W30829   9.603  17.594  17.166  0.0550 -0.2097  0.1105
27610W        W30830  12.080   7.282  16.618  0.1294  0.0920  0.0009
27611W        W30831  13.342   3.669   5.061  0.1199 -0.0423 -0.2939
27612W        W30832  15.355  11.059   5.387 -0.0745  0.0055  0.1467
27613W        W30833  11.946   9.284  12.192 -0.1512  0.0967  0.0571
27614W        W30834   6.419  15.414   5.556 -0.2434 -0.2446 -0.2867
27615W        W30835  17.029  15.230   3.533 -0.0512 -0.0331  0.3262
27616W        W30836   7.367  11.233  11.720 -0.0036  0.0268 -0.0140
27617W        W30837   1.924  10.467  10.996 -0.2382  0.0599  0.1944
27618W        W30838   7.677  13.894  15.599 -0.2446 -0.2453  0.3789
27619W        W30839  14.923   5.564   9.430  0.2441 -0.0270  0.0966
27620W        W30840   8.855   0.903  16.553 -0.0276 -0.1784 -0.1148
27621W        W30841   2.618   3.394   0.116 -0.1061  0.0167 -0.1486
27622W        W30842   5.585   7.086   1.949 -0.1819  0.1991  0.3221
27623W        W30843  14.689  11.124   6.574  0.0590  0.0769 -0.0932
27624W        W30844  14.577  13.166  10.353 -0.1759  0.1016 -0.2682
27625W        W30845   9.196   1.904   2.652  0.1361  0.0067 -0.0141
27626W        W30846  17.300  12.985  17.584  0.1636 -0.0449 -0.2153
27627W        W30847   5.702  14.054   3.625 -0.1247 -0.1335 -0.0647
27628W        W30848  10.254  17.653   0.171  0.1119 -0.1461 -0.0660
27629W        W30849   7.889  15.928   3.990  0.0499  0.1855 -0.1285
27630W        W30850   4.992  16.711   3.964 -0.1609  0.1881 -0.3203
27631W        W30851  14.388   2.029   5.506  0.0686  0.0767  0.2451
27632W        W30852   4.049   7.082   6.346 -0.0947  0.3652 -0.0199
27633W        W30853   5.777  14.789  14.359 -0.0155 -0.1813  0.0419
27634W        W30854   3.594   3.774   6.180 -0.2516 -0.0468 -0.0843
27635W        W30855  12.325   1.291   2.076 -0.0517  0.0930  0.2122
27636W        W30856   5.038  15.913   9.870 -0.1185  0.5199  0.2421
27637W        W30857   0.274   1.077   7.596 -0.2952  0.3415 -0.2050
27638W        W30858   4.406   0.325   1.408  0.0355  0.0551  0.1006
27639W        W30859   4.459   0.249   5.170 -0.0852  0.1978 -0.1244
27640W        W30860   9.033  17.271   0.845  0.0645 -0.0825  0.0916
27641W        W30861   8.339   3.326  10.364 -0.0451 -0.0910 -0.0138
27642W        W30862   6.222  15.380  15.903 -0.1303  0.0963 -0.3037
27643W        W30863   0.220  14.780  14.494  0.0537  0.1034  0.2837
27644W        W30864  10.905   2.901  14.166  0.0072  0.0637 -0.0303
27645W        W30865   4.914   6.747   0.468  0.0049  0.3762 -0.2461
27646W        W30866   8.101  15.306  15.880 -0.0129  0.2949 -0.0806
27647W        W30867  16.208   3.284   2.282 -0.1059 -0.0181 -0.1006
27648W        W30868  10.900  14.317  14.053  0.2712 -0.3645 -0.4485
27649W        W30869   8.658   2.351  15.831  0.1683 -0.0298  0.0429
27650W        W30870   2.852  17.503   4.790 -0.2478 -0.2588  0.0305
27651W        W30871   7.895   6.003   0.601 -0.2256 -0.1124  0.1423
27652W        W30872   8.430   3.967   2.949 -0.3399 -0.1949 -0.1040
27653W        W30873   7.539  15.012   0.979 -0.1398 -0.0767  0.3002
27654W        W30874  13.420   2.383   1.414  0.0506  0.2714  0.1376
27655W        W30875   4.208  17.537   1.812 -0.0016  0.2206  0.0511
27656W        W30876  11.879   2.699   2.153  0.0097  0.1585  0.1095
27657W        W30877   7.464   4.787  11.127 -0.0329 -0.1004  0.1747
27658W        W30878  18.101  17.513  18.179 -0.0120 -0.0394 -0.2588
27659W        W30879  14.407   5.184   4.728 -0.1866 -0.2802  0.1663
27660W        W30880  11.056   9.788  14.891 -0.0077  0.3833  0.0073
27661W        W30881   7.962   2.244  16.086  0.4263  0.0530 -0.1408
27662W        W30882  13.340   2.255   2.486 -0.3398 -0.0843 -0.1158
27663W        W30883   9.934   1.917  14.551  0.0970 -0.0845 -0.1062
27664W        W30884   6.499  17.723   2.328 -0.1103 -0.0806  0.1595
27665W        W30885  11.404   0.243  14.918  0.2325  0.1275 -0.0142
27666W        W30886   6.969  16.447   2.980  0.1233 -0.0151  0.3363
27667W        W30887   6.194  17.020   8.909  0.1401  0.0448  0.2212
27668W        W30888  11.168  15.103   4.366  0.2756 -0.0277 -0.0933
27669W        W30889  10.781  12.905   0.710  0.1590  0.1809 -0.2629
27670W        W30890  10.429   0.937   0.670 -0.0299 -0.1476  0.1090
27671W        W30891  10.877   0.004   5.873 -0.1351 -0.1494  0.3498
27672W        W30892   6.314   6.315  10.608 -0.0921 -0.1411 -0.0150
27673W        W30893   0.760  14.943   0.526  0.0308 -0.0096  0.0350
27674W        W30894   5.736   5.302   4.514 -0.0705  0.1663  0.1165
27675W        W30895  14.908   0.324  13.496  0.0797  0.0567 -0.4586
27676W        W30896  11.006  17.500   6.451  0.3948 -0.2290  0.4737
27677W        W30897  13.271  16.787   2.100  0.2471 -0.1749  0.1028
27678W        W30898  14.730  18.069   0.571  0.2026 -0.2375 -0.1532
27679W        W30899   3.983   3.398  17.629  0.3386  0.1549  0.1879
27680W        W30900   7.715  17.751  14.284  0.0308 -0.0879 -0.2244
27681W        W30901   6.105  16.490   6.169 -0.2252 -0.0902 -0.0154
27682W        W30902  11.461   4.437   2.614  0.2592  0.1366 -0.0710
27683W        W30903   8.056  17.302   1.658  0.3142  0.4255 -0.1870
27684W        W30904  14.303  15.963   7.037 -0.1492  0.1543 -0.1041
27685W        W30905   6.906  17.040  16.951 -0.3542  0.1150 -0.0279
27686W        W30906   9.434   2.744   3.631 -0.3686 -0.0040 -0.2138
27687W        W30907   7.187   0.922   7.451  0.0283 -0.1540  0.1883
27688W        W30908   6.739  14.627   4.130  0.0674 -0.3099 -0.0964
27689W        W30909   9.464  14.851   1.570  0.0049 -0.1651  0.4267
27690W        W30910   4.661   1.204   4.713 -0.1924 -0.0631  0.0766
27691W        W30911   7.942  16.926  15.009 -0.2522  0.0781 -0.0701
27692W        W30912  18.105   0.317   2.847  0.1229 -0.0194  0.4260
27693W        W30913   1.434  11.140   5.491  0.0408  0.0717  0.3017
27694W        W30914  13.237  16.895   9.918 -0.1589  0.0408 -0.2017
27695W        W30915  16.038  16.786   4.452 -0.2977  0.1202 -0.1050
27696W        W30916  11.081   2.440   3.604 -0.0464 -0.3348 -0.2029
27697W        W30917  11.131   8.924   3.041  0.1878  0.1573 -0.1696
27698W        W30918   4.424   4.348   0.999 -0.1208 -0.1879  0.0155
27699W        W30919   9.911  10.219  18.057 -0.2373 -0.2712 -0.0746
27700W        W30920  15.698   1.167  13.285 -0.0622 -0.2426 -0.0311
27701W        W30921   8.162  15.720  15.298 -0.0043 -0.1421  0.1401
27702W        W30922  14.000   0.051  17.487 -0.2852  0.0607  0.2371
27703W        W30923   6.748  16.312   6.630 -0.0429 -0.2418  0.2759
27704W        W30924   9.394  16.348   1.120  0.1507 -0.2367 -0.0591
27705W        W30925  13.614   6.889   3.432 -0.3763  0.2457  0.0479
27706W        W30926   9.778  17.325   5.802  0.0547 -0.3392 -0.2717
27707W        W30927  14.666  17.617   0.721  0.1087 -0.0956  0.2239
27708W        W30928   7.945   2.382   4.684  0.4347 -0.0975  0.0336
27709W        W30929   8.634  10.827   3.925 -0.0280 -0.0841 -0.2221
27710W        W30930   8.237   1.581   7.393 -0.1865  0.2102  0.0206
27711W        W30931  10.488   0.256  18.211  0.1472  0.3480  0.1164
27712W        W30932   6.776   4.066  13.561  0.1024 -0.4444 -0.0575
27713W        W30933   6.460   6.409   7.293 -0.0729 -0.0412 -0.2925
27714W        W30934   8.180   0.381   1.604  0.0600  0.1967  0.0897
27715W        W30935  13.269  16.425  18.084 -0.0728 -0.0690  0.2480
27716W        W30936  10.847  17.063   5.118 -0.0435 -0.1836 -0.2639
27717W        W30937   8.303  15.991  15.961  0.1312 -0.1540 -0.1985
27718W        W30938   9.507  16.057   3.785 -0.0399 -0.2574 -0.1295
27719W        W30939   7.950  18.217   5.619 -0.1756 -0.3105  0.2753
27720W        W30940   4.009  17.237  13.423  0.2403 -0.0736 -0.0490
27721W        W30941   3.708  14.716   0.908  0.2660  0.0719 -0.0806
27722W        W30942   6.052   2.698  10.806 -0.0213 -0.0180  0.0980
27723W        W30943  13.173  15.984   3.004  0.0386 -0.3358 -0.1801
27724W        W30944   7.864   9.494  15.495  0.0641 -0.0718 -0.1611
27725W        W30945  12.055  17.721   1.415 -0.0843  0.0515  0.0072
27726W        W30946  10.885  14.712   3.168  0.0030 -0.0546  0.1477
27727W        W30947   6.281   0.869   5.137 -0.1210 -0.2196  0.0211
27728W        W30948   8.404   4.165   3.814  0.1366 -0.2527 -0.0620
27729W        W30949   8.444  13.488  14.862 -0.1472  0.0237 -0.1925
27730W        W30950   9.792  14.973   7.273 -0.2251 -0.2389  0.1194
27731W        W30951  10.477   6.768   0.243  0.1146 -0.0845 -0.0500
27732W        W30952   7.277   2.651  13.278  0.0434  0.2380 -0.2411
27733W        W30953   4.471  12.636   4.546 -0.1417 -0.1452 -0.0486
27734W        W30954   0.530   1.806   9.240 -0.1765 -0.3358  0.0082
27735W        W30955   9.986   7.677  11.283 -0.2228  0.1659 -0.0394
27736W        W30956   4.543  16.973   7.624  0.1247  0.2736  0.1010
27737W        W30957   6.231  17.010  17.531  0.0665  0.1632  0.3760
27738W        W30958  10.312   1.135   4.784  0.0722  0.1431  0.1729
27739W        W30959   8.427   8.877   8.416 -0.0445 -0.2104 -0.0162
27740W        W30960   7.989  12.156  13.408 -0.0574 -0.1324 -0.0433
27741W        W30961   9.499  14.386   7.525  0.0073 -0.1319 -0.0958
27742W        W30962  10.996  11.918   0.050  0.1005  0.1659 -0.0900
27743W        W30963  13.247  16.681   3.937 -0.3049  0.1316 -0.1605
27744W        W30964   3.907   2.931  15.582 -0.3444  0.2130  0.0627
27745W        W30965  14.050  10.561   1.360 -0.3652 -0.4885 -0.2737
27746W        W30966  10.892  12.695   2.643 -0.1654 -0.2097  0.0650
27747W        W30967  13.750   0.882   2.223 -0.1688 -0.0313  0.2364
27748W        W30968   6.962  15.992  13.815  0.0358 -0.2204 -0.1719
27749W        W30969  16.278   0.690   3.351  0.0675  0.0122  0.2167
27750W        W30970  10.564  15.369   5.807  0.0196 -0.0187  0.4774
27751W        W30971   6.724  17.715  15.680 -0.2841 -0.2139  0.1092
27752W        W30972  12.472  14.692  16.994  0.2246 -0.1290  0.0227
27753W        W30973   5.192   0.579   1.675  0.0272 -0.0623  0.1261
27754W        W30974  11.689  17.487  14.073  0.0876  0.1424  0.3510
27755W        W30975   9.380   6.852  15.250 -0.0043 -0.4482 -0.1254
27756W        W30976   6.997  10.970  14.976  0.2993 -0.0215  0.2309
27757W        W30977  10.296   2.029  12.983  0.1542  0.2744  0.2120
27758W        W30978   2.974   4.210  16.597  0.1218 -0.0002  0.1766
27759W        W30979  10.642   2.722   4.979  0.3881  0.1059  0.2617
27760W        W30980  11.837  14.170  12.748 -0.3358  0.2602  0.1851
27761W        W30981   2.256  17.824   0.969  0.0137 -0.0433 -0.1307
27762W        W30982   4.476   1.025  15.930 -0.2000  0.1506 -0.1855
27763W        W30983   1.600  16.130  16.904 -0.0892 -0.1611  0.0430
27764W        W30984   9.707  18.246   1.608  0.1260 -0.3170 -0.0710
27765W        W30985  14.294   6.772   7.978 -0.1744  0.1648  0.0465
27766W        W30986   6.742  14.062   6.439 -0.2026 -0.0579  0.0100
27767W        W30987  15.710  15.497   4.479 -0.1068  0.0756 -0.0499
27768W        W30988  10.824  16.302   3.038 -0.0560  0.2504 -0.1851
27769W        W30989  10.312  14.701   7.314 -0.2754  0.0302 -0.1423
27770W        W30990  11.698  11.075  17.456  0.2630 -0.0362  0.1964
27771W        W30991   9.540  13.783  14.622 -0.1148 -0.1875 -0.2397
27772W        W30992   9.620   0.404   1.891  0.1315  0.3006 -0.2562
27773W        W30993   7.129  12.527  14.170  0.0856  0.3757 -0.2776
27774W        W30994   4.627   4.099   4.330 -0.1156  0.0329  0.0730
27775W        W30995   6.033  17.133  16.751 -0.0904  0.2631  0.1292
27776W        W30996  14.470  14.672  14.623 -0.2457  0.1118 -0.0940
27777W        W30997  10.389   4.286   3.871  0.1225  0.0882  0.5810
27778W        W30998   8.083   3.349   1.927 -0.2546  0.1040  0.0097
27779W        W30999  10.218  16.582   3.925 -0.3131  0.2940 -0.1448
27780W        W31000   8.601  16.471   0.302 -0.0546  0.3629  0.1119
27781W        W31001  16.216   4.231   2.522  0.0807 -0.0990  0.1794
27782W        W31002   6.245   4.230  17.403 -0.0380  0.0134  0.0114
27783W        W31003   8.275  15.399   6.625 -0.1694 -0.0353 -0.3846
27784W        W31004  11.566  16.843  17.509  0.0888  0.0060  0.0758
27785W        W31005   5.084  16.908   2.027 -0.1275  0.0336  0.1182
27786W        W31006   8.384  16.753   6.239  0.2503 -0.0879 -0.1213
27787W        W31007   6.437  16.759   4.861 -0.0118  0.1421 -0.2415
27788W        W31008   9.574  17.759  11.296 -0.2168 -0.1171 -0.2679
27789W        W31009   6.323   0.109   8.619 -0.2145 -0.0204 -0.1395
27790W        W31010  10.644  14.700   4.728 -0.0103 -0.1946 -0.0866
27791W        W31011   2.132  16.489  17.153  0.1330  0.2451  0.2315
27792W        W31012  12.875   2.085   7.353  0.1039 -0.2079 -0.3094
27793W        W31013   7.648   0.878  14.095  0.0848 -0.0831  0.0748
27794W        W31014   4.675   4.494  17.236  0.0909  0.1337  0.1814
27795W        W31015   7.358   2.845  17.161 -0.2171  0.1052 -0.3304
27796W        W31016  10.537  16.027   8.052  0.1195 -0.0480 -0.0517
27797W        W31017  13.039  16.080   7.430  0.1593 -0.2345 -0.1061
27798W        W31018   9.443  13.613   7.279 -0.2909  0.0196  0.0476
27799W        W31019   9.969   2.724   5.877 -0.1917  0.0265  0.2183
27800W        W31020  14.932  13.639   2.629  0.0173  0.0722 -0.0499
27801W        W31021  12.230   2.761   9.913  0.1360  0.3012  0.0215
27802W        W31022   8.947   1.398   2.600 -0.0223 -0.1293  0.2439
27803W        W31023  11.477  17.567   0.088  0.2479  0.0001  0.4745
27804W        W31024   7.203  10.363  17.159 -0.0202 -0.0259  0.1020
27805W        W31025   6.366   4.331   1.309 -0.2186  0.3069 -0.1027
27806W        W31026   9.540  17.014  17.116 -0.0990 -0.1436 -0.2505
27807W        W31027   9.270  14.566  18.207 -0.0076  0.3121 -0.1037
27808W        W31028   4.301  12.709   6.855 -0.3908 -0.1321 -0.3709
27809W        W31029   2.798   3.306  17.964 -0.1176  0.0601  0.3225
27810W        W31030   7.488  17.301  15.949  0.2851 -0.0057 -0.3573
27811W        W31031   5.310  17.892  16.814  0.1795 -0.0599  0.0344
27812W        W31032  11.334  13.676  17.402  0.0885  0.2222  0.0957
27813W        W31033   9.135  18.215   2.477  0.0406  0.1632  0.0198
27814W        W31034   3.898  17.179   0.356  0.0538  0.0149  0.0751
27815W        W31035  17.357   1.197   5.526 -0.2109 -0.2912  0.0046
27816W        W31036  10.063  11.831  18.251  0.0374  0.1702 -0.0240
27817W        W31037   7.726  12.623   4.717 -0.0774  0.0206  0.0054
27818W        W31038  11.719  12.261  17.148  0.2195  0.1598  0.0121
27819W        W31039   5.967  17.641  10.796 -0.1868 -0.2755 -0.1212
27820W        W31040   4.514   0.644   8.572  0.0529 -0.2727 -0.1808
27821W        W31041   2.971   5.558   8.594 -0.1673  0.0137 -0.1056
27822W        W31042   7.896  18.011   3.514  0.4170 -0.0442  0.0185
27823W        W31043   8.199   7.113   1.076  0.2782  0.0777 -0.4857
27824W        W31044  11.021  16.887  16.437  0.0339 -0.1507 -0.1433
27825W        W31045   8.753  15.322  13.075  0.0056 -0.0679 -0.1416
27826W        W31046   8.184   3.420   3.534 -0.0612 -0.0014  0.0805
27827W        W31047   9.640  16.450   5.726 -0.0225  0.2183  0.0780
27828W        W31048  12.282   0.492   0.408 -0.2369 -0.0385 -0.1855
27829W        W31049  12.333   4.601   2.432  0.0372 -0.0645 -0.1911
27830W        W31050   9.210   2.956   0.598 -0.2218  0.1129 -0.0537
27831W        W31051  11.816   6.629   3.816 -0.0936 -0.2200  0.1636
27832W        W31052   9.025  13.364   2.818  0.2886  0.1634 -0.1682
27833W        W31053  13.441  11.801   5.528  0.0280  0.0994 -0.2713
27834W        W31054   8.361  12.215   5.566 -0.1749 -0.1475  0.2066
27835W        W31055   7.519   3.271   1.001 -0.1839 -0.0234 -0.0800
27836W        W31056  11.374   1.055   0.125 -0.3873  0.1455  0.0602
27837W        W31057  14.870  16.337   2.173 -0.0820 -0.1974  0.1690
27838W        W31058   8.389  17.159  14.847 -0.2405  0.0270 -0.0390
27839W        W31059   4.991  16.198   4.652 -0.3008  0.1483  0.0468
27840W        W31060   9.599  15.696  16.301  0.0984 -0.2485 -0.2022
27841W        W31061   5.479   7.280  15.889 -0.0092 -0.0059  0.2936
27842W        W31062  11.406   0.746  18.008 -0.0079 -0.1732  0.1364
27843W        W31063  14.916  16.357   6.320  0.1048  0.3077 -0.1346
27844W        W31064  11.174   0.012  16.031 -0.0933 -0.1257 -0.2636
27845W        W31065  11.361  12.459   3.399 -0.1266  0.2175 -0.0975
27846W        W31066  15.810   1.467   4.032  0.0871  0.0923  0.1390
27847W        W31067  13.523   1.644  16.633  0.2453 -0.0007 -0.2860
27848W        W31068   9.038   3.174   1.978  0.2832 -0.0161  0.2332
27849W        W31069  14.277  17.169  13.522  0.1774  0.0571 -0.1470
27850W        W31070   9.043   4.226  16.040  0.0956  0.2233 -0.2759
27851W        W31071   1.708  14.885  17.726  0.1922 -0.0631  0.0427
27852W        W31072  14.131  15.854   2.661  0.0656 -0.0215  0.1313
27853W        W31073   5.938  16.614   5.107 -0.1099 -0.2522  0.3741
27854W        W31074  10.604   2.502   3.851  0.1163 -0.2228  0.0377
27855W        W31075   8.450  11.913   0.470  0.0061  0.2988 -0.0849
27856W        W31076   6.839   3.578  12.961  0.2985 -0.2859  0.0679
27857W        W31077   8.944  12.949  16.022 -0.0519 -0.0364 -0.0468
27858W        W31078   9.695  13.373   4.093  0.1931  0.2476  0.0954
27859W        W31079   5.601   2.170   7.576 -0.1313 -0.0580 -0.0083
27860W        W31080  13.903  17.415  17.404 -0.0452 -0.1805  0.2277
27861W        W31081  12.046   6.608   5.763  0.2557 -0.0378  0.0803
27862W        W31082  15.287  13.223   5.828  0.0075  0.0121 -0.1939
27863W        W31083   4.625   0.493   2.459  0.0167  0.1082 -0.3243
27864W        W31084   3.748   2.085   7.616 -0.1422  0.0652 -0.3698
27865W        W31085   0.291  13.525   7.238 -0.1061 -0.0909 -0.2686
27866W        W31086  14.736   4.987   3.977 -0.0269  0.1544 -0.1385
27867W        W31087  12.078   5.447  11.249 -0.2386 -0.1514  0.1220
27868W        W31088   5.136   4.801   0.987  0.4291  0.2734 -0.1248
27869W        W31089  12.854  12.417  18.014  0.2578  0.1827 -0.2898
27870W        W31090   8.235   0.419   5.677 -0.0498  0.2924 -0.3524
27871W        W31091  11.978  15.203  10.348  0.5051 -0.1222 -0.0205
27872W        W31092   3.519  11.057  11.505 -0.0279  0.0092 -0.0577
27873W        W31093   8.569  15.163   6.973  0.0715 -0.0178  0.0689
27874W        W31094   7.648  15.369   1.706  0.1576 -0.0548  0.0064
27875W        W31095   8.312  13.082   3.405 -0.0249 -0.2245  0.1745
27876W        W31096  15.159   1.725   1.678 -0.0153  0.1748 -0.1268
27877W        W31097   5.697  11.501   2.428  0.0814 -0.0406 -0.0151
27878W        W31098   4.834  17.831  17.045  0.1413  0.3855 -0.0179
27879W        W31099   5.000  18.221   4.513  0.0336 -0.2127  0.0514
27880W        W31100   3.310   4.110  17.989  0.1930  0.1997 -0.2226
27881W        W31101  11.400  15.555   1.062 -0.0329 -0.0975 -0.2137
27882W        W31102   8.557  18.070  16.506 -0.1826  0.1067 -0.1494
27883W        W31103   8.841   7.636  11.595  0.1050 -0.2382 -0.3349
27884W        W31104   6.091  11.795  14.705  0.0641  0.2976  0.1372
27885W        W31105  11.358  16.726  13.624 -0.2760 -0.0317  0.2087
27886W        W31106  15.429  16.046   3.386 -0.1848  0.1093  0.1722
27887W        W31107   8.599  11.324  17.849  0.0989  0.1003  0.0953
27888W        W31108   2.677   1.195  10.961 -0.2670  0.0098  0.3081
27889W        W31109  12.190  15.140   5.168  0.0677 -0.0492 -0.2368
27890W        W31110   9.539   1.372   3.919  0.1012 -0.1388  0.1411
27891W        W31111   7.894  14.587   0.164  0.0542 -0.1588  0.2026
27892W        W31112   8.827   1.649  15.926 -0.2344  0.0790 -0.0761
27893W        W31113   8.666  16.663   1.629  0.0031 -0.0589 -0.2304
27894W        W31114  14.353  11.066   4.856  0.6220  0.0869  0.4277
27895W        W31115   9.773  15.523  11.252  0.2889 -0.1503  0.0704
27896W        W31116   7.429  16.061  17.084 -0.0938 -0.0636  0.0655
27897W        W31117   7.460  17.003   6.370  0.5498 -0.0101 -0.0802
27898W        W31118   4.235   9.391   0.473 -0.0258 -0.0431 -0.0224
27899W        W31119   8.933  16.157   3.489  0.3272 -0.2305  0.2115
27900W        W31120  13.414   5.918   2.281 -0.0337  0.0243 -0.1056
27901W        W31121  10.986   3.179   7.989  0.2457 -0.2424  0.1818
27902W        W31122  10.725  16.666   1.670 -0.0079 -0.2113 -0.0975
27903W        W31123  14.340   4.000   5.620  0.0872 -0.2220 -0.1481
27904W        W31124  10.809  16.062   2.223  0.1347  0.1241 -0.3735
27905W        W31125   6.614  17.224   2.191  0.3016 -0.2427 -0.4152
27906W        W31126   9.858  17.015   8.707 -0.3599 -0.2361  0.0738
27907W        W31127  11.304   3.920  12.327 -0.2467  0.1685  0.0976
27908W        W31128  16.168   4.977   5.773 -0.0905 -0.2122 -0.1226
27909W        W31129   4.964  12.128   3.204  0.0425  0.3180  0.1696
27910W        W31130   6.238  13.273   4.113 -0.0221  0.0122 -0.1877
27911W        W31131   5.453  12.397   1.104  0.1535 -0.3749 -0.4422
27912W        W31132   2.235  12.920   2.930  0.0758 -0.2963 -0.0961
27913W        W31133   2.157   2.569   2.246  0.0690  0.1026  0.0963
27914W        W31134  11.465  13.201   0.304  0.0513  0.0634 -0.0244
27915W        W31135   5.562  17.674   4.940  0.0877 -0.1732 -0.2247
27916W        W31136   0.331  16.784   2.882  0.2145 -0.1864  0.1867
27917W        W31137   9.649  14.628  16.355  0.2301 -0.0169  0.0416
27918W        W31138  12.612   4.619   6.173  0.0323  0.0194  0.1806
27919W        W31139   8.997  13.037   0.038  0.1647  0.2601  0.0742
27920W        W31140  14.291  13.300   6.986  0.1294 -0.1625  0.2425
27921W        W31141  10.619  10.376   2.483  0.0961  0.2012  0.1758
27922W        W31142   9.311   1.581  17.453  0.0852 -0.4162 -0.0744
27923W        W31143   8.649   1.815   8.565  0.2978 -0.2204  0.1093
27924W        W31144   9.698   0.700   7.233  0.0945 -0.0397  0.1515
27925W        W31145   9.160  11.342   6.230  0.3222 -0.1677  0.2625
27926W        W31146   7.523  16.969  17.652 -0.0515 -0.3078  0.0205
27927W        W31147   8.302   3.388   0.463 -0.1578  0.2353 -0.0428
27928W        W31148   7.459  17.375  15.164  0.2571 -0.3496 -0.2354
27929W        W31149  11.010  17.250   4.169 -0.0197  0.2175 -0.0749
27930W        W31150  14.178   0.004  16.134  0.0390 -0.1226 -0.1569
27931W        W31151  11.390   5.974   9.362  0.0329 -0.1534  0.1049
27932W        W31152   7.889  14.158   4.918 -0.2474 -0.1891 -0.1409
27933W        W31153  11.619  17.933   0.481 -0.2150  0.0434 -0.1066
27934W        W31154  10.771  14.798   7.421  0.0490  0.3104  0.2429
27935W        W31155  16.053   1.880  17.982 -0.1525  0.0056  0.0985
27936W        W31156  10.035   1.580  13.761 -0.0452  0.0826  0.1630
27937W        W31157  11.383   1.183   3.097  0.0344  0.0610  0.0617
27938W        W31158   4.019   2.788   7.437 -0.2220  0.4552  0.2029
27939W        W31159   5.056  18.151   0.947  0.0551  0.0844 -0.1140
27940W        W31160  12.537  14.068   1.605  0.1580 -0.3152 -0.2236
27941W        W31161  10.566   0.002   0.970  0.1458 -0.0441  0.0485
27942W        W31162  15.757   0.907  14.808  0.0024  0.0327  0.1521
27943W        W31163   8.665  16.398   6.039  0.3310 -0.0359  0.4289
27944W        W31164  12.685  17.128  16.538 -0.1116  0.2130  0.0425
27945W        W31165   2.577  16.967   8.341  0.1936 -0.1321 -0.2629
27946W        W31166   7.966  16.672  11.590 -0.1876 -0.0478  0.1864
27947W        W31167   6.792   0.379   2.871  0.1529 -0.1402  0.1036
27948W        W31168  13.710   3.446  16.645 -0.2251 -0.1671  0.0159
27949W        W31169  15.753  17.574   2.533  0.1671 -0.2061  0.0804
27950W        W31170   3.727  11.535   1.187 -0.3410  0.1468 -0.1616
27951W        W31171   8.339   1.412  17.717 -0.0898 -0.4302  0.1927
27952W        W31172  10.699   3.364   4.319  0.1000 -0.0135 -0.1435
27953W        W31173   9.078   0.190  15.518  0.3236 -0.1626 -0.5249
27954W        W31174   9.418   3.607  12.802  0.2286 -0.1472 -0.0668
27955W        W31175   6.459  15.969  15.667 -0.3445 -0.1701  0.1016
27956W        W31176   8.906   8.129  15.117  0.3141  0.1255  0.0787
27957W        W31177   4.768  13.863   1.306 -0.0463 -0.3621  0.0273
27958W        W31178   7.339   2.258   8.572  0.2556 -0.0420  0.1160
27959W        W31179   7.403  10.502   6.029  0.0346  0.1829  0.2017
27960W        W31180  12.933   3.494  14.388  0.3805 -0.0287 -0.0532
27961W        W31181  10.057   3.872   6.974 -0.3475 -0.0428 -0.1913
27962W        W31182  10.322  15.323  16.309 -0.1182  0.0580  0.0849
27963W        W31183   1.843  16.665   1.776  0.2244  0.4303 -0.0523
27964W        W31184   9.118  15.939  16.508  0.2593  0.0326  0.0432
27965W        W31185   9.422  11.399  17.663 -0.1211  0.3702  0.0015
27966W        W31186   8.696   3.903   7.684 -0.0658  0.1997  0.1110
27967W        W31187   6.544  16.932   5.872  0.1696 -0.1001 -0.0741
27968W        W31188   8.491   0.178   1.247 -0.1657 -0.0404 -0.0295
27969W        W31189   7.101  16.379   3.553  0.1573  0.0415 -0.0935
27970W        W31190   6.865   1.894  11.865 -0.0700 -0.0371 -0.0488
27971W        W31191   9.744   0.603  16.656  0.3559  0.0560  0.2444
27972W        W31192   7.567  13.779   3.102  0.1578  0.0777 -0.1468
27973W        W31193  10.428  15.951  15.215  0.3581 -0.0216 -0.0300
27974W        W31194  11.795   5.786   7.493  0.1629 -0.3128  0.2732
27975W        W31195  10.564   1.354  14.618 -0.3232  0.3247  0.1927
27976W        W31196   8.554  17.091  14.340 -0.1750  0.1367 -0.0485
27977W        W31197   8.267  13.854   4.291 -0.1876 -0.0084  0.1203
27978W        W31198  14.317   4.723   6.878  0.0010 -0.1653 -0.0573
27979W        W31199  11.748  10.379   2.315  0.1475  0.0113 -0.3993
27980W        W31200  11.123   1.623  10.484  0.2023 -0.0765 -0.0619
27981W        W31201  10.849   2.913   6.145  0.2562  0.1391 -0.0312
27982W        W31202   3.965  15.150  12.537 -0.2625  0.0422  0.1160
27983W        W31203  10.320  16.721  15.874 -0.1962 -0.1751 -0.0328
27984W        W31204  11.215   1.534  11.607 -0.3607  0.0663  0.0480
27985W        W31205  17.360   5.894   0.878  0.1617  0.1367 -0.5051
27986W        W31206   9.088  17.735   5.722 -0.2069  0.1357  0.2761
27987W        W31207  17.429   4.311   3.911  0.0942  0.1065 -0.2392
27988W        W31208  14.715  14.772   6.105  0.4649  0.0113  0.2211
27989W        W31209  10.241   3.221  13.681  0.1680 -0.0772 -0.0573
27990W        W31210  12.770   3.097   2.524  0.0579 -0.0424  0.3817
27991W        W31211  14.936  10.397   2.935 -0.2442 -0.3608 -0.2502
27992W        W31212   5.278   4.963  18.238 -0.1197  0.1823 -0.0459
27993W        W31213  10.005   1.792   7.106 -0.1843  0.0564  0.2012
27994W        W31214  11.367  17.441  11.074  0.0858 -0.0019 -0.3404
27995W        W31215   6.970  17.080   5.711 -0.2941  0.2311  0.2124
27996W        W31216   9.620  16.771   7.484 -0.0521  0.5490 -0.3693
27997W        W31217   7.311   2.252   4.104 -0.2090 -0.1870 -0.0759
27998W        W31218  11.311  16.024   6.821  0.1235 -0.0404  0.3051
27999W        W31219  13.787   2.076   1.315  0.0277 -0.1200 -0.1386
28000W        W31220  10.346  12.456   2.825 -0.0074 -0.2195  0.1839
28001W        W31221   1.485   4.136  17.628  0.0956  0.2012 -0.0329
28002W        W31222  17.555   2.848   9.487 -0.0516 -0.1395 -0.0856
28003W        W31223   7.826  14.778   1.398  0.0647 -0.2842 -0.3058
28004W        W31224  11.076  15.837   1.353 -0.2273 -0.1358  0.1001
28005W        W31225  12.179  17.220   4.757  0.1816 -0.0809  0.0077
28006W        W31226   8.015  11.952   9.266  0.0052  0.3757  0.0294
28007W        W31227   7.439  17.252   9.351  0.0683 -0.0934  0.0147
28008W        W31228  12.613  13.918  16.452 -0.0759 -0.1641 -0.0290
28009W        W31229   6.885  14.070   8.841 -0.0551  0.0458 -0.3536
28010W        W31230   9.356  14.094   7.952  0.2551 -0.1270 -0.2812
28011W        W31231   7.899   8.347   2.505 -0.4858 -0.0007 -0.1902
28012W        W31232   3.298  14.692   4.136 -0.1035 -0.2468  0.3317
28013W        W31233   3.846  13.818   3.732  0.0542  0.1861 -0.0766
28014W        W31234  11.318  15.026  11.487  0.2047 -0.2627  0.0340
28015W        W31235   5.106  12.355   6.295 -0.1942  0.2588 -0.1449
28016W        W31236  12.407  16.627   7.969  0.2510  0.4335 -0.1332
28017W        W31237   5.722   0.750   5.193 -0.0357  0.0211 -0.1084
28018W        W31238   8.300  14.014   8.947 -0.1054 -0.1197  0.1908
28019W        W31239   6.262   1.014   7.667  0.0702 -0.4251 -0.0416
28020W        W31240  11.533  15.533   1.577  0.1808  0.2551 -0.0782
28021W        W31241  12.939   9.279  13.080 -0.3043  0.0636  0.3600
28022W        W31242  13.126   0.175   6.644  0.0995 -0.0387 -0.1108
28023W        W31243   2.854  11.893  11.250  0.0406 -0.1782  0.0167
28024W        W31244   7.122   1.283   4.176  0.1713  0.2548 -0.3004
28025W        W31245  10.947   0.307   1.166 -0.3237 -0.0583 -0.0253
28026W        W31246  10.884  16.878   5.611  0.0164 -0.2677 -0.1797
28027W        W31247  11.103  16.881   7.056  0.1896 -0.0699  0.2691
28028W        W31248  16.469   0.749   7.290  0.3329  0.1270  0.1937
28029W        W31249   5.246  14.122   5.014 -0.0777 -0.0752 -0.1542
28030W        W31250   6.471  16.080   6.218 -0.2053  0.1036  0.0426
28031W        W31251   8.282   0.621   9.317  0.0069  0.1363  0.3603
28032W        W31252   9.519  15.991  18.038 -0.0318  0.0328  0.0695
28033W        W31253  16.207  14.051   7.618  0.2890  0.0761 -0.0498
28034W        W31254  10.144   8.358   3.962 -0.0855 -0.2438 -0.0700
28035W        W31255  15.497   2.294  15.397  0.2343 -0.1283  0.0877
28036W        W31256   6.083  17.460   3.280 -0.1081 -0.1278 -0.1683
28037W        W31257   2.765  17.737  10.857  0.0467 -0.0321 -0.2389
28038W        W31258   5.844  17.120   6.387 -0.0986 -0.2362  0.2641
28039W        W31259  17.805   0.024   3.083  0.3361 -0.2352  0.2695
28040W        W31260   8.726  14.630   9.880 -0.0429  0.0074 -0.1139
28041W        W31261  14.019   3.669   1.221 -0.0801  0.0816  0.1618
28042W        W31262  11.982  10.572   8.539  0.0089 -0.0492 -0.2699
28043W        W31263  11.553  11.774   6.219 -0.1828 -0.0712  0.1264
28044W        W31264  11.031  10.949   1.967  0.0338 -0.3915 -0.0780
28045W        W31265   3.653   3.269  15.829 -0.0204  0.1048  0.1918
28046W        W31266   5.961  16.139  17.869 -0.3456 -0.2654  0.1551
28047W        W31267   7.125   1.023  10.130  0.1165 -0.1146  0.0881
28048W        W31268   5.801  15.935   4.568  0.1410  0.0840  0.0711
28049W        W31269  10.308   9.037  16.912  0.0461 -0.0091 -0.3887
28050W        W31270   8.859   2.558   6.040  0.2093 -0.1210  0.1193
28051W        W31271  10.215   0.642   4.659 -0.3070  0.1425 -0.0760
28052W        W31272  10.410  10.183   7.080 -0.0165 -0.0915  0.0287
28053W        W31273   5.083   2.873   5.240  0.0280 -0.0648  0.1488
28054W        W31274   9.417  15.842   1.417 -0.0739 -0.0194  0.1022
28055W        W31275   5.356   2.276   2.192 -0.2567  0.2735 -0.0321
28056W        W31276  12.608  15.092   5.521  0.4265  0.3416  0.2047
28057W        W31277  11.580  15.223   8.875  0.3765  0.0933 -0.3795
28058W        W31278   7.119   1.534   5.180 -0.0961 -0.3131  0.3172
28059W        W31279  11.598  17.303   1.167  0.3200 -0.0334 -0.1635
28060W        W31280  12.541  17.735   5.372 -0.0664 -0.2786 -0.1416
28061W        W31281  10.224   1.577   6.280 -0.0551  0.1655  0.1901
28062W        W31282   4.877  17.402  10.997 -0.0450 -0.0484 -0.1396
28063W        W31283   8.269  12.501   0.142  0.2819 -0.2836  0.3614
28064W        W31284  14.527   2.364   7.769 -0.3951 -0.0770  0.0523
28065W        W31285   4.064  10.461   0.542 -0.1056  0.0810  0.0860
28066W        W31286  10.122  15.259   5.697  0.3787  0.0537 -0.3056
28067W        W31287  10.945  16.510   4.593  0.2236  0.1979 -0.1529
28068W        W31288   8.610  15.668   5.356 -0.1240  0.0961 -0.2190
28069W        W31289  11.243  12.756   7.688 -0.0083  0.0608  0.1424
28070W        W31290   6.851  17.120   6.225 -0.0963  0.1385 -0.2600
28071W        W31291   9.543   4.373   8.521 -0.1567  0.1101 -0.0043
28072W        W31292   1.320   3.475   8.950  0.0092 -0.2731  0.1064
28073W        W31293   9.904  18.157   5.665  0.0592 -0.3237  0.1739
28074W        W31294   2.569  13.228   4.738  0.0777  0.1619 -0.1145
28075W        W31295   8.761  12.468  12.121 -0.0309  0.3123  0.0403
28076W        W31296  13.275  18.046   8.994 -0.2027 -0.3721 -0.4980
28077W        W31297   3.210  15.610   4.075  0.0727 -0.3486  0.1521
28078W        W31298   4.334   0.244   3.190 -0.3365 -0.1049 -0.0750
28079W        W31299  11.956  13.971   2.252  0.1012 -0.0133 -0.1063
28080W        W31300   9.764   4.099  15.708 -0.0808 -0.5297 -0.3208
28081W        W31301   3.539  11.313   1.717 -0.1670 -0.0456  0.3378
28082W        W31302  10.252  16.642  18.175 -0.0255 -0.1914 -0.1174
28083W        W31303   9.426  16.861   4.107 -0.0367  0.0122 -0.0136
28084W        W31304   7.745  13.668  16.636  0.3267  0.0534 -0.1073
28085W        W31305  15.627   2.718   8.527 -0.2032 -0.4722  0.0950
28086W        W31306   8.770  17.126   5.174  0.0756  0.0401 -0.2394
28087W        W31307   6.487  17.669  13.664 -0.0586 -0.2509 -0.1361
28088W        W31308   8.816   0.166  10.380 -0.2052  0.1909 -0.2812
28089W        W31309  10.688  16.125   4.151  0.0506  0.2692 -0.1718
28090W        W31310   8.700   0.732   6.851 -0.5268  0.0324  0.1050
28091W        W31311   2.905  12.685   2.115  0.1550  0.0551  0.0593
28092W        W31312   4.348   0.924  14.822  0.0420 -0.2519  0.3408
28093W        W31313  11.183   3.014   5.775 -0.0578 -0.3467 -0.2569
28094W        W31314  10.147  14.430   8.628 -0.0069  0.2009  0.0826
28095W        W31315  17.360  15.845   5.591  0.1486 -0.0095 -0.6170
28096W        W31316   8.480   2.782   8.645 -0.1212  0.0242 -0.1185
28097W        W31317   1.925  14.569   6.148 -0.1929  0.3413 -0.2833
28098W        W31318   6.192  17.838   0.751  0.0165 -0.1710 -0.2326
28099W        W31319   9.469   1.286   7.500  0.3649 -0.1116  0.1724
28100W        W31320  10.277  13.671   0.036  0.0832  0.0764 -0.1086
28101W        W31321  15.256  13.862   7.291 -0.2490 -0.0028 -0.1668
28102W        W31322  14.229   2.012   7.414 -0.1159 -0.0256 -0.0519
28103W        W31323   4.868  11.237   5.814  0.1336 -0.0783  0.3914
28104W        W31324   0.088   1.517  14.922  0.1810 -0.0774 -0.2289
28105W        W31325  10.469  14.344   3.151  0.0681 -0.2781 -0.1071
28106W        W31326  10.418  12.789   4.462  0.0508 -0.3194  0.0553
28107W        W31327   5.911  18.151  14.572  0.1429  0.1734  0.0796
28108W        W31328   9.129  14.288   5.708  0.2001 -0.1291 -0.0181
28109W        W31329  16.263  13.431   2.450  0.1240 -0.2304  0.1046
28110W        W31330  11.376   2.700   3.202  0.0162  0.0593  0.0728
28111W        W31331  15.594   0.319  15.575 -0.1090  0.1263  0.1777
28112W        W31332   2.597   2.627   4.441  0.1809 -0.1054 -0.3941
28113W        W31333  17.813  12.871   8.255 -0.0664  0.3185 -0.0005
28114W        W31334  16.218  13.944  14.483 -0.1060 -0.0134  0.0613
28115W        W31335   0.533  13.200   4.255  0.2353  0.1185 -0.0214
28116W        W31336   9.943  12.605  11.368  0.0861 -0.2090  0.1385
28117W        W31337  11.401   4.575   1.006 -0.1471 -0.1363  0.1867
28118W        W31338   1.849  14.828   2.759 -0.1257  0.0028 -0.2301
28119W        W31339   0.004   7.237   9.436  0.2258  0.1854  0.0292
28120W        W31340   2.935   9.274  13.448 -0.2034  0.2604  0.0005
28121W        W31341   9.527  13.438   5.692  0.0646  0.0132  0.1814
28122W        W31342  12.079  12.876   6.056 -0.1061  0.2264 -0.1810
28123W        W31343  13.151   3.005   3.479 -0.1499  0.0038 -0.2906
28124W        W31344   5.975  15.127   5.559 -0.1438  0.3892 -0.0974
28125W        W31345  12.495  15.700   6.471  0.0190 -0.1487  0.1857
28126W        W31346   1.790   5.151  10.857  0.1628 -0.3339  0.1540
28127W        W31347   5.237  14.356   4.070 -0.0193 -0.2035 -0.0635
28128W        W31348  10.433  15.591   3.468  0.1238  0.0862 -0.3425
28129W        W31349  10.399  12.588   2.303 -0.2956 -0.2733  0.0569
28130W        W31350  15.314  15.539   6.953 -0.1597  0.2030  0.1452
28131W        W31351   8.433  10.829   1.431  0.0433  0.4571  0.1282
28132W        W31352   9.789  16.078   1.664 -0.0422 -0.2027 -0.3674
28133W        W31353  10.749  16.640  18.024  0.1901  0.2043  0.2291
28134W        W31354  16.260  12.819   7.148  0.1471  0.1540  0.2805
28135W        W31355  15.030  12.460  13.547  0.1235 -0.0667  0.0239
28136W        W31356  11.680  12.214   6.381  0.2022  0.2987  0.2016
28137W        W31357  10.299  17.575   1.862 -0.1651  0.1256 -0.2418
28138W        W31358   8.403  17.559   7.073  0.1317  0.1304 -0.0514
28139W        W31359  14.328  12.251   9.611  0.1807 -0.0312  0.0149
28140W        W31360   8.320  16.984   7.753 -0.2241 -0.0408  0.1025
28141W        W31361  17.742   2.161   4.437 -0.2142  0.0896 -0.1775
28142W        W31362   0.057   3.704  10.333  0.0227 -0.1972 -0.0728
28143W        W31363   8.502  18.196   4.273 -0.1473  0.1509  0.0369
28144W        W31364   7.860   1.611   2.543 -0.0645  0.0519  0.1047
28145W        W31365  16.766  16.528  12.302 -0.1954 -0.1361 -0.0076
28146W        W31366  10.849   7.533   6.643 -0.1481  0.2282  0.3588
28147W        W31367   6.992  16.761   1.422 -0.2308  0.1426 -0.0173
28148W        W31368  15.752  16.207   8.217  0.0202 -0.0044  0.0393
28149W        W31369   9.878  18.077  11.525  0.0498  0.0430 -0.2906
28150W        W31370   4.687   2.785  14.843  0.5413 -0.0059 -0.0029
28151W        W31371  12.864   0.202   9.334  0.0827 -0.0312 -0.0395
28152W        W31372   8.415   2.475   4.642  0.0570 -0.0253  0.0271
28153W        W31373   2.000  13.211  10.175 -0.2667  0.1561  0.3168
28154W        W31374  10.956   0.501   0.712  0.2285 -0.2148  0.1499
28155W        W31375   8.453   0.926   0.943  0.1043 -0.2316  0.1910
28156W        W31376   8.309   3.680  16.995  0.2927 -0.1090 -0.0923
28157W        W31377  14.977  14.325   8.269 -0.0285  0.2602 -0.2459
28158W        W31378   6.477   1.001   5.700 -0.0806 -0.0690 -0.1641
28159W        W31379   4.086  17.690  15.528 -0.2339  0.0287 -0.1498
28160W        W31380   5.465  13.964  11.990 -0.1856 -0.0078  0.4108
28161W        W31381  13.132  11.950  16.436  0.0841 -0.2523  0.0530
28162W        W31382   0.496   0.457   4.634 -0.0629  0.0184 -0.0551
28163W        W31383  12.457  13.299   1.725  0.0599 -0.0586 -0.0717
28164W        W31384  11.592  16.783   2.865 -0.0946 -0.0740 -0.2502
28165W        W31385   7.240   3.931   6.898 -0.1063 -0.0010 -0.2048
28166W        W31386   3.168   6.271   9.306  0.0009  0.0082 -0.1589
28167W        W31387   1.571  17.766   6.705  0.0440  0.1466 -0.0136
28168W        W31388  14.130  12.105   7.177  0.0283  0.2384 -0.0283
28169W        W31389  15.445   1.280   4.262  0.0230 -0.2619 -0.0716
28170W        W31390   6.254  13.703   1.731  0.1268 -0.1238 -0.2281
28171W        W31391   5.447  16.605  15.618 -0.0813 -0.3514  0.4177
28172W        W31392  18.192  16.420   5.038 -0.1975  0.0712 -0.0646
28173W        W31393   3.986  15.062   4.504 -0.3502 -0.1422 -0.0841
28174W        W31394  10.710  18.084   1.389 -0.1946  0.0151  0.4812
28175W        W31395  14.642  15.808  11.624 -0.1376 -0.2140 -0.3027
28176W        W31396   7.003  15.492   3.048 -0.1252  0.3203 -0.0800
28177W        W31397  12.819  12.398   8.707 -0.0573 -0.0505  0.1155
28178W        W31398   6.836   2.328   5.022 -0.1829  0.5079  0.1479
28179W        W31399   7.424  12.676   5.603 -0.2697 -0.1700  0.2819
28180W        W31400  18.149  13.199   1.691 -0.0295  0.2532  0.5346
28181W        W31401  11.016   3.528   1.075  0.1029 -0.0925 -0.1897
28182W        W31402   9.366  12.678  13.037  0.0281 -0.2272  0.1460
28183W        W31403   3.429  12.113   8.413  0.2361  0.0214 -0.0993
28184W        W31404  11.750  10.073   6.480 -0.0370 -0.1464 -0.0333
28185W        W31405   1.519  17.933   6.242  0.1181  0.2421  0.0143
28186W        W31406   7.135   4.588  11.426 -0.0490  0.2906 -0.4338
28187W        W31407   4.807  17.104  13.536  0.1594 -0.2411 -0.3208
28188W        W31408   6.680   1.571   3.935  0.2012 -0.4265  0.4833
28189W        W31409   5.076  14.333   2.527 -0.2490 -0.2934 -0.3234
28190W        W31410  13.412  10.129   3.370  0.0587  0.1030  0.1495
28191W        W31411   0.675  13.107   1.865 -0.0627 -0.1836 -0.2868
28192W        W31412   9.293  12.320   4.982  0.4575 -0.2265 -0.0526
28193W        W31413  10.746   2.358   8.270  0.2193  0.2129 -0.3676
28194W        W31414   6.917  17.664   3.086  0.0754  0.1668  0.0725
28195W        W31415  12.830  12.590   4.107  0.1053 -0.2565  0.0942
28196W        W31416   5.874   8.647   7.043  0.1698  0.0715 -0.0229
28197W        W31417  14.549   1.742  11.661  0.2542 -0.1670 -0.1293
28198W        W31418   5.811  11.838   2.833  0.0411  0.2443  0.3965
28199W        W31419   9.563  15.904   5.149 -0.2849  0.0669  0.2922
28200W        W31420   1.291   0.126  12.103  0.1909  0.3585  0.1405
28201W        W31421   5.780   2.280  10.686 -0.2736 -0.1692  0.0812
28202W        W31422   5.627  12.520   4.551  0.3589 -0.3741  0.1384
28203W        W31423   2.121  16.720   6.882  0.1001  0.0236  0.1593
28204W        W31424  13.582   4.503  10.391  0.1749  0.0304 -0.1669
28205W        W31425  14.689  10.278   8.378 -0.0613 -0.1671  0.0882
28206W        W31426  11.133  14.346  10.299  0.0554  0.1999 -0.4611
28207W        W31427   5.741  12.062  13.476 -0.0168  0.1708  0.1976
28208W        W31428  13.750   0.133   5.991 -0.1332 -0.0057  0.1300
28209W        W31429  15.199  14.077   7.781  0.0088 -0.4802 -0.2231
28210W        W31430  13.477  17.419   4.838 -0.0527 -0.1526  0.2257
28211W        W31431   8.776   4.424   7.830  0.4333 -0.0745 -0.3197
28212W        W31432   9.420  17.840   1.716 -0.1472  0.2862  0.0751
28213W        W31433  12.250  18.046  16.305 -0.1008  0.1425  0.1040
28214W        W31434   9.970  14.770   8.201 -0.0180 -0.1453 -0.0192
28215W        W31435  15.869   4.817   8.473 -0.0539 -0.2305 -0.0111
28216W        W31436  13.601   0.661  10.810 -0.2019 -0.2981 -0.2344
28217W        W31437   0.148   1.659  10.022 -0.2255 -0.1246  0.5064
28218W        W31438   5.520  12.227  10.416 -0.3429  0.0613  0.0534
28219W        W31439   9.232  14.239  17.709 -0.1689 -0.0201 -0.1922
28220W        W31440   6.748  18.065   4.295  0.1197  0.5094 -0.1752
28221W        W31441   8.101  12.079  18.167  0.2804 -0.1563 -0.0486
28222W        W31442  15.924   2.569   8.890 -0.0173 -0.3484  0.2888
28223W        W31443  13.542   1.757   8.826 -0.0864  0.0847  0.0617
28224W        W31444  15.519  12.681   6.663 -0.1240 -0.0920 -0.0383
28225W        W31445  11.418  13.139   6.333  0.1197 -0.2814  0.1937
28226W        W31446   8.190  16.972   3.352  0.1659  0.1830  0.1474
28227W        W31447  11.568   2.770   7.847  0.1190  0.2483 -0.0105
28228W        W31448   0.373   7.110  11.072  0.1419  0.3192  0.1164
28229W        W31449  15.595  16.782   5.738  0.0134 -0.2451 -0.2752
28230W        W31450  11.414  10.834   5.694  0.2376 -0.1761 -0.3979
28231W        W31451   0.527   2.683   9.085 -0.1684  0.0296  0.1724
28232W        W31452   5.364  17.938   8.393 -0.0030 -0.0477  0.3182
28233W        W31453   3.302   4.044  10.159 -0.0993  0.4359  0.3491
28234W        W31454   6.224  15.768   9.198  0.1815  0.0281  0.0213
28235W        W31455  13.396   2.989  18.235 -0.1599  0.0100 -0.0403
28236W        W31456   9.792   1.608  11.558  0.2734  0.0044 -0.3761
28237W        W31457  12.772  12.113   2.709  0.4741 -0.0268 -0.2234
28238W        W31458  11.547  12.750   8.217  0.0732 -0.0131  0.2090
28239W        W31459   6.989  17.309   4.995 -0.1251 -0.1821 -0.1331
28240W        W31460   9.616   0.274  14.366 -0.0523 -0.1630  0.2601
28241W        W31461   9.777  15.279   2.263  0.1449 -0.0509  0.0944
28242W        W31462   9.211   2.481   4.411 -0.3527  0.0900  0.1245
28243W        W31463   7.096  17.552  17.121  0.1403  0.0655  0.1727
28244W        W31464   5.339  15.471   3.895 -0.0715 -0.2217  0.0355
28245W        W31465  11.920   1.407   1.571  0.4220 -0.0283 -0.1677
28246W        W31466   5.235  14.617   4.527  0.2759 -0.1574 -0.1285
28247W        W31467  10.071  17.426   5.350  0.2906 -0.1645  0.3309
28248W        W31468  12.264  18.228  14.320 -0.0246 -0.1482 -0.0925
28249W        W31469  13.671  14.774   3.182 -0.1151  0.0860 -0.0790
28250W        W31470   9.972  14.720  12.103  0.0338  0.0483 -0.2953
28251W        W31471   9.063  11.510   4.819 -0.0626 -0.0500 -0.0429
28252W        W31472   7.256  13.491   2.106  0.4250  0.1841 -0.0887
28253W        W31473  17.826   0.143   5.705 -0.0504  0.3476 -0.2070
28254W        W31474   7.989  17.415   3.600  0.0647  0.0536  0.0554
28255W        W31475  13.495   0.604  17.674  0.1802 -0.1838  0.0917
28256W        W31476   9.533   5.551   5.050  0.2632 -0.0180  0.1351
28257W        W31477   6.237  16.674   2.695  0.1617 -0.1866 -0.0487
28258W        W31478  11.148  11.304   9.722  0.0367 -0.4558 -0.1720
28259W        W31479   3.729   5.942  10.619 -0.1036  0.3609 -0.0489
28260W        W31480  10.547  16.161  16.153 -0.0003 -0.0004 -0.2801
28261W        W31481   8.612   0.323   9.564  0.0661  0.1769 -0.0452
28262W        W31482  17.009   0.760  17.063  0.3808 -0.0197  0.2539
28263W        W31483   8.089  10.517   2.274 -0.0539 -0.4680  0.0648
28264W        W31484  10.468   1.195  14.061 -0.0991  0.0874  0.2137
28265W        W31485   9.745  11.798   1.906  0.1126  0.0433 -0.0408
28266W        W31486   7.870   1.293  15.839  0.2235 -0.1486  0.3158
28267W        W31487   9.316  16.128  10.056 -0.2884  0.0606 -0.2390
28268W        W31488   6.312   3.215   3.860  0.4310 -0.1274  0.2234
28269W        W31489  11.681  17.015   6.411  0.0424  0.0401 -0.1070
28270W        W31490   7.122   5.843  10.007 -0.0523  0.1678 -0.0848
28271W        W31491   4.569  12.051  16.198 -0.2403  0.0211 -0.2670
28272W        W31492   4.694  16.420   9.222 -0.0849  0.0599  0.0515
28273W        W31493   5.832  11.639   0.121 -0.0901 -0.1990  0.1086
28274W        W31494   2.579  17.246   5.143 -0.2160  0.1230  0.0545
28275W        W31495  11.782   0.030  13.516 -0.0823 -0.0373  0.0042
28276W        W31496   8.098  13.845   3.817  0.0523 -0.2121  0.2694
28277W        W31497  12.019  15.873   8.937 -0.1124  0.0348  0.0033
28278W        W31498  17.096  15.440   6.407 -0.1272  0.2655  0.0463
28279W        W31499  16.724  12.538  18.220 -0.0041  0.0040  0.0699
28280W        W31500  13.926  14.382   7.835 -0.0805  0.0777  0.3104
28281W        W31501  10.334  17.290   4.937 -0.1493 -0.1159  0.0448
28282W        W31502   6.763   9.209   8.549 -0.0794 -0.2608 -0.0508
28283W        W31503  10.074   1.988   7.625 -0.2154 -0.2636 -0.0179
28284W        W31504   9.876  17.748   3.730 -0.4432  0.1578  0.1830
28285W        W31505  11.029  11.701  17.221  0.0697 -0.0990 -0.1884
28286W        W31506  10.585  10.349   5.877  0.3955 -0.1856  0.0669
28287W        W31507  10.647   0.770   7.099  0.2548 -0.2161  0.1629
28288W        W31508   4.117  15.443   1.569 -0.2012 -0.2639  0.1528
28289W        W31509  10.173  18.123   6.187  0.1384 -0.2717  0.1107
28290W        W31510   5.856  17.682   7.208 -0.0095  0.2679 -0.1147
28291W        W31511  11.178   9.640   3.731  0.0395  0.1443  0.1646
28292W        W31512   8.517  16.058   4.418  0.4729 -0.0483 -0.0234
28293W        W31513  11.193  12.342   8.185  0.1371 -0.0937  0.2676
28294W        W31514   5.865   1.954   7.187 -0.0805 -0.0783  0.0211
28295W        W31515   3.379  16.569   5.206 -0.3584 -0.1001 -0.0097
28296W        W31516  15.476  16.293   9.522 -0.2776 -0.3280 -0.0011
28297W        W31517   6.926   5.813   0.771  0.0424  0.2731  0.2481
28298W        W31518  12.690  16.773   4.538  0.0256 -0.0600  0.0189
28299W        W31519   4.347  16.075   8.217 -0.0568  0.0344 -0.3328
28300W        W31520  14.416  16.683   9.384 -0.1836 -0.0533  0.1042
28301W        W31521  13.100  18.240   4.143 -0.1284  0.0014 -0.3642
28302W        W31522   6.117  16.822   7.052  0.0363 -0.1656 -0.0717
28303W        W31523  17.205  12.838   5.058  0.1996 -0.1386  0.2742
28304W        W31524  11.062   7.899   2.564  0.0604 -0.2403  0.1291
28305W        W31525   1.182  14.013   4.051  0.1129  0.1038 -0.3642
28306W        W31526   6.538  10.763   9.522  0.0733  0.2940  0.1570
28307W        W31527   9.435  17.067   6.598 -0.2483 -0.0180 -0.0275
28308W        W31528  12.272  18.122  12.462  0.1466 -0.1140  0.1471
28309W        W31529   0.316   4.711   9.802 -0.1773 -0.3394  0.1995
28310W        W31530   8.898  18.179   9.505  0.0923 -0.2147  0.0472
28311W        W31531   8.475  13.088   2.321 -0.1611 -0.1620 -0.0351
28312W        W31532   3.150   8.706   4.856 -0.3949  0.3057 -0.2049
28313W        W31533   7.224  15.294   0.588  0.0492  0.0794  0.1156
28314W        W31534  11.727  13.331   1.532 -0.2745  0.0091 -0.2159
28315W        W31535   7.971   9.954  10.425  0.2987  0.0524 -0.2069
28316W        W31536   9.618   2.649   1.651  0.1016  0.1473  0.2164
28317W        W31537  17.144  11.975   2.496  0.1871 -0.3641  0.1734
28318W        W31538  12.074  16.191   5.950 -0.2119 -0.2042  0.0432
28319W        W31539   9.551   2.314   2.023 -0.1823  0.2371 -0.3110
28320W        W31540   4.148   1.793   7.422 -0.3155 -0.1864  0.0711
28321W        W31541  10.857  15.814   6.849  0.1794  0.0073  0.1754
28322W        W31542   4.082  16.717   1.193  0.0370 -0.1370  0.1892
28323W        W31543   8.979   9.121   3.808  0.2071  0.0063 -0.0893
28324W        W31544  15.814  12.135   3.875  0.1217 -0.0538  0.2150
28325W        W31545   6.652   5.936  10.853 -0.1659  0.0477  0.0204
28326W        W31546   8.088  18.029   2.280  0.2017  0.1012  0.0639
28327W        W31547  10.028   2.256   7.101  0.1160  0.0380  0.1903
28328W        W31548   2.771  12.338  11.556  0.2681  0.0857 -0.0841
28329W        W31549  13.778  14.509   4.517 -0.0521 -0.0129 -0.0162
28330W        W31550   6.862  15.090   4.312  0.2576  0.1793 -0.2124
28331W        W31551   3.825  14.790   4.889 -0.2155 -0.0189 -0.0461
28332W        W31552  17.467  16.951  16.472 -0.1910 -0.0957  0.0453
28333W        W31553  14.535   1.870   5.032 -0.1680 -0.1550  0.0085
28334W        W31554  13.679  12.095   6.861  0.0344 -0.1684  0.1584
28335W        W31555   7.357   2.021   6.816  0.2612  0.2386 -0.2101
28336W        W31556  12.066  13.926   7.080 -0.2814  0.0171 -0.0527
28337W        W31557  11.351  13.627   6.503  0.1045  0.1625 -0.1047
28338W        W31558  12.610  17.144   7.987 -0.1868  0.1372 -0.2388
28339W        W31559   8.103   9.013   3.754 -0.1834 -0.0265 -0.2008
28340W        W31560  12.407   1.200   9.643 -0.2441  0.2170  0.2836
28341W        W31561   0.473  14.213   5.288  0.0613  0.1127 -0.1434
28342W        W31562   1.216  12.866   3.721 -0.0063  0.1064  0.2217
28343W        W31563   7.183  17.856   4.355  0.0282  0.1219 -0.1589
28344W        W31564   5.619  15.784   3.095  0.3467  0.0132 -0.0736
28345W        W31565  11.188  14.946   7.618 -0.0793  0.5182  0.2219
28346W        W31566   5.505   9.687  14.065  0.1701 -0.1871  0.0269
28347W        W31567   3.410   2.094  17.587  0.2248  0.2263  0.0856
28348W        W31568   7.597   0.818   0.958 -0.0648  0.0795  0.0500
28349W        W31569   8.450  16.764   6.779  0.0322  0.2883 -0.1831
28350W        W31570   0.977  13.330   4.865  0.2732  0.0195  0.1088
28351W        W31571   2.229   0.970   9.849 -0.0708 -0.2046  0.0457
28352W        W31572  10.429  17.028   3.439 -0.2630  0.2174  0.1489
28353W        W31573   3.156  12.565   6.691  0.4193 -0.1360  0.1640
28354W        W31574   2.139   1.320   9.495  0.0998  0.0038  0.5457
28355W        W31575  12.472  13.967   3.391  0.0905 -0.2946 -0.1366
28356W        W31576  13.738   3.444   2.982  0.2100  0.0967 -0.5564
28357W        W31577   6.965  17.166   3.910  0.2717 -0.1957 -0.0965
28358W        W31578  18.214  11.754   1.082 -0.0228  0.5397  0.0391
28359W        W31579  12.803   0.470   4.723  0.0181 -0.1214  0.0259
28360W        W31580  12.254  11.510   0.439 -0.3519 -0.2809  0.1465
28361W        W31581   4.652   0.429   6.085 -0.0943  0.1129  0.3965
28362W        W31582   9.360   0.788   7.557  0.0608  0.0679  0.1157
28363W        W31583   4.369  14.899   7.564  0.2600  0.3215  0.3473
28364W        W31584   5.827  14.753   5.262  0.0520 -0.0305 -0.0066
28365W        W31585   7.087  16.008   8.039  0.0662  0.1744 -0.1491
28366W        W31586   9.773  15.849   4.164 -0.1029  0.1979  0.2009
28367W        W31587  13.869   0.808   0.980 -0.0455 -0.0654  0.2686
28368W        W31588  10.503  11.775   6.457 -0.0976  0.1243 -0.1099
28369W        W31589   4.819   1.974   5.345 -0.2360  0.1464 -0.4392
28370W        W31590   3.743  15.425  15.499 -0.3383  0.0954  0.1191
28371W        W31591  11.604   0.002   2.487  0.0418  0.0938 -0.3031
28372W        W31592  11.149  13.957   7.368 -0.2116 -0.1126  0.0327
28373W        W31593   6.962   2.278  11.237 -0.2900  0.2160  0.1797
28374W        W31594   3.848  13.082  10.033  0.0848 -0.0905  0.1068
28375W        W31595  13.385   0.088   1.110 -0.1409 -0.0295 -0.0570
28376W        W31596  10.301  15.123   2.237  0.1675  0.3533  0.1912
28377W        W31597   5.284  16.668   6.569  0.2358 -0.2116  0.0952
28378W        W31598   6.091  13.296  12.932  0.0117  0.0564  0.3829
28379W        W31599  11.925  14.726   7.474 -0.3414 -0.1534 -0.1753
28380W        W31600   5.028  17.069   7.996  0.2980  0.1785 -0.3641
28381W        W31601   6.982  16.518   1.008  0.0653 -0.1211  0.3298
28382W        W31602  14.562  15.673   8.403  0.1570 -0.0112 -0.0860
28383W        W31603   9.710  11.960   7.240  0.2976 -0.3639  0.2245
28384W        W31604  15.924  16.142   8.737 -0.2571 -0.0518 -0.3624
28385W        W31605  10.368   3.127   4.727  0.0758  0.1234  0.1396
28386W        W31606   2.824  15.391   7.258 -0.2146  0.1313 -0.0018
28387W        W31607  12.004  16.199   4.251 -0.1329  0.1346  0.1044
28388W        W31608  10.455  10.719   6.274  0.2291 -0.1167 -0.2958
28389W        W31609  10.158   5.933   6.869 -0.1082 -0.0807 -0.0269
28390W        W31610  11.910   7.006   3.484 -0.1371 -0.0084 -0.0071
28391W        W31611  11.841  10.018   5.887  0.1368 -0.0623 -0.0424
28392W        W31612   8.301  13.359   4.407  0.0757 -0.2447  0.3076
28393W        W31613   9.537   2.900  10.900  0.2334 -0.0351 -0.0562
28394W        W31614  10.303   5.182   6.210 -0.4531 -0.1771 -0.0058
28395W        W31615  10.107  16.399  13.492  0.1783 -0.1890  0.2408
28396W        W31616   9.251   3.675   7.677 -0.1256  0.2841  0.2966
28397W        W31617  15.539  14.350  10.875 -0.0848  0.0995 -0.3342
28398W        W31618  11.124  16.291   1.728  0.1262 -0.0596 -0.1278
28399W        W31619   8.266  16.320   2.808 -0.0271 -0.0176  0.1737
28400W        W31620   5.882  10.235   7.809 -0.0934  0.0632 -0.4002
28401W        W31621  14.707   7.880  10.318  0.1077  0.2134  0.1410
28402W        W31622   4.542  17.717  12.694 -0.0652  0.1626 -0.1291
28403W        W31623   3.209  16.404   0.212  0.0352  0.0879  0.3224
28404W        W31624   3.352  16.184   9.316 -0.0676 -0.2370 -0.2104
28405W        W31625   9.470  16.102  15.513 -0.0031  0.1677  0.1205
28406W        W31626   9.660   2.506   4.595 -0.2339 -0.2717 -0.0418
28407W        W31627  10.550   1.218   5.635  0.0888 -0.0311 -0.2853
28408W        W31628  11.745  10.261   2.812  0.2965 -0.1707 -0.0454
28409W        W31629   0.981  17.748   8.221  0.0971 -0.0395  0.0860
28410W        W31630  10.427   9.379  13.290  0.0375  0.0317 -0.0945
28411W        W31631   3.246   3.471  13.727  0.0285  0.1454  0.1658
28412W        W31632   5.830  15.466   9.576 -0.0674 -0.1196 -0.2311
28413W        W31633  10.196  17.365   0.561  0.1619  0.2473 -0.0306
28414W        W31634  13.635  15.119  17.710 -0.0185  0.0521  0.2077
28415W        W31635   1.835  14.692  12.893  0.1725 -0.1405  0.2586
28416W        W31636  11.686   7.392   4.516 -0.1562  0.1510  0.0690
28417W        W31637   9.431   1.618   8.293 -0.5181  0.1938  0.1176
28418W        W31638   9.232   7.284  10.414 -0.0598  0.5660  0.0973
28419W        W31639   5.732   0.823   6.419 -0.1980  0.2410  0.3585
28420W        W31640   8.996  15.508   8.697 -0.3316 -0.0780  0.3310
28421W        W31641   8.187   9.097   4.368  0.1373 -0.0562 -0.0301
28422W        W31642   9.250  14.008   6.418 -0.0270  0.0745  0.1446
28423W        W31643   8.083  13.961  17.217 -0.0193  0.0742  0.1224
28424W        W31644  14.407   3.863  15.084 -0.1887 -0.1990  0.0616
28425W        W31645   7.148   7.058  14.633 -0.0727 -0.0512  0.0053
28426W        W31646   4.941   6.417   4.637  0.0583 -0.0998 -0.1589
28427W        W31647   7.679  14.432   7.088 -0.1085 -0.0378  0.0040
28428W        W31648  14.527   2.395   6.482 -0.1131  0.1254  0.0377
28429W        W31649   7.458  17.810   7.334 -0.0515 -0.0545 -0.0392
28430W        W31650   7.285   1.181   8.394 -0.0986 -0.2263 -0.3019
28431W        W31651  14.145  13.871  17.234  0.1029 -0.1917 -0.1504
28432W        W31652  10.133   7.737   9.036  0.1501  0.0922 -0.1297
28433W        W31653   6.934   3.788   8.309 -0.0254  0.3247 -0.0456
28434W        W31654   9.366  10.848  10.380 -0.2030 -0.3510  0.0996
28435W        W31655   2.910  15.023   4.231  0.1834  0.0114 -0.0216
28436W        W31656   9.537   3.328   2.916 -0.0867 -0.0259  0.0464
28437W        W31657   7.367  18.169   8.529  0.1027  0.0571 -0.0290
28438W        W31658  11.095   0.400  12.134  0.0342  0.1196  0.1150
28439W        W31659   7.127   2.696   4.389 -0.0069 -0.0707  0.0444
28440W        W31660  12.324  15.674   6.014  0.2067 -0.1402  0.1966
28441W        W31661   1.313  15.315   4.022  0.0928 -0.0283  0.0482
28442W        W31662  10.372  18.200   2.945  0.0905 -0.2988  0.2767
28443W        W31663   9.478  17.974  10.789  0.0348  0.1316 -0.0815
28444W        W31664   6.210  14.528  10.188  0.0191 -0.1280 -0.0483
28445W        W31665  15.857  18.259  16.935 -0.2977  0.2817  0.1211
28446W        W31666   4.622   2.686  15.416 -0.0237 -0.3425 -0.0454
28447W        W31667   4.687  14.712   5.238  0.1593  0.0061  0.3235
28448W        W31668   5.101  16.187  10.539 -0.1195 -0.0952  0.2991
28449W        W31669   7.335  17.656  12.976  0.0864  0.0527 -0.0346
28450W        W31670   7.824   8.590   8.368 -0.2856  0.0435 -0.0324
28451W        W31671  17.004  11.233   4.258  0.1658 -0.0782 -0.0678
28452W        W31672   7.864  17.776  12.162 -0.1314 -0.1916 -0.1197
28453W        W31673  13.777  17.459   5.791  0.1878  0.0293 -0.0071
28454W        W31674   6.109   1.607   7.491 -0.0467  0.0239  0.2932
28455W        W31675   4.114   0.421   9.847  0.1792 -0.0533  0.2541
28456W        W31676   8.126  11.867   2.347  0.1458 -0.0177 -0.3508
28457W        W31677   8.678   4.250   9.072  0.3287 -0.1919 -0.0579
28458W        W31678   8.106   7.406   6.945  0.3199  0.1739 -0.0533
28459W        W31679   6.605  15.484  10.281 -0.2180  0.1907  0.0049
28460W        W31680   8.797  11.837   7.176 -0.0888 -0.0961  0.0851
28461W        W31681  10.763  17.723   5.085 -0.1665  0.1900 -0.4159
28462W        W31682  11.128  11.273  18.222  0.1228  0.1050  0.1594
28463W        W31683   9.530   2.965  12.484 -0.0366  0.0932  0.0129
28464W        W31684  10.882   3.359  10.844  0.1257  0.2872  0.1067
28465W        W31685  12.212  13.570  17.561  0.0958  0.0523  0.0561
28466W        W31686  16.264   3.291   9.311 -0.1125  0.2315  0.0223
28467W        W31687  14.719  11.425   6.153 -0.0458  0.1659 -0.1226
28468W        W31688   9.492   1.423  10.665 -0.2959  0.2019 -0.0910
28469W        W31689  10.403   8.602   9.487  0.0407 -0.1936 -0.1151
28470W        W31690   7.966  14.405   9.111 -0.1957  0.4389  0.3773
28471W        W31691  10.170  16.855  12.587 -0.3784  0.0073 -0.1196
28472W        W31692   9.912  16.837   5.549 -0.0514 -0.0872  0.1714
28473W        W31693   0.001  13.726   9.228 -0.1065  0.2041 -0.3343
28474W        W31694   8.568  13.349  12.116 -0.1522 -0.2105 -0.0215
28475W        W31695   6.983  15.889   0.540 -0.1808  0.1619 -0.0554
28476W        W31696   8.630  10.809   6.867 -0.1774  0.0749 -0.0117
28477W        W31697  14.766  13.448   7.224  0.1782 -0.2128  0.0753
28478W        W31698  15.082   8.730   6.054 -0.1855 -0.1045 -0.1545
28479W        W31699   3.859  17.050   4.441 -0.1767  0.1400 -0.0465
28480W        W31700   6.605  13.626   9.015 -0.0864 -0.4320 -0.0990
28481W        W31701   5.999  16.704  14.856 -0.0706 -0.0321 -0.0276
28482W        W31702   5.772  15.993   6.215 -0.0653  0.1016  0.1997
28483W        W31703   2.404   1.654   7.925  0.1071 -0.0718 -0.2856
28484W        W31704   8.081   0.629   8.425  0.3675  0.2781 -0.0040
28485W        W31705   6.911  15.096  10.222  0.1174  0.0411  0.1252
28486W        W31706   8.334  16.742   3.752 -0.3108  0.2191 -0.3239
28487W        W31707   1.289  16.939  10.310  0.0959 -0.0759 -0.2751
28488W        W31708   5.790  14.399   2.831 -0.0343 -0.0641 -0.3430
28489W        W31709  14.526  16.007   6.639  0.0667  0.0539  0.0039
28490W        W31710  12.612   1.786  11.494 -0.2597  0.1466 -0.1052
28491W        W31711   9.090  18.000  10.303  0.1777 -0.1334  0.0213
28492W        W31712  10.105   9.423  10.458 -0.2132 -0.0399  0.1285
28493W        W31713  10.921  14.500   6.165 -0.0503  0.1177 -0.2081
28494W        W31714   6.548   3.140  11.618  0.0722  0.0110 -0.0046
28495W        W31715   4.945   9.741  11.908 -0.1019 -0.1331 -0.0618
28496W        W31716  11.664   0.789   9.145 -0.2745 -0.4271 -0.0569
28497W        W31717   7.409   7.401   3.792  0.0479 -0.0878  0.0022
28498W        W31718   8.861  14.647   1.323  0.0145  0.1869  0.0213
28499W        W31719  13.616   6.417   2.389  0.0021 -0.0278  0.3794
28500W        W31720   6.548   0.156   9.105  0.3512 -0.1061  0.4612
28501W        W31721  11.011  13.083   3.989  0.4570 -0.0904 -0.1097
28502W        W31722  12.574  17.327   9.134  0.0864 -0.1048  0.0628
28503W        W31723   3.233  16.502  13.100 -0.0118  0.2065 -0.1139
28504W        W31724   8.154  11.324   7.040  0.2113  0.1561 -0.1564
28505W        W31725  14.137  16.139  16.796 -0.3713  0.0604 -0.2748
28506W        W31726   6.874   2.371  11.736  0.1141 -0.0049 -0.0719
28507W        W31727  13.795  12.759  10.830 -0.0488 -0.2302  0.2131
28508W        W31728  11.348   3.167  12.435 -0.6617  0.1080  0.0545
28509W        W31729  14.447   8.253   2.933  0.3074  0.0929 -0.1267
28510W        W31730  15.162  12.538   9.056  0.1865  0.3070  0.2828
28511W        W31731  16.025  17.649   0.464 -0.1197  0.1478  0.0632
28512W        W31732  13.956  14.066   4.656  0.0515  0.0475 -0.1889
28513W        W31733   8.460  14.481   6.412  0.0836  0.0964  0.0559
28514W        W31734   8.931   2.328  10.899 -0.0233 -0.0319 -0.2878
28515W        W31735   5.212  13.211   8.307  0.1042 -0.2915 -0.0892
28516W        W31736  12.683   2.116   6.935  0.2561 -0.0550  0.3409
28517W        W31737  13.468  15.828  10.486  0.2286 -0.0770 -0.1103
28518W        W31738  17.530   7.950   8.465  0.1471  0.2298 -0.0959
28519W        W31739  14.215  13.693  13.638  0.1488  0.1525 -0.0511
28520W        W31740   3.248   3.085   8.604  0.0198  0.2251  0.2221
28521W        W31741  12.920  13.589   8.714 -0.0865  0.0304 -0.4397
28522W        W31742  12.553   9.864  13.781  0.0225 -0.0867 -0.3362
28523W        W31743  12.787  18.257   8.353  0.1900 -0.0814  0.0700
28524W        W31744   8.331   3.792   5.259  0.0783 -0.1122 -0.1738
28525W        W31745   6.325   0.260   7.282  0.1348  0.0569 -0.1080
28526W        W31746   8.329   2.208   8.128 -0.0523  0.1244  0.1154
28527W        W31747  15.050  15.976   6.595 -0.0047 -0.0944 -0.1545
28528W        W31748   4.522  16.977   5.110 -0.3739 -0.1945 -0.0513
28529W        W31749  10.758  14.487   1.586 -0.0726  0.0423 -0.2608
28530W        W31750  11.973   2.277  13.968 -0.1455 -0.2515 -0.1069
28531W        W31751   4.538  13.176  14.619 -0.0756 -0.0044 -0.1074
28532W        W31752   3.752  15.707  12.624  0.0371  0.5141  0.1329
28533W        W31753  16.785   1.600  12.627  0.1875 -0.2847  0.1541
28534W        W31754  11.709   2.258   9.359  0.1209  0.0141  0.0284
28535W        W31755  12.159   5.074   8.026 -0.1913  0.0862 -0.0140
28536W        W31756  10.156  15.627   9.169 -0.0363  0.1463 -0.1912
28537W        W31757   6.576  14.420  12.868  0.3638 -0.0579  0.2000
28538W        W31758  11.193  17.432   6.977 -0.0166 -0.1857  0.0501
28539W        W31759   2.348  15.607  11.274 -0.0666 -0.0794 -0.1874
28540W        W31760  10.076  16.977   7.567  0.3806  0.2070  0.2408
28541W        W31761   9.085  15.551  13.356 -0.3089  0.2923  0.0084
28542W        W31762  13.990  13.727   9.065  0.4430 -0.0836  0.1960
28543W        W31763   2.039   4.648  13.068 -0.0656 -0.1631 -0.3157
28544W        W31764   7.876  15.192   6.452 -0.0048 -0.1941  0.0164
28545W        W31765   8.061  12.534  16.033 -0.1681  0.4094 -0.1349
28546W        W31766   7.157   9.680   5.754  0.1412 -0.1606 -0.0208
28547W        W31767  13.663   0.674  16.298  0.2006  0.0719 -0.0262
28548W        W31768   6.840  16.054  12.993 -0.0283  0.0420  0.1906
28549W        W31769  13.575  17.241   8.059 -0.0441 -0.3787 -0.0105
28550W        W31770   8.833  15.097   6.158  0.2224  0.1841  0.0164
28551W        W31771   1.067  13.252  12.686 -0.0795  0.0323 -0.1337
28552W        W31772  11.382  12.574   5.678  0.1460  0.2273 -0.2912
28553W        W31773   7.784   0.589   9.087 -0.1488  0.1173 -0.0162
28554W        W31774  13.033   0.897   5.023  0.1325 -0.2121  0.3129
28555W        W31775   7.129  16.511   6.960 -0.1501 -0.0138 -0.1120
28556W        W31776   2.762  15.638  12.677 -0.0951  0.1672  0.0286
28557W        W31777  10.283  14.927   6.023  0.0484  0.0310  0.3900
28558W        W31778   9.626   0.811   8.115 -0.1539  0.2440 -0.0204
28559W        W31779  15.773   0.217   0.144  0.1416  0.1580 -0.0119
28560W        W31780   9.130  17.735   8.425 -0.5481 -0.0943 -0.2334
28561W        W31781   7.350  10.523   5.272  0.0528  0.1762 -0.3365
28562W        W31782  15.981  10.428   5.462  0.4755  0.1672  0.2424
28563W        W31783  10.293  15.037   3.945  0.4348 -0.2463 -0.1818
28564W        W31784   6.536   2.743   5.592  0.0909 -0.4410 -0.0362
28565W        W31785   7.945  11.146  15.101  0.0987  0.2284  0.0025
28566W        W31786  10.602  17.451   3.850  0.0363 -0.2525  0.0329
28567W        W31787  10.683  10.945   4.499 -0.0202 -0.0722  0.1125
28568W        W31788   9.908   2.691   9.949  0.2809  0.2214  0.1222
28569W        W31789  16.021   0.050   9.860 -0.1254 -0.0343  0.2766
28570W        W31790   4.687   7.784   6.785  0.1583 -0.1814  0.1341
28571W        W31791   4.869  17.117  14.455 -0.3312  0.0761  0.1866
28572W        W31792  13.082  17.913   4.958  0.2534  0.0413 -0.1078
28573W        W31793   9.461   2.936   6.660  0.0705 -0.1000 -0.0827
28574W        W31794   1.407   3.537   4.913 -0.0702  0.4898  0.0608
28575W        W31795   9.708  16.027  11.111 -0.1323  0.1414  0.0255
28576W        W31796   4.540  17.774  10.910 -0.2449 -0.2438 -0.0386
28577W        W31797   9.662  13.815   6.746  0.0170 -0.0428  0.0149
28578W        W31798  10.826  12.441   9.392 -0.0858 -0.1632  0.0754
28579W        W31799  10.512  15.963   6.481 -0.0285  0.2536  0.2026
28580W        W31800   8.769   3.357   7.727  0.1829 -0.1823 -0.0291
28581W        W31801   0.608  17.475   9.379 -0.1242  0.2809 -0.0551
28582W        W31802  13.781   2.645   8.576  0.1871 -0.2149 -0.2680
28583W        W31803   8.078   5.455  13.035  0.0861 -0.1086  0.1190
28584W        W31804   0.723  15.600   8.782 -0.0125 -0.0817 -0.0832
28585W        W31805  12.901  11.620  14.393  0.1337  0.1372  0.0603
28586W        W31806   6.894   9.965   8.208  0.0853  0.1560 -0.0133
28587W        W31807   5.610  18.174  11.176 -0.1861  0.2460 -0.3694
28588W        W31808   6.117  14.126   8.265  0.1209 -0.0254  0.0344
28589W        W31809   8.085   7.011  13.200 -0.0454 -0.2397  0.0963
28590W        W31810   0.076  11.547  12.130  0.0610 -0.3140  0.0350
28591W        W31811  14.335   2.605   8.662  0.3162 -0.1160 -0.3202
28592W        W31812   8.731   0.816   4.511  0.1328 -0.1656  0.0911
28593W        W31813   6.005  14.270   5.280  0.2074 -0.0021  0.0928
28594W        W31814  15.771  18.126   8.856  0.3167 -0.1479  0.1445
28595W        W31815   8.964  15.008   6.655  0.1665 -0.0587  0.3392
28596W        W31816  13.461  14.556  10.176 -0.1812  0.0207 -0.0127
28597W        W31817   2.070  17.705  14.374 -0.3512  0.1349  0.0578
28598W        W31818   9.103  17.238   2.416 -0.0450  0.0935 -0.1000
28599W        W31819  10.054   3.225   8.993 -0.1016  0.1061  0.1931
28600W        W31820  13.543  15.755  11.768  0.0081  0.2638 -0.2356
28601W        W31821  13.937  12.989   8.674 -0.2565 -0.1450  0.1497
28602W        W31822  10.625  13.326   4.316 -0.1888  0.2750  0.2827
28603W        W31823  12.232  16.895  10.552 -0.1020 -0.0426  0.3055
28604W        W31824  13.264  17.539  17.850  0.0354 -0.1617 -0.2761
28605W        W31825   5.418   5.036  10.584  0.0371  0.0328  0.1782
28606W        W31826  11.548   7.329   3.729 -0.0185 -0.0268  0.0229
28607W        W31827  12.219  12.116   2.825  0.0187 -0.2611  0.0700
28608W        W31828  10.647  14.045  10.257  0.2229 -0.0434  0.0334
28609W        W31829  11.616  15.417  10.811  0.0851 -0.0491  0.4273
28610W        W31830   9.648  14.933   9.207  0.1194  0.1369 -0.4781
28611W        W31831   4.764   1.129   9.417 -0.0502  0.2847  0.0904
28612W        W31832   9.421   2.396  10.821 -0.2224  0.0034  0.2239
28613W        W31833   8.851   5.417   8.710 -0.0639 -0.0673 -0.1007
28614W        W31834   5.943  16.578  12.787  0.1214 -0.2331  0.0531
28615W        W31835  12.620   0.828   3.596 -0.1415  0.0726  0.0952
28616W        W31836  16.182   1.688  10.930  0.4025 -0.0049  0.2170
28617W        W31837   9.739  15.369   6.118 -0.2355 -0.4287 -0.3226
28618W        W31838   7.604  15.055  12.779 -0.2170 -0.4715 -0.2533
28619W        W31839   9.703  10.575  14.501  0.1708  0.1838 -0.0739
28620W        W31840  14.330  11.721  13.985 -0.0296  0.0626  0.1112
28621W        W31841   6.618  17.032   9.235  0.2203 -0.0305  0.1579
28622W        W31842  13.376  15.727   9.948 -0.4119 -0.2005 -0.0543
28623W        W31843   9.723   2.966   8.289 -0.2577  0.1513  0.4289
28624W        W31844   2.263  14.315   3.152 -0.1179 -0.0036  0.1398
28625W        W31845   2.659  15.881  11.527 -0.1294  0.2358 -0.0050
28626W        W31846  15.555  13.583  10.957  0.0005  0.1311 -0.1354
28627W        W31847  12.086  11.575   1.695  0.4155 -0.2664 -0.0178
28628W        W31848  14.835   1.147  13.830  0.2044 -0.1672 -0.1228
28629W        W31849  13.468  17.784  10.863 -0.0548  0.0881  0.2695
28630W        W31850   8.004  16.784  11.045 -0.0864 -0.2883 -0.1278
28631W        W31851   9.823  13.061   5.645  0.0192 -0.2408 -0.0891
28632W        W31852  14.293  17.032  11.545  0.4150 -0.4728  0.0384
28633W        W31853   6.486   0.824  17.626  0.1709 -0.2249 -0.3547
28634W        W31854   2.827  16.211   7.542 -0.1054  0.0262  0.1308
28635W        W31855   4.476  17.088   8.980  0.1138 -0.0140 -0.1040
28636W        W31856  16.031  17.755   6.033  0.0707 -0.2613  0.0216
28637W        W31857  11.545  16.217   4.583  0.0207 -0.0486  0.1578
28638W        W31858   8.920   2.954   6.401  0.2636 -0.0541  0.0001
28639W        W31859   9.140   7.149  15.572 -0.0544  0.1475  0.4880
28640W        W31860   9.904   9.165   9.344  0.3140 -0.2079  0.1377
28641W        W31861   5.441  10.045  11.090 -0.0031  0.0642  0.1900
28642W        W31862  14.782  15.098   7.192 -0.1243 -0.2050  0.2425
28643W        W31863   5.593  17.883   4.424  0.0790 -0.0388 -0.1399
28644W        W31864   9.968   1.588   8.478 -0.0209 -0.0697  0.1969
28645W        W31865   7.811   3.818  12.653  0.4634  0.1973  0.2070
28646W        W31866   7.596   7.206  11.938  0.3381  0.2257  0.1733
28647W        W31867  16.449   5.384   8.069  0.0092  0.0808  0.1245
28648W        W31868  11.368  11.788   9.802 -0.1314 -0.1146  0.1661
28649W        W31869   9.205  14.450   2.397  0.1329  0.1847 -0.0772
28650W        W31870   4.265  16.809   2.659 -0.0220  0.0175 -0.2020
28651W        W31871  12.974  12.391  10.091  0.1139 -0.0854  0.0345
28652W        W31872   5.566  17.357   9.489  0.0110  0.2978 -0.3005
28653W        W31873  12.210  11.666  11.208 -0.2818  0.0277 -0.1415
28654W        W31874  16.619  15.145   6.497  0.0561 -0.0464 -0.1324
28655W        W31875   6.406   0.513  13.571 -0.0937 -0.1873  0.1143
28656W        W31876  12.388  16.579  12.777 -0.1298  0.0492 -0.3387
28657W        W31877   3.509  13.886   2.481  0.1863 -0.1851 -0.0163
28658W        W31878   5.761  16.563  10.035  0.4447 -0.0850 -0.0179
28659W        W31879   3.906   0.055  10.955  0.1675  0.1734  0.0296
28660W        W31880  17.471   6.412   6.509  0.0395  0.0266  0.1297
28661W        W31881   8.888  15.110  13.494 -0.0606  0.0071  0.1992
28662W        W31882   5.867  15.851   2.042  0.1094 -0.1627  0.3397
28663W        W31883   6.930  14.207   4.256 -0.1505  0.3076  0.0715
28664W        W31884   8.617  15.214   9.771 -0.0498 -0.3537 -0.0369
28665W        W31885   7.922  16.405  13.519 -0.0419 -0.0012 -0.1907
28666W        W31886  12.215  15.730   3.085 -0.1377  0.2092 -0.2563
28667W        W31887   7.164   1.620   3.725  0.0431 -0.3620 -0.3226
28668W        W31888  12.437   1.736  16.573  0.1748  0.1902 -0.2435
28669W        W31889  16.683  11.120   6.569  0.3257  0.0405 -0.0388
28670W        W31890   3.595  10.700   9.661 -0.0247  0.1762  0.2379
28671W        W31891  10.335   0.513  11.323  0.0034 -0.2460 -0.2351
28672W        W31892  10.570  15.527   2.639 -0.0696 -0.2685  0.0520
28673W        W31893  12.878   8.687  10.083  0.2552  0.2866 -0.2304
28674W        W31894   8.970  11.976  10.580 -0.0207 -0.0161  0.0939
28675W        W31895  10.243  13.112   9.445  0.0180 -0.2416  0.3925
28676W        W31896  12.303  15.607   2.590 -0.2143 -0.2423  0.1577
28677W        W31897   6.881  13.691   5.654  0.1691  0.2419  0.0194
28678W        W31898   9.814  16.856  18.090 -0.3005  0.1803 -0.1767
28679W        W31899  18.154  15.154  12.686  0.1375 -0.1229 -0.0145
28680W        W31900  10.978  10.640   4.038 -0.1639  0.2132 -0.2224
28681W        W31901   6.748   1.433  10.119 -0.3519  0.1079 -0.3291
28682W        W31902  11.063  17.289   9.018 -0.1234 -0.3211 -0.0768
28683W        W31903   3.456   0.764   0.999 -0.4781 -0.1592 -0.0855
28684W        W31904   5.015   0.767   2.780 -0.1035 -0.0256 -0.1131
28685W        W31905   4.302   4.991   4.086  0.0069 -0.0464 -0.2322
28686W        W31906   6.315   0.076  18.266  0.0434 -0.0504 -0.0248
28687W        W31907   4.494  14.421   7.236 -0.1746 -0.2782  0.0051
28688W        W31908  13.696   1.615  14.875 -0.1508  0.0212  0.1625
28689W        W31909   0.482   4.550  14.074  0.0087 -0.0790 -0.2934
28690W        W31910  10.256  13.640   9.266  0.3915 -0.1492 -0.1462
28691W        W31911  10.023   9.464  12.599 -0.3893  0.4695  0.1906
28692W        W31912   3.172   0.994  10.763 -0.2195  0.1925 -0.4856
28693W        W31913   9.638  16.502   8.232  0.0079 -0.1198 -0.1863
28694W        W31914   8.586   4.865  12.609  0.0062  0.1464  0.1247
28695W        W31915   5.781  17.236  11.307  0.4559  0.2437 -0.0495
28696W        W31916   5.241  13.623  11.663  0.1042  0.0743 -0.0597
28697W        W31917   8.762  13.757   8.681  0.0477 -0.0893 -0.0716
28698W        W31918   9.506   4.140   3.754 -0.1453  0.0876 -0.3120
28699W        W31919   1.667   2.061  15.168  0.0431  0.2653  0.0022
28700W        W31920  14.917  16.729   5.883 -0.0407 -0.0709 -0.2752
28701W        W31921  10.079  13.106   5.182  0.1083 -0.4877 -0.0104
28702W        W31922   3.013  13.720   5.979 -0.1504  0.2652 -0.0482
28703W        W31923   6.767  15.220   5.918  0.0083  0.1138 -0.2489
28704W        W31924   8.188   5.916   9.099 -0.1402 -0.0829 -0.2347
28705W        W31925  10.551  17.185   9.208 -0.1039 -0.1632  0.1857
28706W        W31926  16.540   7.787   7.238 -0.0096 -0.0271 -0.1771
28707W        W31927  11.704   0.328   9.430  0.2393 -0.1130  0.1449
28708W        W31928  12.851   3.104  13.130  0.2443  0.1057 -0.3623
28709W        W31929   7.700  14.450   7.680 -0.1398  0.0400  0.1666
28710W        W31930  13.521   1.225  11.016  0.1809  0.0515 -0.5072
28711W        W31931   8.855   1.739   5.976 -0.1111  0.1057 -0.3045
28712W        W31932  12.814  14.390   4.032  0.2613  0.1109  0.2917
28713W        W31933   6.774  15.206  10.676  0.1517  0.2365 -0.2452
28714W        W31934  13.563   4.608   1.836 -0.1598  0.2864 -0.1456
28715W        W31935  17.600  13.096  10.485  0.0207  0.0052 -0.1025
28716W        W31936  10.056  13.856   7.094 -0.1337  0.0718 -0.1814
28717W        W31937   4.189  16.352   0.033  0.0714 -0.0726  0.0717
28718W        W31938   6.913   3.267  10.683 -0.1154  0.3077 -0.1377
28719W        W31939   8.538  15.126  15.664  0.1737 -0.0743  0.1887
28720W        W31940  13.664   3.216  11.742  0.1095  0.3269  0.0649
28721W        W31941  10.647   0.936  10.046 -0.0452  0.2873 -0.1558
28722W        W31942   6.670  14.028  14.022  0.1440  0.1555 -0.0557
28723W        W31943   9.522  12.827  11.308  0.0150 -0.1102  0.2097
28724W        W31944   9.548  13.710  11.004  0.1331  0.0346  0.2024
28725W        W31945   8.252   0.809   2.866  0.0280 -0.2272 -0.0394
28726W        W31946  12.658   7.604   9.071 -0.0978 -0.1650 -0.2521
28727W        W31947  10.811  18.138  10.936 -0.0251  0.0232 -0.2842
28728W        W31948  12.671  15.672  11.402  0.0710  0.2754 -0.1859
28729W        W31949  15.271  16.966   5.286  0.2101 -0.0583  0.0343
28730W        W31950   8.794   7.307  16.082 -0.2270  0.1807  0.0295
28731W        W31951   8.773  14.513  11.525 -0.3187  0.0118 -0.2541
28732W        W31952   6.396  14.280   7.858  0.1566  0.0022 -0.1570
28733W        W31953   6.979  13.244   1.483  0.2004 -0.3426 -0.1487
28734W        W31954  11.817  15.167  11.806 -0.2667 -0.0568 -0.0205
28735W        W31955   9.107  12.277   9.489 -0.2653 -0.3547 -0.0214
28736W        W31956  13.413   0.024   7.348  0.0208 -0.1241  0.0871
28737W        W31957   6.473  11.849   7.971  0.1676 -0.1083 -0.1715
28738W        W31958   9.532   0.969   2.925 -0.1320  0.3124  0.2483
28739W        W31959   9.609  14.419  11.807  0.0215  0.3290 -0.1202
28740W        W31960  14.413   5.234   7.728 -0.0902  0.0549  0.0446
28741W        W31961  12.635   6.962  11.887  0.3013 -0.0620  0.2162
28742W        W31962   8.112  16.222  11.635  0.1397  0.1035  0.0464
28743W        W31963  15.344  12.974   3.941 -0.2273  0.1585 -0.0205
28744W        W31964  10.184   0.716  12.194 -0.1960  0.1083  0.1841
28745W        W31965  12.773  15.987   9.050  0.1084 -0.0876 -0.1744
28746W        W31966  10.301  10.511   7.583 -0.0882  0.1236 -0.1944
28747W        W31967   8.732  15.909  14.630 -0.0147 -0.0781  0.2492
28748W        W31968  17.173  14.292   8.168  0.1297 -0.2890  0.2178
28749W        W31969   5.790  14.568   8.142 -0.1940  0.0204 -0.1754
28750W        W31970   8.706  10.317  13.607 -0.2423 -0.2345  0.0463
28751W        W31971  13.189   2.966   9.531 -0.1719 -0.0065  0.3474
28752W        W31972  11.445   6.914   9.569 -0.1599 -0.1198 -0.0023
28753W        W31973   3.282   2.402  14.731  0.2104  0.1109  0.1596
28754W        W31974   9.535   0.428   9.576  0.0454 -0.1648  0.2528
28755W        W31975   6.221  16.704  13.884  0.1510 -0.0079 -0.0350
28756W        W31976   6.216   2.871   8.865  0.1872  0.1853 -0.1934
28757W        W31977   3.393  15.106   9.224  0.3143 -0.0141 -0.0515
28758W        W31978  11.140   7.612   7.067 -0.0491  0.2087  0.2715
28759W        W31979   4.274  17.620   8.884 -0.0045  0.0556  0.1224
28760W        W31980  16.963   2.372  17.571 -0.1369 -0.1380  0.0221
28761W        W31981   6.145  16.111   5.791  0.0605 -0.2808 -0.1382
28762W        W31982   4.913   3.457  10.674  0.0684  0.3132  0.1307
28763W        W31983  10.863   2.701  17.870  0.0373 -0.2266  0.1898
28764W        W31984   6.863  16.050  16.367 -0.0820 -0.1647 -0.2462
28765W        W31985   9.789  16.719  16.065  0.0938 -0.3770  0.2721
28766W        W31986   8.701  16.967  11.936  0.1265  0.0918  0.3448
28767W        W31987   7.604   1.786   5.021 -0.3275  0.0587 -0.4825
28768W        W31988   8.581  13.471   3.226 -0.1079 -0.0603  0.0699
28769W        W31989   6.327   0.116  10.343  0.3508 -0.0806 -0.0346
28770W        W31990  14.319  17.483   1.744 -0.0239  0.1816  0.1744
28771W        W31991  12.596  15.664   5.520 -0.2078  0.1644 -0.0893
28772W        W31992  11.990  13.810   8.499  0.2750 -0.0800  0.0600
28773W        W31993   7.264  15.257   5.997 -0.0543  0.0235 -0.2391
28774W        W31994  12.284   1.028   0.503 -0.1148 -0.0531  0.0472
28775W        W31995  11.078   2.029  15.902 -0.2540  0.1409 -0.1026
28776W        W31996  12.419  14.687  12.482  0.0100 -0.0937 -0.2138
28777W        W31997   8.725  12.744  11.677  0.3056 -0.1121 -0.0062
28778W        W31998   7.659   4.256  12.395 -0.2172  0.0474  0.0720
28779W        W31999   8.886   2.424  12.849 -0.1096 -0.2547 -0.1319
28780W        W32000   9.175  15.188  16.864  0.1769 -0.4043 -0.1879
28781W        W32001   4.478   0.925   6.375  0.0426 -0.0739  0.2609
28782W        W32002  14.253   4.205  11.696 -0.1298  0.0939 -0.0897
28783W        W32003   1.725  14.065  14.286  0.3054  0.0206  0.1917
28784W        W32004  13.516  16.004  17.880 -0.0271  0.0836  0.2524
28785W        W32005  12.704   4.469   6.810 -0.2587 -0.3037  0.2366
28786W        W32006   0.347   1.355   9.029  0.2887 -0.1994  0.0316
28787W        W32007   9.891   0.922  17.441 -0.1047  0.0101 -0.2520
28788W        W32008   7.577  18.027   9.046  0.0391  0.3733  0.0067
28789W        W32009  14.490  17.704  10.186  0.0688 -0.0703 -0.3675
28790W        W32010   3.394  14.118   9.355 -0.3359  0.3239  0.0134
28791W        W32011   6.864  13.262  10.261 -0.0303 -0.3255  0.1829
28792W        W32012   0.663  15.906  12.713 -0.2533  0.0952  0.2296
28793W        W32013   7.215  14.051  18.078  0.2205 -0.1766  0.0147
28794W        W32014   2.717  13.164  11.646 -0.3180  0.1215  0.3575
28795W        W32015  12.106  14.179   8.173 -0.0203 -0.1019  0.3169
28796W        W32016   7.532  14.469  11.957 -0.0531  0.0660 -0.0277
28797W        W32017   9.368   1.542  10.097 -0.0126  0.2822 -0.2560
28798W        W32018  10.723  14.492  10.573  0.0738  0.1858 -0.1344
28799W        W32019   2.277   0.721   9.299  0.1492  0.0466 -0.0301
28800W        W32020   9.599   3.193  11.414 -0.0541  0.3699  0.0545
28801W        W32021   4.139   1.515  13.836 -0.1732 -0.1939 -0.0940
28802W        W32022   9.360  12.710  10.355 -0.1105 -0.2728 -0.0928
28803W        W32023   5.567   2.581   3.647  0.0258 -0.1356  0.1796
28804W        W32024   4.196  13.174   0.427 -0.0850  0.2767  0.0157
28805W        W32025   6.313  13.289  10.742  0.0492  0.1155 -0.1778
28806W        W32026   8.681   2.939  16.679 -0.1253  0.1096 -0.0370
28807W        W32027   5.743   9.114  15.997  0.0441  0.1144 -0.2290
28808W        W32028   8.828  17.763  16.895  0.1928  0.0183 -0.4301
28809W        W32029  10.316  13.252  15.622  0.4231 -0.4277 -0.1479
28810W        W32030   8.724  13.643  11.718  0.0087 -0.0132 -0.0077
28811W        W32031   4.405  10.305  15.492 -0.1824 -0.2950 -0.0176
28812W        W32032   8.698   0.450  12.736  0.1702  0.3699 -0.1827
28813W        W32033  13.592  13.778  13.019 -0.0037 -0.1838 -0.0993
28814W        W32034  13.517  17.745   8.222  0.0689  0.1762 -0.2798
28815W        W32035   8.630   4.524  14.785  0.1122  0.3807 -0.2561
28816W        W32036  10.057  17.009   9.219 -0.1340  0.0187 -0.1463
28817W        W32037  12.250  17.453  16.748  0.2091  0.0245 -0.0104
28818W        W32038   9.278  16.409   6.752 -0.0814 -0.1675 -0.1629
28819W        W32039   4.490   0.118  17.005  0.1887 -0.3409  0.0624
28820W        W32040  14.931  17.792  10.521  0.3027  0.0515 -0.1736
28821W        W32041   4.663  15.998  14.542  0.2047  0.0463 -0.3270
28822W        W32042   8.111  16.558  12.705 -0.5065  0.1558 -0.2266
28823W        W32043   5.454  15.167  12.478 -0.0849  0.3379 -0.1278
28824W        W32044   9.676  17.525  13.319 -0.0427 -0.0455 -0.0769
28825W        W32045  15.242   3.934   5.874 -0.1580 -0.0821  0.2727
28826W        W32046   8.221   3.814  10.320 -0.0197 -0.0996 -0.0609
28827W        W32047  10.880  14.506  12.098 -0.0606 -0.0044 -0.1097
28828W        W32048   5.491  11.996   0.810  0.0903 -0.2657 -0.2386
28829W        W32049   5.091  15.305  16.700 -0.1166  0.1529  0.3410
28830W        W32050  18.222   7.526  15.999  0.2108 -0.1693 -0.2692
28831W        W32051   6.301  15.434   3.761  0.2364 -0.2103 -0.3282
28832W        W32052  10.353   0.075  12.723  0.0984 -0.0151  0.1127
28833W        W32053   3.832  13.535  10.412  0.1483 -0.2823 -0.2056
28834W        W32054   2.100   0.847  14.142 -0.2355  0.0083  0.1772
28835W        W32055   3.517   1.161  14.620 -0.0993  0.0155  0.2148
28836W        W32056   6.774   2.079  10.401  0.1055 -0.4648 -0.2614
28837W        W32057   3.567  12.656  15.951  0.0719 -0.1983  0.0529
28838W        W32058  13.186  14.843  15.336  0.2387 -0.1210 -0.2372
28839W        W32059  16.122  16.522  10.430  0.2970 -0.2988  0.0363
28840W        W32060   7.667  12.885   5.163  0.2895 -0.0212  0.1422
28841W        W32061   8.504   7.632  14.351  0.0234 -0.1646 -0.2213
28842W        W32062  14.743  16.414  11.834 -0.0418 -0.1955 -0.1772
28843W        W32063  15.870  14.049   9.543  0.1911  0.0107 -0.3942
28844W        W32064   9.127  10.375   4.755  0.0346 -0.0196 -0.0134
28845W        W32065  16.299  12.242   3.884  0.0795  0.1142 -0.0739
28846W        W32066  11.457  17.276  17.279 -0.1414 -0.0232 -0.1836
28847W        W32067  11.827   3.138   6.979 -0.2017 -0.3001 -0.1441
28848W        W32068   9.763  14.464  14.323  0.0657  0.0057 -0.1694
28849W        W32069   5.431   0.231   0.811  0.2039  0.0160 -0.0096
28850W        W32070   6.395  17.978  11.556 -0.2357  0.1718  0.0180
28851W        W32071  10.747   7.693  11.719  0.1457  0.0777  0.3111
28852W        W32072   9.640  15.108  12.972 -0.5638  0.1517  0.1120
28853W        W32073   6.050  16.852  14.352  0.1492  0.3633 -0.0054
28854W        W32074   6.105   2.236  12.980 -0.0577 -0.0457  0.0571
28855W        W32075  14.017  10.604  12.990  0.0861 -0.0776  0.0856
28856W        W32076  10.364  16.952   2.480 -0.0482  0.0551  0.0653
28857W        W32077   6.492  11.654  13.314  0.0144  0.2993 -0.0574
28858W        W32078   9.964   0.610  14.563  0.0027  0.0162 -0.3005
28859W        W32079   3.812   3.754  16.712 -0.1982  0.3887 -0.0634
28860W        W32080   0.283   2.112  11.121  0.1001  0.0140  0.2350
28861W        W32081   0.438  13.815  11.685 -0.0254  0.2040  0.1838
28862W        W32082   5.746  13.274   9.640 -0.0514  0.1979 -0.0519
28863W        W32083   3.701  13.086  15.284 -0.1567 -0.0530  0.1731
28864W        W32084  12.939  16.984  14.569  0.1130 -0.1024 -0.1259
28865W        W32085   6.238  15.445  10.632  0.1455  0.0567  0.4534
28866W        W32086  13.499   9.378   6.065 -0.1781 -0.2239 -0.2280
28867W        W32087   6.981  12.181   6.853 -0.1689 -0.0974  0.1963
28868W        W32088   2.852  11.662  14.558 -0.1022 -0.2408  0.0422
28869W        W32089   6.377   5.743   6.639 -0.0794  0.1052 -0.1005
28870W        W32090   8.424   1.083   9.318  0.2025 -0.0517 -0.1019
28871W        W32091   8.541   3.042   9.787  0.1126  0.0760  0.1823
28872W        W32092   3.356   7.626   0.505 -0.2220 -0.0552  0.2204
28873W        W32093  10.359  16.202  12.983 -0.0953  0.0282 -0.0476
28874W        W32094  12.345   1.506  13.961 -0.0891  0.2853  0.0828
28875W        W32095   9.207  16.123  10.575  0.1151 -0.2350  0.1553
28876W        W32096  14.293  10.022   9.162  0.0578 -0.3259  0.0379
28877W        W32097   4.316  14.925  17.120 -0.0413 -0.0732  0.1012
28878W        W32098   8.498  11.465  17.238 -0.0284 -0.2714  0.0678
28879W        W32099   1.115  15.767  15.796  0.0435 -0.0842 -0.0525
28880W        W32100  11.569   0.638  17.384 -0.0662  0.1705 -0.2939
28881W        W32101  10.592   4.079  10.551  0.0225  0.4415 -0.0328
28882W        W32102   2.508  17.495   9.047 -0.1024 -0.2061 -0.0244
28883W        W32103  11.865   1.384   0.212  0.1062  0.0434 -0.0712
28884W        W32104   7.068   2.204   9.660 -0.1640 -0.3379 -0.0338
28885W        W32105  17.808  16.916   4.225 -0.0734  0.0533  0.0323
28886W        W32106  16.023   2.590  16.638  0.2143  0.0274  0.2513
28887W        W32107   7.884  17.971   9.500 -0.1616 -0.0750  0.0978
28888W        W32108   9.100   6.203  13.356 -0.1360  0.0897  0.0796
28889W        W32109   5.721  12.951  11.297  0.0625 -0.3640  0.1734
28890W        W32110  13.618  15.533  15.069 -0.0445  0.1342  0.1974
28891W        W32111  16.597  13.887   3.347 -0.2085  0.1079 -0.2704
28892W        W32112   8.967  10.604  14.476 -0.1995 -0.2831 -0.2544
28893W        W32113   8.561  16.088  11.926 -0.2166 -0.1750 -0.2715
28894W        W32114  12.269  12.614  12.326  0.1755  0.1091 -0.1228
28895W        W32115  13.860  17.872  13.008  0.1779  0.1242 -0.5307
28896W        W32116   6.339   2.572  15.423  0.2525 -0.1271 -0.2604
28897W        W32117   2.513  18.049  16.346 -0.0289 -0.1500 -0.1660
28898W        W32118   4.298   4.256  15.241 -0.1532 -0.4132  0.1784
28899W        W32119  10.274   4.277  14.320 -0.1213  0.0042 -0.1166
28900W        W32120  14.977  15.618  13.081  0.1328  0.2349  0.2799
28901W        W32121  17.119   3.264   8.333 -0.1125 -0.0405  0.2265
28902W        W32122   4.422  14.953  14.262 -0.0550 -0.4188  0.0830
28903W        W32123  16.867  13.547   0.689 -0.0189 -0.0404 -0.0894
28904W        W32124  11.038  14.251  15.342  0.0102  0.0919 -0.4468
28905W        W32125  11.174  17.445   7.915  0.0642 -0.2370 -0.0790
28906W        W32126  14.555   5.333   8.279  0.0180  0.0160 -0.2127
28907W        W32127   2.719  15.667  15.675 -0.2109 -0.1076  0.1290
28908W        W32128  10.083  14.146  11.925 -0.1571 -0.1400  0.0697
28909W        W32129   7.009  13.359   5.129  0.0044  0.0547  0.0519
28910W        W32130  13.788   1.485  12.641 -0.0081  0.1565 -0.1396
28911W        W32131  10.935  15.243  12.836 -0.4886  0.2094  0.0990
28912W        W32132   7.799  15.794  14.967  0.0748  0.0969 -0.2323
28913W        W32133  10.952   9.390   8.009 -0.0989 -0.3699 -0.0166
28914W        W32134   5.077   1.664  14.665  0.1575 -0.1569 -0.0466
28915W        W32135  10.978  10.619  17.792 -0.0092  0.1350  0.2367
28916W        W32136  14.139   5.557  17.159  0.0617  0.0763  0.2238
28917W        W32137   7.866  14.235  12.639  0.0755 -0.1631 -0.1476
28918W        W32138  10.664  17.385  10.406 -0.0533 -0.0017  0.1664
28919W        W32139  14.469  13.025  18.205 -0.0823  0.3673  0.2682
28920W        W32140  15.305   3.421  15.433 -0.1130 -0.4452 -0.0674
28921W        W32141   4.162  16.667  15.077  0.2689 -0.3678 -0.0410
28922W        W32142   3.001   0.763  11.661  0.0296  0.1819  0.1538
28923W        W32143  10.379  16.274   7.423  0.0730 -0.0027  0.0588
28924W        W32144  11.735  14.412  13.593  0.0839 -0.0135  0.2883
28925W        W32145  17.298  12.811  10.965  0.3887 -0.0269  0.2549
28926W        W32146  16.045  13.707   2.892  0.2471  0.0451 -0.1566
28927W        W32147  13.066  11.735  13.841 -0.1459 -0.0453 -0.0801
28928W        W32148   6.564   0.609  16.180 -0.0248 -0.0865 -0.1375
28929W        W32149  12.609  12.787   8.900 -0.0344 -0.3303  0.0083
28930W        W32150  15.443  15.947  16.148  0.0412  0.1647 -0.3923
28931W        W32151   8.984   7.515  12.638  0.0792  0.2375 -0.2437
28932W        W32152   7.134  13.749  13.817  0.1408  0.0118 -0.1367
28933W        W32153   4.307  13.880   2.658 -0.0588  0.0339  0.1748
28934W        W32154   2.115  12.149  17.904 -0.1400 -0.2079 -0.0570
28935W        W32155  13.522  11.450  13.787 -0.2651 -0.1926  0.0239
28936W        W32156   5.009   1.159   1.330 -0.1776  0.0862 -0.0483
28937W        W32157   7.176  10.884  10.831 -0.1167 -0.1950  0.2153
28938W        W32158   7.050  13.475   8.845 -0.0785  0.0047 -0.0577
28939W        W32159   6.529   7.538  15.668 -0.2114 -0.2874  0.0224
28940W        W32160   3.413  16.937  11.378 -0.0628  0.1107  0.1487
28941W        W32161  12.187   4.002   2.197  0.0591 -0.1753  0.0067
28942W        W32162  10.757  12.349  12.610 -0.1315 -0.1473 -0.1192
28943W        W32163   1.866  15.703   7.120  0.0411 -0.0847  0.1796
28944W        W32164   9.817  17.819  13.861  0.1710 -0.3842  0.1280
28945W        W32165   8.880   4.335  14.371 -0.2279  0.0785  0.0641
28946W        W32166  11.442  16.055  11.358 -0.0827  0.2392 -0.0463
28947W        W32167   8.924   9.466  17.197 -0.2691  0.2451  0.2449
28948W        W32168  12.773   0.416   0.131 -0.1935  0.0501 -0.0695
28949W        W32169   3.017  16.383   4.392 -0.2588 -0.3370  0.3118
28950W        W32170  16.577  12.276   1.966  0.2184  0.2259  0.0703
28951W        W32171   8.470  14.840   8.613  0.1666 -0.0143 -0.0389
28952W        W32172  11.034  14.426   4.969  0.1867 -0.2473 -0.0709
28953W        W32173   8.188   0.948   8.814 -0.0189  0.0430 -0.1745
28954W        W32174   8.804  16.552   4.280 -0.2637 -0.1567  0.1824
28955W        W32175   3.307   5.239  12.390  0.2255 -0.2241  0.3028
28956W        W32176  10.909  15.463  11.564  0.2072  0.1106  0.2123
28957W        W32177  10.825  11.864  13.989  0.0190 -0.1779  0.0164
28958W        W32178  11.308  18.058   8.519  0.0217 -0.1160  0.0337
28959W        W32179  10.702  10.589  14.687  0.2762 -0.0003  0.1143
28960W        W32180   9.399  11.332  12.572 -0.0866 -0.1914  0.0178
28961W        W32181   6.108   2.474   7.060 -0.1756 -0.3770 -0.5442
28962W        W32182   5.163   0.893  14.184 -0.1316  0.2811 -0.2754
28963W        W32183   7.835  13.249  10.397 -0.2374 -0.1644  0.0817
28964W        W32184   4.113   8.756  14.757  0.0060 -0.1984 -0.2799
28965W        W32185   7.452  13.220  17.706  0.6481 -0.3054 -0.0137
28966W        W32186   9.262  13.288  17.826 -0.1766  0.0914 -0.0002
28967W        W32187   7.695  10.318  12.199  0.3099 -0.1883  0.1764
28968W        W32188   3.710  14.695   9.878 -0.2432  0.0423  0.0218
28969W        W32189   5.474  16.952   6.917 -0.4228  0.2671 -0.2807
28970W        W32190  14.302  11.861   9.101  0.1761 -0.1984 -0.1057
28971W        W32191   9.676  14.620  14.826 -0.0354 -0.2428  0.0198
28972W        W32192   8.834  14.081   9.058  0.2390 -0.2271  0.1051
28973W        W32193   7.752   9.642  13.491 -0.1410  0.4773 -0.1746
28974W        W32194  14.102  16.783  13.224 -0.2397  0.0725 -0.1508
28975W        W32195   8.634  12.143  16.666 -0.0723 -0.1128  0.0309
28976W        W32196   6.605  17.210   8.169 -0.0006  0.0661 -0.0995
28977W        W32197   5.815   0.131  13.900 -0.0162  0.0146  0.4362
28978W        W32198   3.353   7.420  11.475  0.0625  0.0679 -0.1431
28979W        W32199   7.418   0.782   8.006  0.3855 -0.1165 -0.2604
28980W        W32200  11.607  10.916  10.285 -0.0938  0.0216 -0.1587
28981W        W32201   9.027  18.181  13.135  0.1373 -0.0776 -0.3027
28982W        W32202   9.222  17.305   9.339  0.1245  0.1106  0.0643
28983W        W32203  10.957  14.227  18.268 -0.1473  0.4116 -0.2490
28984W        W32204   5.296  15.596   1.935  0.0243 -0.2062  0.0400
28985W        W32205   8.783  13.092  17.777 -0.1609 -0.1936 -0.1960
28986W        W32206  12.154   6.289  16.647  0.1778 -0.0218  0.0462
28987W        W32207  11.665  14.765   6.530  0.3501  0.0491  0.0732
28988W        W32208   8.550  15.986  11.432  0.0179 -0.0171  0.2993
28989W        W32209   6.117  17.131  13.554  0.0988  0.0457 -0.0688
28990W        W32210   6.484   0.528   9.458  0.1369 -0.0433  0.1322
28991W        W32211   8.538  13.756  17.198  0.0884 -0.2583  0.1410
28992W        W32212   8.989  13.183   8.068  0.2824  0.0397  0.2270
28993W        W32213   6.362  17.030   6.371  0.1909  0.1162  0.1379
28994W        W32214  14.057  13.484  11.341 -0.1133 -0.1545  0.2472
28995W        W32215   5.293   0.966  16.638 -0.0108 -0.0291 -0.0532
28996W        W32216  11.657  11.689   8.983  0.2071  0.0575 -0.0411
28997W        W32217  10.219  15.690   6.091 -0.1626  0.1558 -0.2008
28998W        W32218  13.914  11.614  16.597  0.0343  0.0880 -0.0858
28999W        W32219   6.686  12.398   7.479  0.0591  0.0830  0.0720
29000W        W32220  12.434  13.317  13.212 -0.0665 -0.1548 -0.1494
29001W        W32221   6.005  16.285  15.813  0.2235 -0.0178  0.1415
29002W        W32222  12.143   6.002   2.031  0.1041 -0.0258  0.2027
29003W        W32223  10.008   8.912  12.566  0.0694  0.0193  0.0309
29004W        W32224   6.431  17.774   5.105 -0.1299 -0.1487  0.1908
29005W        W32225  10.080  15.205  12.155  0.2578  0.1563 -0.1223
29006W        W32226   7.701  15.549  17.119 -0.0587  0.2597 -0.0258
29007W        W32227   5.666   5.126   9.456  0.1211  0.2705 -0.0273
29008W        W32228   3.626  13.765  13.318 -0.3647 -0.1703 -0.0330
29009W        W32229   0.125  12.568  13.573 -0.1636  0.1411 -0.1754
29010W        W32230   7.623   2.293   9.732  0.0548  0.0181 -0.2103
29011W        W32231   2.433  13.873  12.750 -0.0699 -0.1914  0.1353
29012W        W32232   8.350  12.250   7.026  0.1419  0.2998 -0.1243
29013W        W32233   9.044  13.135  12.131  0.1280 -0.0329 -0.0770
29014W        W32234   7.931  16.678  12.169 -0.4961  0.2156 -0.0213
29015W        W32235  12.455  16.745  12.212 -0.2378 -0.0656  0.0155
29016W        W32236  11.368   1.988   5.331  0.1718  0.0917 -0.0744
29017W        W32237  12.648  16.640  11.768 -0.2672 -0.1087  0.1840
29018W        W32238   6.907  11.145   9.346  0.3720 -0.1913  0.2612
29019W        W32239  15.772   3.921   9.392  0.1665 -0.0349 -0.0086
29020W        W32240   3.646   2.223  11.143  0.3479 -0.0606 -0.2460
29021W        W32241   4.530  14.816  10.376 -0.2156 -0.1781  0.1640
29022W        W32242  10.272   3.010   8.507  0.0268 -0.4010  0.0093
29023W        W32243   5.955  16.241  13.144  0.3261 -0.2342  0.0068
29024W        W32244  10.492  14.469   6.394  0.1565 -0.0019  0.0390
29025W        W32245  10.300  13.367   5.683  0.1084 -0.1852  0.2315
29026W        W32246   1.822  15.309  14.683  0.2021  0.1189  0.1414
29027W        W32247  10.545  14.176  13.272 -0.1994 -0.0175  0.2462
29028W        W32248   9.430  13.809  17.095 -0.2235 -0.1003 -0.0427
29029W        W32249   9.804   5.100  14.007 -0.2721  0.2998  0.4151
29030W        W32250   1.036  10.675  14.679 -0.2233  0.3167 -0.2064
29031W        W32251  11.681  14.615   9.640 -0.0534  0.4502 -0.2032
29032W        W32252   6.691  13.607  17.352 -0.3024 -0.4692  0.2504
29033W        W32253   8.048   0.982  13.252 -0.1653  0.2007 -0.0202
29034W        W32254  12.385  16.969  18.214  0.0821 -0.1098  0.4321
29035W        W32255   1.503   0.110   9.112  0.0487  0.1663 -0.2269
29036W        W32256  10.792   2.297   9.802  0.2136  0.1583  0.0202
29037W        W32257   8.079  12.020  10.377  0.2745 -0.0450 -0.1042
29038W        W32258  14.316  12.475  13.565 -0.0717 -0.2594  0.0546
29039W        W32259  10.374  16.046   5.214 -0.3395  0.1317 -0.0918
29040W        W32260  10.035  16.744   9.719 -0.2843 -0.0488  0.2513
29041W        W32261  14.969  12.150  12.302  0.0043 -0.3451 -0.1942
29042W        W32262   6.067  10.560  16.423 -0.3925 -0.2051  0.0593
29043W        W32263   9.221  15.246   5.885  0.3035 -0.1573  0.1091
29044W        W32264  11.094  14.311  12.795  0.1081 -0.2197 -0.0680
29045W        W32265   8.942  11.080  14.538 -0.2830 -0.1677 -0.1151
29046W        W32266   6.952  13.659   0.115  0.1658  0.0379  0.0447
29047W        W32267   4.710   1.069   9.941 -0.1399 -0.6987  0.0203
29048W        W32268   8.121  11.247  15.951 -0.0284 -0.1663  0.2160
29049W        W32269  14.683   5.377   4.269 -0.1302 -0.0311 -0.0270
29050W        W32270   5.569  15.912   4.064 -0.0389  0.1244  0.3083
29051W        W32271  10.278  11.670  14.592 -0.1349  0.4744  0.1839
29052W        W32272  10.816   2.802  13.279 -0.0381  0.1371 -0.2429
29053W        W32273   7.016  12.476  10.944 -0.1167 -0.2681  0.3106
29054W        W32274   9.770  17.544  12.621  0.2310  0.3222 -0.1128
29055W        W32275   7.894   0.151   8.328  0.0030  0.0094  0.0977
29056W        W32276   8.569  13.136  10.200 -0.1437  0.0887  0.0581
29057W        W32277   8.487   3.707   9.038  0.1767  0.0761 -0.3613
29058W        W32278  12.055   1.155   7.289 -0.1323  0.0687  0.0022
29059W        W32279   5.910  15.049  11.264  0.2009  0.0097  0.2034
29060W        W32280   6.640  14.301  11.458 -0.2614 -0.2929 -0.1292
29061W        W32281  14.865   0.725  12.666  0.1443 -0.1347 -0.0304
29062W        W32282   8.136  15.245   9.490 -0.1699  0.0377  0.0586
29063W        W32283  11.911   5.321   8.948 -0.1386  0.0594  0.1936
29064W        W32284   5.446  15.935  11.181  0.3051  0.1392  0.3503
29065W        W32285   7.768  12.391  12.058 -0.2143 -0.2752 -0.1414
29066W        W32286  15.633  12.785  14.718  0.0290 -0.1073  0.0689
29067W        W32287  11.205   9.944  13.577  0.0074 -0.3228 -0.1404
29068W        W32288   6.815   4.668   4.460 -0.0311  0.1746 -0.0866
29069W        W32289  15.020   6.736   2.692  0.2358  0.1982 -0.0905
29070W        W32290   6.972  17.942  10.874  0.0678  0.0616 -0.0406
29071W        W32291  12.611   1.907   8.406 -0.0464  0.1130 -0.2261
29072W        W32292   3.472  15.781   7.859  0.2208 -0.1579  0.3252
29073W        W32293   9.138   3.721  10.680  0.0758 -0.1385 -0.1647
29074W        W32294   8.505  13.413   7.133 -0.0456  0.1199 -0.0143
29075W        W32295   7.641   4.522  16.697  0.1357 -0.0021  0.2407
29076W        W32296   7.522   9.465   6.220  0.0135  0.1097  0.0270
29077W        W32297   8.563  15.649  15.698 -0.1740 -0.1233 -0.3074
29078W        W32298  12.267  13.022  14.735 -0.1145 -0.2789 -0.2222
29079W        W32299  14.169   2.108  11.554  0.2142  0.2040 -0.1890
29080W        W32300   8.406  16.892  13.136 -0.0155 -0.1839 -0.1153
29081W        W32301   6.499  12.520  10.696 -0.2310 -0.1441 -0.1067
29082W        W32302   4.633  15.754  11.507 -0.2908  0.1248  0.1441
29083W        W32303   4.509  16.775  15.951 -0.0101 -0.2110 -0.3397
29084W        W32304   7.708   9.218   2.455 -0.3335 -0.4119  0.2448
29085W        W32305   9.622   7.011   6.165 -0.1724 -0.2959 -0.0915
29086W        W32306   8.555  15.292  16.140 -0.0927 -0.2268  0.3199
29087W        W32307  15.851   2.403  16.210  0.3165  0.2024  0.1432
29088W        W32308  12.092   2.782  15.748 -0.1312  0.1317  0.0164
29089W        W32309  13.000   2.403   7.746 -0.0471 -0.1359  0.4689
29090W        W32310   3.827   0.857  13.492 -0.0853  0.2349 -0.0012
29091W        W32311  16.332   0.772  15.394 -0.1018  0.0976 -0.0669
29092W        W32312   5.277  15.968   8.917  0.2146 -0.0915  0.2912
29093W        W32313   9.775  18.211  12.577  0.4456 -0.0659 -0.0333
29094W        W32314   3.999  15.007  12.036  0.1306 -0.2298 -0.1013
29095W        W32315   6.837  13.894  13.275 -0.2041 -0.3717  0.2141
29096W        W32316   8.855   3.599  11.189  0.2573  0.2106 -0.1625
29097W        W32317   9.962  16.019  14.351  0.0564  0.1705 -0.0648
29098W        W32318  14.064   9.316  17.703  0.1531 -0.2069  0.3516
29099W        W32319  15.959  10.458   6.393  0.4371  0.0204 -0.2425
29100W        W32320  13.522   1.312   9.106  0.2211 -0.0020  0.1130
29101W        W32321  13.272   3.028   2.769  0.1155  0.1215  0.1200
29102W        W32322  13.636  16.944  13.271  0.1574 -0.2235 -0.0366
29103W        W32323   8.445  16.611  12.137 -0.2615  0.3830 -0.0243
29104W        W32324  11.197  10.118  16.829 -0.4568  0.2103 -0.0978
29105W        W32325   6.902  16.386  10.263  0.0107 -0.2068  0.2008
29106W        W32326  14.689   0.608  10.702  0.0227 -0.1179  0.2428
29107W        W32327  14.121  17.246  12.486 -0.0436  0.1352  0.1348
29108W        W32328   8.428  17.676   9.369 -0.0089  0.3320  0.2507
29109W        W32329  18.184   2.713  12.751 -0.1946  0.0040  0.1237
29110W        W32330   3.461  18.073  12.605 -0.0715  0.0181 -0.1170
29111W        W32331   7.299  11.187   0.855 -0.3741 -0.1979 -0.4391
29112W        W32332   6.124   3.821  17.718 -0.3245 -0.1977  0.2317
29113W        W32333  11.747   7.406   0.536  0.1305 -0.0956  0.3809
29114W        W32334   2.726   8.662   8.210 -0.0557  0.2106 -0.4262
29115W        W32335  12.360   0.546  11.789 -0.0643 -0.1750  0.0075
29116W        W32336  11.666  17.787  10.777  0.4096 -0.2550  0.2270
29117W        W32337   7.215   7.481   7.461 -0.0568 -0.0008  0.1315
29118W        W32338  11.110  12.274   0.374  0.1877  0.0631 -0.0751
29119W        W32339   2.526   9.679   9.960  0.0946 -0.2144  0.0569
29120W        W32340   5.891  15.402  13.543  0.0724  0.0852 -0.1253
29121W        W32341  11.854  16.946   4.281 -0.5484  0.1205  0.0206
29122W        W32342  11.097   5.164   4.359  0.1126 -0.0848 -0.0741
29123W        W32343   7.373  14.087   9.116 -0.0942  0.2843  0.0585
29124W        W32344  11.954  14.906  14.502 -0.4670 -0.0450 -0.3219
29125W        W32345  15.276  13.359  10.183 -0.0529 -0.1366 -0.3831
29126W        W32346  10.344  13.377  14.328  0.2136  0.0698  0.1467
29127W        W32347  12.001  16.780  12.976  0.0273 -0.0688  0.3326
29128W        W32348   5.160  17.722   4.676 -0.1422  0.2057  0.1983
29129W        W32349   6.610  17.036  13.115 -0.1107 -0.0119 -0.1300
29130W        W32350   4.136   0.302   8.708 -0.1971  0.3239  0.2215
29131W        W32351   3.026  17.199  16.147  0.0852  0.2955 -0.0316
29132W        W32352   7.137  18.015   9.974 -0.1814  0.0679  0.1286
29133W        W32353  13.060   4.649   0.158 -0.3566  0.1177  0.1216
29134W        W32354   1.374   0.713   8.351 -0.0238 -0.0588 -0.3620
29135W        W32355   5.265  14.100   5.514  0.0785  0.1421  0.0359
29136W        W32356   9.557  16.735   6.989  0.0829  0.0758  0.2063
29137W        W32357  14.947  13.324   6.238  0.0203 -0.0072 -0.3019
29138W        W32358   9.201  17.043  12.009  0.1830  0.1601  0.1827
29139W        W32359  11.823   1.185   8.935  0.1385  0.2207 -0.2112
29140W        W32360   9.524   1.068   6.243  0.1043  0.0097 -0.3236
29141W        W32361  12.048  13.869  13.099  0.2037 -0.0116  0.1566
29142W        W32362   5.911   9.744   4.386 -0.2145  0.2651  0.2006
29143W        W32363   6.890   4.229   5.846 -0.0717  0.2772  0.0004
29144W        W32364   9.699  15.207  10.155 -0.1543  0.2278  0.0631
29145W        W32365  14.430   3.696  12.530 -0.0749  0.0092 -0.1196
29146W        W32366  13.127  12.929  14.806 -0.0876 -0.1626  0.3167
29147W        W32367   6.720  11.066  12.188 -0.1743  0.2345  0.0288
29148W        W32368   8.313   7.607  15.365 -0.3142  0.0069 -0.0626
29149W        W32369  11.389  13.904  12.794  0.0296  0.0632  0.1764
29150W        W32370   9.654  12.492   8.697 -0.0706 -0.0985 -0.1132
29151W        W32371   6.576  14.484  12.329  0.0706 -0.1225  0.1778
29152W        W32372   5.873   8.820  14.023 -0.1408  0.1949 -0.1066
29153W        W32373   3.108  18.196   9.534  0.2175  0.2309  0.1802
29154W        W32374   3.235   5.301   7.716 -0.1698 -0.0639 -0.3631
29155W        W32375   6.617  15.784   6.712 -0.1670 -0.3611 -0.0200
29156W        W32376   2.006  13.029  12.881  0.0508 -0.0443  0.0952
29157W        W32377  14.085  11.996  16.247 -0.0786 -0.4282  0.2087
29158W        W32378   1.443   0.310  13.151  0.1112 -0.0742  0.2141
29159W        W32379   9.905  15.830   2.913 -0.2423  0.0411 -0.0729
29160W        W32380  11.787   0.068  10.929  0.3926  0.1159  0.4071
29161W        W32381   8.689   5.406  10.462 -0.0865 -0.0401 -0.1369
29162W        W32382   8.361  14.272   9.515  0.0246 -0.1211  0.1555
29163W        W32383  13.532  16.795   1.649  0.3133 -0.0566 -0.0820
29164W        W32384   7.490  17.471   5.015  0.0188  0.2370 -0.1924
29165W        W32385  11.627  14.214  10.101  0.0928 -0.1620  0.0416
29166W        W32386   5.327  14.039   1.308 -0.0555 -0.0057  0.0765
29167W        W32387  10.300   6.269   8.865 -0.1271  0.1393  0.2454
29168W        W32388  12.486  16.164  16.860  0.1716 -0.1621  0.2012
29169W        W32389   5.062  16.075  13.424  0.0737 -0.0475  0.0475
29170W        W32390  16.764   9.215  16.893 -0.0769 -0.2860  0.3715
29171W        W32391  18.068   2.570   9.383 -0.0430 -0.0180  0.0188
29172W        W32392   9.160   5.734  11.324 -0.0726 -0.2386  0.0751
29173W        W32393   7.597  14.593  12.443 -0.1911  0.0378 -0.1643
29174W        W32394   0.962   7.022   3.868 -0.4432  0.0546 -0.1612
29175W        W32395   7.813   6.655  17.888 -0.1148  0.0211 -0.0109
29176W        W32396  14.382  16.236  14.074  0.2926 -0.1721 -0.0609
29177W        W32397   8.464   4.315  17.695  0.1420  0.0827 -0.0181
29178W        W32398  10.326   7.321   0.271  0.0961  0.2960  0.0965
29179W        W32399  12.785  12.677  13.993  0.2426 -0.2756  0.1244
29180W        W32400  17.600  15.251  16.448  0.2459  0.1229  0.1426
29181W        W32401  10.970  18.257  17.426 -0.0688 -0.2679  0.0832
29182W        W32402  13.849   2.306   7.251 -0.2230 -0.4145  0.3270
29183W        W32403   3.137  11.099  13.379  0.0958  0.1416  0.1616
29184W        W32404  12.666   0.882  15.604 -0.0266  0.1219  0.1307
29185W        W32405  12.388  14.963  15.271  0.1233  0.1110 -0.1025
29186W        W32406   4.987  13.292  14.824 -0.1290  0.1810 -0.1029
29187W        W32407  11.864  15.938  17.595 -0.0627  0.1079 -0.1919
29188W        W32408   3.710  15.894  15.813 -0.1401 -0.0814  0.2283
29189W        W32409   8.527   0.980  14.074  0.5033 -0.3092 -0.3002
29190W        W32410   5.089  13.925  14.175  0.1036 -0.1632 -0.5067
29191W        W32411   9.285  15.963  17.527  0.1978  0.0190  0.1252
29192W        W32412   7.615   4.090  16.090 -0.0518  0.0255 -0.1236
29193W        W32413  16.506   1.077   8.162 -0.0478  0.1485  0.2220
29194W        W32414  11.608  13.624  16.130  0.2102 -0.3789  0.0269
29195W        W32415  11.125  14.773   9.573 -0.3179  0.1005  0.1391
29196W        W32416   9.337   1.156   0.814  0.0232 -0.1210  0.0500
29197W        W32417   2.175  15.828  18.012  0.0599  0.0102 -0.1328
29198W        W32418   9.698   0.058  16.519 -0.3413 -0.0199  0.0129
29199W        W32419   2.566  17.438   1.205  0.0189  0.1751 -0.2303
29200W        W32420  10.944  15.765   3.842  0.1774 -0.0198 -0.1448
29201W        W32421   8.245   0.435  13.318 -0.2413 -0.3458  0.0602
29202W        W32422   6.933   0.789  17.893 -0.0147  0.3749  0.2662
29203W        W32423   4.574  16.989   6.402 -0.1784 -0.0477  0.0432
29204W        W32424  12.378  14.285  12.798 -0.0208  0.2959 -0.2989
29205W        W32425   6.160  12.427  11.043 -0.3929  0.0697 -0.0590
29206W        W32426   7.658  12.974  14.964  0.1190 -0.2139  0.0211
29207W        W32427   7.956   0.541   2.454  0.1044 -0.0933 -0.2218
29208W        W32428   7.323   1.754   7.251 -0.0685  0.0577 -0.0202
29209W        W32429   6.743  17.169  15.665  0.0301 -0.0717  0.2412
29210W        W32430   1.844  15.342  13.852 -0.1027  0.1937  0.0907
29211W        W32431  12.533  14.226  14.349 -0.0469 -0.1637 -0.1244
29212W        W32432   9.641   3.444  16.540  0.0036 -0.0328 -0.2554
29213W        W32433  14.853   2.064  16.034 -0.1077  0.3251  0.1563
29214W        W32434   4.464  11.288   1.141 -0.0570 -0.1957  0.1746
29215W        W32435  14.770  17.113  13.552 -0.0995 -0.0924 -0.1638
29216W        W32436   3.517  12.344  12.726  0.0128 -0.0724  0.3121
29217W        W32437  11.888  11.767  16.669 -0.0644  0.0480 -0.1097
29218W        W32438  10.571   0.960   0.012  0.0680 -0.0386  0.0688
29219W        W32439   1.972  14.351   0.318  0.0599 -0.3404 -0.0201
29220W        W32440  11.555   0.401  16.913  0.0937 -0.1393 -0.0030
29221W        W32441  15.131   0.699   0.008 -0.1248  0.0584 -0.3497
29222W        W32442  13.785  13.552  16.938  0.2095 -0.0387 -0.2295
29223W        W32443  10.732  18.151  16.007 -0.0313 -0.3559 -0.0735
29224W        W32444   4.030  17.214  12.366  0.0531 -0.2550  0.2551
29225W        W32445  15.094  15.299  17.414  0.0652 -0.2262  0.1799
29226W        W32446   0.933   1.203   5.068  0.1238 -0.0272 -0.0953
29227W        W32447  15.640  17.471  15.261 -0.1413 -0.0505 -0.1068
29228W        W32448  11.762  12.755   3.398 -0.0486 -0.1238  0.0354
29229W        W32449  15.847   2.450  13.947  0.2283 -0.3507  0.1791
29230W        W32450  17.955  10.565   2.799 -0.0102  0.3071 -0.2455
29231W        W32451  13.826  15.566  17.727 -0.1323  0.2422 -0.1595
29232W        W32452   5.402   1.405   3.067  0.1835  0.1343 -0.1533
29233W        W32453   7.972  14.242   8.134  0.1204  0.0540 -0.0807
29234W        W32454   8.928  15.281   7.322 -0.0930  0.0088  0.0757
29235W        W32455   6.751  15.674  13.458 -0.0011 -0.1927  0.3180
29236W        W32456   6.182   1.580  11.900 -0.1517  0.2014  0.1558
29237W        W32457  16.958  16.604  14.708  0.1326  0.2759 -0.1205
29238W        W32458   6.726   0.217   3.341  0.2319  0.0980  0.1665
29239W        W32459  18.108  17.491  13.099  0.2735  0.1106 -0.4637
29240W        W32460  12.143  16.636   2.092 -0.0465 -0.0390  0.0770
29241W        W32461  10.431   3.239  16.610 -0.2385  0.0744  0.0688
29242W        W32462   5.451  11.933  14.808 -0.1598 -0.0962 -0.1044
29243W        W32463   9.793   1.385   4.877  0.0372  0.3848  0.0327
29244W        W32464   8.686  16.316  15.981  0.0804 -0.2026  0.2281
29245W        W32465   5.335  11.167  16.769  0.0000 -0.2632  0.0862
29246W        W32466  14.464   8.939   0.419  0.1375  0.0035  0.0339
29247W        W32467  10.905  12.591   5.119 -0.0956  0.0610  0.1521
29248W        W32468   9.156  13.323  15.293  0.3467  0.2159 -0.0157
29249W        W32469  10.584  14.554  12.771 -0.2994  0.1282  0.0137
29250W        W32470   3.412  17.427  11.596  0.3553 -0.0974  0.0144
29251W        W32471   8.897  10.766  16.243 -0.0514 -0.0838  0.1247
29252W        W32472   6.219  15.555  15.387  0.1474  0.0361 -0.2435
29253W        W32473  10.819  10.767  13.602 -0.1146 -0.0003  0.1166
29254W        W32474  11.395  17.443   3.131 -0.1623  0.0859  0.0903
29255W        W32475  10.099   3.614   0.154  0.0921 -0.3420 -0.0110
29256W        W32476  10.383  14.327  16.862 -0.3316 -0.2786  0.0057
29257W        W32477   7.202   9.589   5.219 -0.4243 -0.1949 -0.2154
29258W        W32478  12.441  17.957   5.806  0.2353  0.2272  0.0725
29259W        W32479  10.465  15.669  15.967  0.0308 -0.0204 -0.0062
29260W        W32480   8.909  15.178  12.595 -0.0795  0.1446  0.4776
29261W        W32481  12.115  18.141   9.953  0.2466 -0.2543 -0.3111
29262W        W32482   7.404  17.901   1.821 -0.2254  0.1448  0.3320
29263W        W32483   8.476  10.618  17.842 -0.0917 -0.2443 -0.0016
29264W        W32484   6.384  10.430  11.113  0.2294 -0.1171  0.0023
29265W        W32485  12.163   8.954  18.198  0.1505  0.0093 -0.2667
29266W        W32486   4.048   5.672   5.918  0.0888 -0.2132 -0.1417
29267W        W32487  15.446  17.137  13.833  0.0222  0.0930  0.2248
29268W        W32488  10.698  11.084  11.442 -0.1265 -0.1501 -0.0590
29269W        W32489   3.799   0.182  12.472 -0.0408  0.0752 -0.0094
29270W        W32490  11.313  14.506  13.869  0.0553  0.1049 -0.0138
29271W        W32491  14.504  10.902   1.498  0.0359  0.3577  0.0842
29272W        W32492   1.179   4.545  12.984  0.3762 -0.3287  0.1252
29273W        W32493   7.526  14.645   8.895  0.1877 -0.1983  0.1101
29274W        W32494   4.129  16.058  12.396 -0.1700 -0.0903 -0.0449
29275W        W32495   1.662   6.206  17.812 -0.0710  0.0227 -0.0716
29276W        W32496  12.123  15.122  12.510 -0.0066 -0.1143  0.1387
29277W        W32497  11.164  14.862   7.045  0.1807  0.1044 -0.0338
29278W        W32498   4.088  16.450   3.041  0.0998 -0.1857 -0.2662
29279W        W32499  10.738   8.118  17.122  0.3062  0.0331  0.0253
29280W        W32500   9.694  12.912   3.054  0.1535  0.0000  0.1098
29281W        W32501   7.808  14.058  17.600 -0.1496  0.0684 -0.2384
29282W        W32502   6.776   5.565  13.806 -0.3224 -0.1537  0.1483
29283W        W32503   8.102  17.618   9.802 -0.2856  0.0882 -0.2925
29284W        W32504   7.067  10.738  15.869 -0.1763  0.0901  0.0306
29285W        W32505  11.498  14.802   0.520 -0.0440 -0.1718 -0.0288
29286W        W32506   4.084   0.187  12.872 -0.4110 -0.0383  0.1736
29287W        W32507   7.397  11.107  10.303  0.2381  0.3170 -0.0574
29288W        W32508  10.039   7.604   3.111  0.0437  0.1647  0.0107
29289W        W32509   1.114  17.307   9.404  0.0975  0.2746 -0.3975
29290W        W32510   5.851  15.737  15.763  0.2438  0.0106 -0.0037
29291W        W32511   7.235  15.678   3.465 -0.0544 -0.0260  0.1200
29292W        W32512   9.918  17.287   2.737 -0.1996  0.2325  0.2094
29293W        W32513   6.888  14.688  11.144  0.1531 -0.0631  0.3363
29294W        W32514   1.671  11.292  16.284  0.1342  0.0706 -0.1364
29295W        W32515  10.942  16.347  15.306  0.3262  0.1719 -0.0725
29296W        W32516   7.884  12.503  18.011  0.0283  0.1028  0.2674
29297W        W32517  11.227   6.574   8.711  0.1346 -0.0432  0.0482
29298W        W32518  12.482   3.585   4.513  0.0066 -0.1556  0.2384
29299W        W32519   8.457  15.698  12.320  0.1603  0.0701 -0.0587
29300W        W32520   1.433  16.624  16.670  0.2777  0.3100 -0.1570
29301W        W32521  12.014  13.895  11.357 -0.0384 -0.2785  0.0747
29302W        W32522   6.980   4.756   0.951 -0.1219 -0.3263 -0.0113
29303W        W32523   8.223   8.701   1.824  0.0742  0.1409 -0.1160
29304W        W32524  10.549  11.979  11.232  0.0816 -0.1249  0.0327
29305W        W32525  15.462  16.895  17.694  0.0572  0.1352 -0.1398
29306W        W32526   7.240  16.690   5.937 -0.0411 -0.0407 -0.1938
29307W        W32527   7.028  16.775   2.315 -0.3744  0.0892  0.1647
29308W        W32528  14.540   9.818   5.259 -0.0810 -0.1387 -0.2499
29309W        W32529  10.858  11.627  14.591 -0.0531  0.2137 -0.1742
29310W        W32530  14.104   4.941  12.498 -0.2756 -0.0903 -0.1164
29311W        W32531   2.234  13.522  17.078 -0.2943 -0.1016 -0.0485
29312W        W32532   1.765  14.155   9.367 -0.2272 -0.3522  0.0985
29313W        W32533  13.212   0.770   0.270 -0.1992  0.3324  0.2235
29314W        W32534   8.000  17.781   1.467 -0.0722 -0.1173 -0.2129
29315W        W32535   6.286   4.943  13.169 -0.2018 -0.0974 -0.1129
29316W        W32536   9.851  16.309  18.249  0.2302  0.0497  0.0852
29317W        W32537  15.895  17.547  18.246  0.1886 -0.1166  0.0322
29318W        W32538  14.137   3.012  15.021 -0.2934 -0.0339 -0.1190
29319W        W32539   9.023  17.887  14.809 -0.0777  0.0081  0.0922
29320W        W32540  12.813   4.064   2.371 -0.2680  0.1766  0.2047
29321W        W32541   6.463  17.718   2.825 -0.0882 -0.0999  0.1682
29322W        W32542  13.217  17.560   9.717 -0.2223 -0.0697 -0.0834
29323W        W32543   5.845   9.260  15.010 -0.1401 -0.2937  0.0543
29324W        W32544   9.534   6.900   2.853  0.1608 -0.0998  0.1237
29325W        W32545   4.369  13.032   7.750 -0.0940  0.0217 -0.4897
29326W        W32546  17.693  16.674  18.114  0.0964 -0.2808 -0.2220
29327W        W32547   7.034  14.733  16.127 -0.0081 -0.0564  0.2218
29328W        W32548   4.006  10.352   3.432 -0.0023  0.1621 -0.2809
29329W        W32549   7.103   3.247  15.450  0.1865 -0.0647 -0.0392
29330W        W32550   6.836  12.124  16.136  0.1169  0.2373  0.1074
29331W        W32551   9.297  13.375   1.299  0.1265 -0.1109  0.2823
29332W        W32552  10.344  16.305   1.492 -0.0745 -0.1182  0.0153
29333W        W32553  15.981   1.798  15.488 -0.1589  0.1449  0.0197
29334W        W32554   3.503  14.678  16.546 -0.0082  0.0220  0.0521
29335W        W32555  12.334  10.102  17.618  0.0314  0.2547  0.1226
29336W        W32556   9.171   4.354   3.416  0.0739 -0.1909  0.0739
29337W        W32557  11.324  14.121  14.873 -0.0882  0.0445 -0.1144
29338W        W32558  12.960   4.637   3.290 -0.2448  0.0927  0.1844
29339W        W32559   8.455  16.740  16.327 -0.1463  0.2653 -0.1059
29340W        W32560   5.636  14.561   3.725 -0.2277  0.0687  0.3939
29341W        W32561   4.146  13.553   3.357  0.2673 -0.1571  0.3112
29342W        W32562  14.232  11.057   9.525 -0.0459 -0.2877 -0.0428
29343W        W32563  11.735   2.113  12.429 -0.0389  0.0380  0.1765
29344W        W32564   9.695   4.637  15.919 -0.3962 -0.1152  0.0367
29345W        W32565   9.268  13.458  16.725  0.0695 -0.1975 -0.2651
29346W        W32566   5.185  14.324  13.356  0.0690 -0.4504  0.1779
29347W        W32567   9.651   1.346  15.854  0.1794 -0.0325  0.2837
29348W        W32568   9.513  14.488   1.919 -0.1277  0.0887  0.2930
29349W        W32569  11.750   4.789   1.934  0.0313  0.1846 -0.0822
29350W        W32570  14.298  13.693   4.475  0.2338 -0.0404 -0.0691
29351W        W32571  13.462   0.716   2.556 -0.3675 -0.2546  0.2353
29352W        W32572   2.146  14.923  17.266  0.0216  0.0417  0.3726
29353W        W32573   5.403  14.174   4.525 -0.0852 -0.1049 -0.2227
29354W        W32574   9.812  15.006   6.412 -0.1541  0.0653 -0.1309
29355W        W32575   8.390   2.855  12.827  0.0354  0.0509  0.1387
29356W        W32576   8.602  14.461  15.083 -0.0331 -0.2487  0.1513
29357W        W32577  10.169  11.835   6.853  0.1429  0.3205  0.2382
29358W        W32578   5.694  15.447  17.852 -0.2654  0.2476  0.0646
29359W        W32579  11.660   1.929  13.346 -0.0735 -0.0257 -0.2111
29360W        W32580   7.011  17.740  17.940  0.2200  0.2944  0.0399
29361W        W32581   6.826  13.830  15.250 -0.0969  0.1121  0.3570
29362W        W32582  12.143  15.075   0.200  0.2359 -0.0353 -0.3038
29363W        W32583   6.385   5.999   0.690 -0.0304 -0.4148 -0.0558
29364W        W32584  10.306  13.383  11.406 -0.2099  0.1016 -0.1573
29365W        W32585   7.781  17.412  13.631  0.0545  0.2191  0.3600
29366W        W32586   7.109   6.032  13.107  0.1646 -0.2483  0.1351
29367W        W32587   5.614  14.331  12.969  0.3846 -0.0658  0.0090
29368W        W32588   6.211  14.806  13.997  0.0806 -0.0383  0.2368
29369W        W32589  16.349   4.436  12.493  0.2415  0.0385  0.1022
29370W        W32590   3.544   3.627  10.267 -0.0239  0.0711 -0.2767
29371W        W32591   6.543  17.838  10.591  0.3191 -0.0092  0.2892
29372W        W32592  15.951  17.969   1.186  0.1036 -0.1220 -0.0178
29373W        W32593   3.946  17.246   1.311  0.0228  0.0330 -0.0868
29374W        W32594   3.908  15.526   6.483 -0.0719  0.1379  0.3887
29375W        W32595   1.941  15.447   1.196  0.3200  0.3790  0.4144
29376W        W32596  13.677   3.795  17.553 -0.1125 -0.0751 -0.1065
29377W        W32597   5.954  16.301  14.265 -0.0949 -0.1106  0.0835
29378W        W32598   6.905   5.406   0.448 -0.2859  0.0920  0.0022
29379W        W32599   5.925   2.393  17.117  0.0853 -0.2705  0.0961
29380W        W32600   8.303  17.445  17.357  0.2266 -0.0188  0.0227
29381W        W32601  11.078   3.641   0.586  0.2852  0.0843  0.0224
29382W        W32602   5.077   8.969  16.983 -0.2184 -0.0478  0.0540
29383W        W32603   3.084  13.940  15.883 -0.0336  0.1391 -0.1341
29384W        W32604  13.724  11.768   0.734  0.0191 -0.0146  0.0994
29385W        W32605  11.377   0.071   0.361 -0.1265  0.0478 -0.2018
29386W        W32606   9.367  16.546  15.760  0.0934  0.1654 -0.3781
29387W        W32607   3.594  11.629   4.963  0.1587  0.2270  0.2442
29388W        W32608   7.493  13.159   4.349  0.0804 -0.0906 -0.0203
29389W        W32609   4.436   0.335  15.767  0.0051  0.1794  0.2238
29390W        W32610  11.652  14.383   6.164 -0.0850  0.1833 -0.0254
29391W        W32611  10.782  17.538  18.242 -0.0731 -0.0825 -0.5326
29392W        W32612  10.467   0.660   5.638 -0.1262 -0.1006 -0.2665
29393W        W32613   2.724  17.978   4.607  0.0759  0.0031 -0.0533
29394W        W32614   9.082   4.201  14.840 -0.0005  0.1302  0.0039
29395W        W32615  15.594   3.887  13.607  0.1318 -0.1972 -0.0532
29396W        W32616   9.919  12.068   2.512  0.5606 -0.0372 -0.1703
29397W        W32617  14.833   1.965  17.883  0.0881  0.0002 -0.5371
29398W        W32618   9.850  15.071  14.917  0.0472  0.1640  0.0295
29399W        W32619  11.120   2.536   7.897  0.0985 -0.0376  0.2000
29400W        W32620  11.741  11.274  12.191 -0.0661 -0.1153 -0.0685
29401W        W32621   2.521  14.418  17.397  0.3273  0.3873 -0.1922
29402W        W32622  11.804  15.406  18.089 -0.1876 -0.1091 -0.1447
29403W        W32623  11.949  17.596  11.819 -0.0242 -0.1550  0.1242
29404W        W32624  11.930   6.977   0.505  0.2554 -0.2231  0.0845
29405W        W32625   6.579  16.713   3.175 -0.0779  0.2966 -0.1447
29406W        W32626  12.736   4.962   1.773  0.1604  0.0626  0.1757
29407W        W32627   8.932  14.450   0.489 -0.0838 -0.1842 -0.0315
29408W        W32628  11.031   4.791  14.474 -0.1179 -0.0347 -0.1529
29409W        W32629  11.270  14.533  15.738 -0.1479 -0.1378 -0.0362
29410W        W32630   3.779  11.493  16.287 -0.1748  0.0657 -0.0881
29411W        W32631   6.840  16.281   9.202  0.0195 -0.1515 -0.1764
29412W        W32632  13.068  13.367  18.023  0.1109 -0.2221  0.0269
29413W        W32633  11.769   0.911  10.607  0.1241 -0.1776  0.3090
29414W        W32634   7.402   3.916   2.325  0.1575 -0.1098 -0.0439
29415W        W32635  10.899   2.029   2.983 -0.0364 -0.0639  0.1036
29416W        W32636  10.234  13.743  13.812 -0.2711 -0.0476  0.0051
29417W        W32637  13.760  15.367   2.363 -0.1365 -0.1163  0.0326
29418W        W32638  17.591  13.930  16.497 -0.1339 -0.0966  0.1363
29419W        W32639   1.350   4.518   1.814  0.0628 -0.2326 -0.1708
29420W        W32640  13.806   0.210  16.492 -0.0728  0.1437  0.2545
29421W        W32641   4.355   4.965   0.076 -0.1259  0.0123  0.0351
29422W        W32642  16.535  12.832  16.770  0.0802 -0.1708  0.1365
29423W        W32643  12.388   5.303  16.807  0.2933 -0.1766  0.0351
29424W        W32644   8.492   0.094  16.989  0.2259 -0.1705  0.1808
29425W        W32645  12.984  15.338   5.658 -0.1139 -0.2571  0.0815
29426W        W32646  16.645  14.954  16.869  0.1573  0.1888  0.0823
29427W        W32647   8.869  12.170  16.210  0.4723 -0.1255  0.0617
29428W        W32648   4.773   3.420  15.610 -0.1119 -0.0232  0.0666
29429W        W32649   6.070   5.490   6.312  0.1636 -0.0349 -0.1538
29430W        W32650  10.622  11.999  12.045 -0.1128 -0.0796  0.2504
29431W        W32651  15.580  17.849   0.848  0.2005 -0.3280  0.0882
29432W        W32652  13.058   5.382  14.126 -0.0180  0.0376  0.3529
29433W        W32653   3.699   3.271  18.067  0.1860  0.0703 -0.0221
29434W        W32654   3.512   0.753   8.989 -0.1249  0.1725  0.1205
29435W        W32655   9.114   3.787   0.135  0.0794  0.0392 -0.2993
29436W        W32656   7.959   1.355  17.150 -0.1547  0.1666  0.1630
29437W        W32657  13.851  16.682   8.861  0.0805 -0.2401  0.1091
29438W        W32658   7.579  11.607  15.109  0.0340  0.0338 -0.0860
29439W        W32659  10.080   6.119  16.912 -0.2743  0.0292  0.2385
29440W        W32660   5.436   3.080   1.575 -0.1080 -0.0653 -0.2842
29441W        W32661  14.478  14.264  14.326 -0.1845  0.1234 -0.0797
29442W        W32662  16.796   4.033   4.309 -0.0279 -0.1677  0.1152
29443W        W32663  12.904  13.122   7.246  0.0872 -0.0122  0.1335
29444W        W32664   9.704  15.471   0.498  0.1444  0.1047 -0.0094
29445W        W32665  16.145   3.157  10.599  0.2602  0.2092  0.0704
29446W        W32666   8.978  15.466  17.367  0.2450  0.2344 -0.3212
29447W        W32667   8.610  15.506  14.835  0.1681  0.2245  0.2193
29448W        W32668  10.720  13.672   0.229  0.0413  0.0173  0.2768
29449W        W32669   7.045  12.236  11.389  0.2270 -0.0065  0.0843
29450W        W32670  11.290  18.231  15.465 -0.2782 -0.1233  0.1255
29451W        W32671   8.508   0.039   2.509 -0.0090 -0.0163  0.2228
29452W        W32672  10.387  17.996  13.783  0.0597 -0.1569 -0.3301
29453W        W32673   7.596   1.991   3.786 -0.0070  0.0691  0.2538
29454W        W32674   7.108  10.966  14.500 -0.1004  0.1147  0.2508
29455W        W32675  11.982  13.965  11.883 -0.1211  0.0711  0.0424
29456W        W32676  14.042  14.146  18.067  0.2897 -0.0928  0.1069
29457W        W32677   2.897  11.702  18.185 -0.0245  0.1572 -0.1962
29458W        W32678   6.274  13.529  14.613 -0.0204 -0.0892 -0.2501
29459W        W32679  11.905   8.936   0.363 -0.1823  0.0947 -0.2310
29460W        W32680   8.933  16.702  15.983 -0.1053  0.3654 -0.0152
29461W        W32681  11.391   2.813   3.746 -0.4226 -0.0101 -0.1125
29462W        W32682   3.285  15.526  14.931 -0.3650 -0.1019 -0.0148
29463W        W32683   4.552  17.248  16.771 -0.3902  0.1202  0.2893
29464W        W32684   8.370  14.515  17.728 -0.0993 -0.4686 -0.2417
29465W        W32685   3.069  11.603  13.670 -0.0559 -0.0687  0.1017
29466W        W32686   3.161   1.532  12.387 -0.4797 -0.0531  0.1507
29467W        W32687   7.797  12.685   0.196 -0.0730  0.0167  0.0268
29468W        W32688   3.807   1.294   3.234 -0.2825 -0.4672 -0.0006
29469W        W32689  12.557  13.010  12.751 -0.1472 -0.0940  0.2479
29470W        W32690   6.591   2.943  16.956 -0.1292 -0.2223 -0.0309
29471W        W32691   0.664   5.798  14.685  0.0047  0.1820 -0.3390
29472W        W32692   5.649   4.165  15.348 -0.4489  0.0125 -0.1184
29473W        W32693   5.717   5.847   6.200  0.0291 -0.0603 -0.1084
29474W        W32694   8.881   5.909   0.625 -0.0619 -0.0215 -0.1512
29475W        W32695  13.991   0.748  16.650  0.2812 -0.2439 -0.1570
29476W        W32696  11.444  15.070  12.771  0.0544  0.2427  0.2373
29477W        W32697   5.810  17.102   3.608 -0.1800 -0.1293  0.1197
29478W        W32698   9.281   0.534   3.132 -0.1871  0.4507 -0.0885
29479W        W32699   5.972   7.486   0.987  0.0798  0.0868  0.1377
29480W        W32700  11.650   9.468   3.175  0.2570  0.1958  0.2514
29481W        W32701   5.342  12.724   3.164 -0.1939 -0.0081 -0.0118
29482W        W32702  10.021   2.661  15.958  0.0499 -0.1345 -0.2145
29483W        W32703   8.359  12.024   1.038 -0.2448  0.0741  0.4231
29484W        W32704   4.179  14.261  15.986 -0.1398  0.1353 -0.3042
29485W        W32705   8.752  17.793   3.935 -0.1535  0.0108  0.1454
29486W        W32706   8.582  14.821  12.745  0.0394  0.0445  0.1067
29487W        W32707   6.324   3.369  12.019 -0.0672 -0.2032  0.0250
29488W        W32708   8.916  14.887   2.180 -0.0597 -0.0382  0.1927
29489W        W32709   1.965   4.380  16.589  0.0290  0.0568  0.0271
29490W        W32710   5.797  15.334   0.302 -0.2979  0.1268 -0.0275
29491W        W32711   3.789   4.855  18.056  0.1284 -0.1139 -0.0702
29492W        W32712   2.127   3.482   0.194  0.2275 -0.0077 -0.1881
29493W        W32713   8.491   7.683   1.343  0.0581 -0.0313 -0.0875
29494W        W32714   8.252   2.428  12.064  0.1879  0.1204  0.0674
29495W        W32715  10.623  10.106  15.036  0.1826 -0.3759 -0.4027
29496W        W32716   5.913   5.332   0.175  0.3154  0.0768 -0.0276
29497W        W32717   7.569  16.169   2.068  0.0463 -0.1960 -0.0774
29498W        W32718  16.310  15.858  13.723  0.0601  0.0071  0.0979
29499W        W32719  10.144  16.588  14.922  0.0853 -0.0846  0.2646
29500W        W32720   4.652  14.590  16.007 -0.0078 -0.0371  0.0833
29501W        W32721   2.549   1.256  14.398 -0.3668  0.1259  0.1146
29502W        W32722  17.106  16.918  12.303  0.1051 -0.1830  0.0952
29503W        W32723   5.480   7.160   0.902  0.0169  0.1597  0.1906
29504W        W32724  13.300   4.000  16.403 -0.1361  0.1398  0.0552
29505W        W32725   9.534  13.298   6.854 -0.0010 -0.1949 -0.1155
29506W        W32726   5.673  12.820   2.438  0.0133  0.2371  0.1521
29507W        W32727   6.560   5.929   5.826 -0.0495 -0.1900  0.0634
29508W        W32728  10.690  14.343  17.352 -0.2917  0.0494  0.2627
29509W        W32729  11.020  13.296  12.448  0.3543 -0.1031 -0.1606
29510W        W32730   9.350  14.272  14.644  0.0796  0.0639 -0.4113
29511W        W32731  10.125   1.581  17.693 -0.0863  0.0346 -0.1446
29512W        W32732  17.042   5.127   0.414 -0.1157 -0.2692 -0.1408
29513W        W32733  12.375  15.961  11.137  0.1246 -0.1061 -0.1549
29514W        W32734  11.910  16.164  11.468 -0.2813  0.0186  0.2135
29515W        W32735   8.064   0.329   7.623 -0.0327  0.2164  0.3905
29516W        W32736   1.741  13.945   1.200 -0.1786  0.0984  0.2941
29517W        W32737   7.784   2.546  17.695  0.1881 -0.0213 -0.0989
29518W        W32738  10.995  16.689   4.146 -0.0584  0.5443  0.0094
29519W        W32739  10.805  17.920   2.637 -0.1771 -0.4170 -0.1202
29520W        W32740  14.197   2.469   0.612 -0.0864 -0.1095 -0.4412
29521W        W32741  10.364   5.153   0.399  0.0360 -0.2799 -0.1707
29522W        W32742  14.240  10.236   8.666  0.2244  0.0193 -0.0531
29523W        W32743   5.727   3.717  13.640 -0.0069  0.1332 -0.1148
29524W        W32744   7.437  16.973   4.754 -0.0491 -0.0785 -0.2599
29525W        W32745   4.968   3.112  15.977 -0.0671 -0.4098 -0.2322
29526W        W32746  14.667   1.592  18.228  0.0703 -0.2804 -0.2135
29527W        W32747   9.816  16.121   0.679  0.1293  0.0688 -0.0676
29528W        W32748  11.041   0.229   3.882  0.0946 -0.1037  0.0645
29529W        W32749   7.270  18.216  13.219  0.4150  0.2145 -0.0591
29530W        W32750  12.258  13.434  18.062  0.2144  0.2013 -0.0076
29531W        W32751   2.251  14.118   1.124  0.4158  0.0002 -0.0318
29532W        W32752   3.186  17.415   2.780  0.1044  0.0777 -0.1948
29533W        W32753  10.906   1.852   9.625  0.3590 -0.2601  0.4530
29534W        W32754   8.533  13.634  10.039  0.1051 -0.1255 -0.1727
29535W        W32755  11.698  10.338  15.981  0.2007  0.0323 -0.1573
29536W        W32756  12.347  16.882   9.942 -0.1106 -0.1508 -0.1332
29537W        W32757   5.666  11.431  13.878  0.0860  0.2163 -0.1001
29538W        W32758  12.570  10.995  11.649  0.1160 -0.0953 -0.0309
29539W        W32759  11.382   7.085  14.210 -0.0338  0.1046 -0.0466
29540W        W32760   8.469   6.228   4.619 -0.0591  0.1334  0.1582
29541W        W32761  13.578   6.532  15.544 -0.1830  0.3623 -0.0966
29542W        W32762   8.178  14.076  15.604 -0.1809 -0.2263 -0.0207
29543W        W32763  13.217  14.985   0.029  0.2606 -0.1444 -0.2830
29544W        W32764   6.884   9.479  15.402  0.2537  0.1490 -0.0618
29545W        W32765  14.932   3.664  12.486 -0.0375  0.1922  0.2518
29546W        W32766   7.065   1.694  13.232 -0.1831 -0.4273 -0.0363
29547W        W32767   7.459  16.942  14.866  0.0244 -0.1541 -0.0576
29548W        W32768   3.891   0.653  12.679  0.2270 -0.1707  0.0248
29549W        W32769   3.028  16.839   0.402 -0.1577 -0.0950  0.0603
29550W        W32770  10.845  11.830   2.990 -0.1316  0.2293 -0.2617
29551W        W32771   8.548   1.832   0.328  0.0258 -0.2554 -0.1208
29552W        W32772   7.491  10.040  17.369 -0.1576  0.3203 -0.1095
29553W        W32773  12.963   2.373  16.395 -0.3263  0.1122  0.3456
29554W        W32774  11.520  16.292  16.806  0.1176  0.0369 -0.1971
29555W        W32775  12.708  17.867  18.010  0.3366 -0.3282  0.2051
29556W        W32776   8.336   0.214  17.939 -0.0832  0.0008  0.0594
29557W        W32777  11.767  16.318   0.911 -0.3233 -0.0307 -0.0829
29558W        W32778  12.169   0.183  13.268  0.0043 -0.0782 -0.0577
29559W        W32779  15.885  15.886   1.653 -0.2703  0.0195  0.0729
29560W        W32780   5.405  13.330  13.488  0.2056 -0.0849  0.0081
29561W        W32781   4.787  14.780   6.249  0.1035 -0.0503  0.2082
29562W        W32782  10.444  10.243   3.763  0.0108 -0.1564 -0.0327
29563W        W32783   7.961   1.784  17.448  0.0368 -0.0474 -0.4196
29564W        W32784   9.981   1.255  12.539  0.2578 -0.4009 -0.0346
29565W        W32785   9.574   9.810  10.580  0.1400 -0.2596 -0.1629
29566W        W32786  16.718   5.837  14.490 -0.1426 -0.1588 -0.2748
29567W        W32787  10.367  16.191   1.993 -0.0162 -0.3257 -0.1672
29568W        W32788   1.386   2.877   2.942  0.3957  0.1489  0.2680
29569W        W32789  14.976  13.142  18.195  0.0057 -0.0488  0.0804
29570W        W32790   9.414   0.242   7.346 -0.0134 -0.1088 -0.6395
29571W        W32791   4.996  16.624   4.932  0.0127  0.0273  0.2143
29572W        W32792  14.177  17.089   5.493  0.1262 -0.2099 -0.0022
29573W        W32793  13.902  12.674   0.788 -0.4027 -0.2741  0.1387
29574W        W32794   6.253   3.673   0.535  0.2484  0.3245  0.0784
29575W        W32795   0.198   6.671   1.597  0.4175 -0.0251 -0.1760
29576W        W32796  14.918  16.394   1.346  0.1822 -0.0909 -0.0455
29577W        W32797  15.771   3.478   5.854  0.1267 -0.2373  0.0152
29578W        W32798  15.610  13.244   7.871  0.4807  0.1841  0.0890
29579W        W32799  10.759   5.613  16.577  0.0125  0.0241  0.0043
29580W        W32800  12.596   6.217   6.948  0.1015 -0.0859  0.0789
29581W        W32801  14.516   9.988   1.792 -0.0846 -0.0799 -0.1442
29582W        W32802  13.986   5.696   5.932  0.1087  0.0447 -0.3648
29583W        W32803  12.814   4.617   5.242 -0.3824 -0.3008  0.2790
29584W        W32804  12.425   2.651   5.471 -0.1131 -0.0148 -0.2602
29585W        W32805  10.670   4.758   4.534 -0.1505 -0.0434  0.1725
29586W        W32806  11.230   3.389  17.871 -0.0747 -0.2653  0.1866
29587W        W32807  10.542   0.820  11.743  0.0165  0.1657 -0.0919
29588W        W32808  13.022   3.252   1.585  0.1356  0.1683 -0.1979
29589W        W32809  15.121   3.018   1.632  0.0945  0.1732  0.1464
29590W        W32810   0.086   2.874   4.234 -0.0429  0.0201  0.1798
29591W        W32811  14.306   7.074   0.427 -0.0433 -0.0531 -0.4905
29592W        W32812   5.446   0.018   1.802 -0.2872  0.0156 -0.1962
29593W        W32813   8.622   3.186   3.911  0.2290  0.0089  0.2399
29594W        W32814  14.004   0.780  17.418  0.1425  0.0714 -0.1671
29595W        W32815  11.413   6.697  15.054 -0.0512 -0.0602  0.0593
29596W        W32816  14.810   5.542   2.821 -0.0546 -0.4613 -0.1092
29597W        W32817  12.796  13.547   9.415  0.2262  0.1838 -0.2843
29598W        W32818  17.328   2.695  17.431 -0.1034  0.0765  0.0688
29599W        W32819  13.118   3.659   1.894 -0.0575  0.0963  0.2878
29600W        W32820  12.077   4.418   1.844 -0.0282 -0.0474  0.0947
29601W        W32821   0.922   7.655   3.365 -0.0219 -0.1232  0.1741
29602W        W32822  14.403   6.194   0.536  0.1914  0.0439 -0.2753
29603W        W32823  16.637  14.409  17.432 -0.1063 -0.1687  0.3137
29604W        W32824  13.135  15.873  15.879  0.1955 -0.1212 -0.3206
29605W        W32825  15.792  15.253   7.788  0.1061 -0.1238  0.3989
29606W        W32826  14.424   4.487   5.535 -0.1711  0.1405 -0.1896
29607W        W32827  11.068   8.911   6.744  0.1133 -0.1155 -0.0655
29608W        W32828  13.172   6.097   4.092 -0.3186 -0.0277  0.0379
29609W        W32829   9.173   3.177   3.901 -0.1100 -0.1230  0.2098
29610W        W32830   8.585   1.904   5.265  0.0065  0.2519 -0.2748
29611W        W32831  16.716   6.815   2.357 -0.1211  0.1557  0.0120
29612W        W32832  12.190   2.405   4.795 -0.0241  0.0029 -0.1591
29613W        W32833  16.826   4.616   1.085 -0.0409  0.0443  0.1732
29614W        W32834  13.853   4.292   3.060 -0.1996  0.2710 -0.0170
29615W        W32835  17.829   6.751   3.915  0.3080 -0.3450  0.2402
29616W        W32836  12.416   2.243   5.178 -0.0708 -0.0419  0.1473
29617W        W32837  13.176   6.366  13.349  0.1502  0.0511 -0.0060
29618W        W32838  16.640   8.856  16.169  0.1280 -0.2672  0.1391
29619W        W32839   8.327   4.427  13.902 -0.1309  0.1615  0.0927
29620W        W32840  14.013   7.174  12.040  0.3335  0.2124 -0.1079
29621W        W32841   8.170   0.302  14.475 -0.2128  0.0754 -0.2178
29622W        W32842   7.331   3.889   4.640  0.3109  0.0168 -0.1165
29623W        W32843   7.130   1.240  16.468  0.1186  0.1131  0.0401
29624W        W32844  12.536  16.582   3.462  0.2300  0.0286  0.0485
29625W        W32845   3.267   6.091  18.066 -0.1115  0.1507 -0.0724
29626W        W32846  15.314  15.701  15.514  0.1774 -0.0763 -0.0086
29627W        W32847   8.406   5.871   8.141 -0.2243 -0.0053 -0.1240
29628W        W32848  15.055   7.254  15.527  0.2024 -0.0731  0.0280
29629W        W32849   8.023   5.062   0.205 -0.2060 -0.1328 -0.3373
29630W        W32850  13.996  16.484   0.359  0.1284  0.2134 -0.0882
29631W        W32851  12.572  15.959   0.113 -0.0084  0.1148  0.1491
29632W        W32852  17.132  13.435   6.908 -0.0938 -0.0048  0.3083
29633W        W32853  12.150   4.736   3.881  0.0404  0.1080  0.2152
29634W        W32854  12.222  16.415   6.498  0.1840  0.0474  0.0471
29635W        W32855  13.988  11.415  16.144 -0.1119 -0.3527 -0.0527
29636W        W32856  14.188  11.227  15.295  0.1113 -0.0617  0.2420
29637W        W32857  10.537   4.383   4.842  0.1999 -0.1525  0.3022
29638W        W32858  16.701   1.635   4.659 -0.1528  0.1244 -0.2976
29639W        W32859  13.484   4.784   3.241  0.2306  0.0679 -0.2544
29640W        W32860   6.793   4.853  16.649  0.2601 -0.3285  0.2075
29641W        W32861  13.945   2.302   1.725  0.3720 -0.0414  0.0914
29642W        W32862   8.320   5.248  14.079 -0.1964 -0.0488 -0.0773
29643W        W32863   3.176   3.872   4.329 -0.0144  0.1017 -0.0890
29644W        W32864  12.052   2.008   1.073  0.0004 -0.2155 -0.0229
29645W        W32865  12.878   6.063   0.903 -0.0835 -0.0678  0.0056
29646W        W32866   5.713   1.989   5.457  0.1031 -0.0110 -0.0822
29647W        W32867  13.654   6.146  11.613 -0.0641 -0.1678  0.0507
29648W        W32868  10.576  16.401   0.252 -0.0780  0.0123  0.1648
29649W        W32869  16.005   2.081   9.098 -0.3893 -0.1603  0.2067
29650W        W32870   1.883   2.424   3.966  0.1296 -0.2465  0.2152
29651W        W32871  13.983   3.439  14.074 -0.0430  0.0356  0.0439
29652W        W32872  12.552  17.127   3.748  0.2614  0.1764 -0.1479
29653W        W32873  15.323   6.554   3.963 -0.0822 -0.1333  0.4470
29654W        W32874  14.378  15.013  17.159  0.1892  0.1487  0.3724
29655W        W32875  11.056   7.788  17.015 -0.0284  0.1441 -0.2559
29656W        W32876   7.430   3.566   1.410 -0.0461  0.2563  0.1237
29657W        W32877  15.258   3.437   0.593  0.3288 -0.2232  0.1135
29658W        W32878  10.909   7.004   6.477 -0.0427 -0.1918  0.2265
29659W        W32879  17.222   8.469   1.433  0.1124  0.0812  0.1350
29660W        W32880   8.377   1.999   1.917  0.0449  0.2142  0.0879
29661W        W32881  13.700  15.275   0.547  0.0414 -0.1591  0.1482
29662W        W32882   6.962  17.381  16.110  0.1403 -0.2609  0.1501
29663W        W32883  17.622   4.785   1.668 -0.1773 -0.0573  0.0127
29664W        W32884  10.996   3.318  14.503  0.1296 -0.0592  0.1183
29665W        W32885  13.879   7.114   1.216  0.1248 -0.0689  0.0959
29666W        W32886   0.115   9.934   0.568  0.1306 -0.0905 -0.0725
29667W        W32887   6.495  12.041   0.726  0.1167  0.0682 -0.0085
29668W        W32888  10.993   1.109  17.995 -0.1031  0.1395  0.2099
29669W        W32889  15.586  17.788   8.282 -0.0653 -0.0120 -0.2542
29670W        W32890  16.408  13.351  14.126 -0.1481  0.1788  0.0761
29671W        W32891   7.388   0.494   4.505  0.0915 -0.0547  0.1705
29672W        W32892  13.786   5.056   2.562 -0.1252  0.0015  0.1155
29673W        W32893   9.980   2.963   1.976  0.0576  0.1552  0.0546
29674W        W32894  11.566  17.549   5.676 -0.1446 -0.1850 -0.1274
29675W        W32895   9.473  15.959   6.942  0.2109  0.0060  0.1787
29676W        W32896   9.352   2.196   5.390 -0.0826  0.0653  0.2501
29677W        W32897   6.515   0.942   1.302 -0.0059  0.1201  0.1492
29678W        W32898  13.803  17.621   0.432  0.2557  0.0565 -0.0752
29679W        W32899  17.410   0.866   6.249 -0.1233  0.1947 -0.0539
29680W        W32900  13.092   6.939  12.544  0.1255 -0.1493  0.0197
29681W        W32901   4.219   1.750  12.519 -0.0987 -0.1239 -0.0884
29682W        W32902   5.305  13.309  15.327  0.0104 -0.0744 -0.2724
29683W        W32903  16.917   0.595  18.053  0.1681  0.2965  0.0791
29684W        W32904  11.909   2.837   0.546  0.1372  0.1035  0.0893
29685W        W32905   0.137   2.616   3.758  0.0283 -0.0906  0.1809
29686W        W32906  14.627   4.357   1.794  0.2867  0.1146  0.0443
29687W        W32907  16.606   8.020   2.863  0.1725  0.0233 -0.2542
29688W        W32908  12.323   1.866  16.089  0.0302  0.2899 -0.1278
29689W        W32909  12.519  15.621  16.091  0.1591  0.2186 -0.0643
29690W        W32910  15.285  17.233   2.389  0.3103  0.1438  0.1870
29691W        W32911  12.817  12.588  12.603 -0.2169  0.1754  0.3953
29692W        W32912  16.290   8.331  15.911 -0.3061 -0.0930 -0.1163
29693W        W32913  15.741   4.136   4.245 -0.1274  0.1373  0.3451
29694W        W32914  12.572   0.072  12.889  0.0047 -0.0296 -0.1726
29695W        W32915  11.559   4.567   5.970  0.3158  0.2793 -0.1139
29696W        W32916  10.637  13.323  16.692 -0.1232  0.1879 -0.1439
29697W        W32917  13.742  11.677   5.954  0.0879 -0.0879  0.2782
29698W        W32918  14.714   1.211   5.950  0.0023 -0.0406  0.1652
29699W        W32919  13.552   3.181   0.821 -0.0576  0.1715  0.0047
29700W        W32920  16.596   5.772  18.086 -0.3227 -0.1421  0.0398
29701W        W32921   5.096   1.634  17.001 -0.1676 -0.1201 -0.0059
29702W        W32922   9.689   0.302   6.914  0.0913  0.1117  0.0810
29703W        W32923  13.738  13.581   8.616 -0.0915  0.2296  0.0224
29704W        W32924  16.337   2.961   4.784 -0.0216 -0.0984  0.0612
29705W        W32925  12.741   4.924   2.883 -0.0914 -0.0629 -0.0166
29706W        W32926  10.049  14.669   4.358  0.1662 -0.0571 -0.0755
29707W        W32927   9.885  17.907   1.919 -0.0764  0.2584  0.1274
29708W        W32928  14.252  15.334   0.761  0.0131 -0.0179 -0.1051
29709W        W32929  15.180   0.230  16.969  0.1676  0.2799 -0.0378
29710W        W32930   1.289   3.151  15.260  0.4163 -0.0167 -0.0807
29711W        W32931  14.909   3.290   3.809 -0.2348  0.0568 -0.1257
29712W        W32932  17.055   7.247   2.591 -0.2026 -0.1523 -0.2316
29713W        W32933  14.216   4.600   1.971  0.3126 -0.0468 -0.3600
29714W        W32934  16.549   4.156   5.386 -0.0199  0.1140 -0.0944
29715W        W32935   7.619  16.518   7.212  0.1536 -0.2060  0.2951
29716W        W32936   1.124   5.206  10.056  0.0357  0.2301 -0.3328
29717W        W32937   3.880   2.901   4.612 -0.2795 -0.0140 -0.3075
29718W        W32938  10.044  17.042   0.930 -0.0378  0.1187  0.1507
29719W        W32939  16.582   4.292  15.541 -0.3374 -0.0208  0.1484
29720W        W32940  15.832   1.252   9.386  0.0851  0.0505  0.0930
29721W        W32941  14.261   0.369   3.729  0.0180 -0.1689 -0.0397
29722W        W32942  11.603   0.306   4.244  0.1874  0.3779  0.0766
29723W        W32943  11.668   3.120   1.606  0.1215 -0.0508  0.2871
29724W        W32944  10.117  16.988  16.344  0.2220  0.0014  0.1636
29725W        W32945   5.917  16.000   2.672 -0.1562  0.1055  0.1173
29726W        W32946  10.732   4.172  14.098  0.0351  0.0020  0.1519
29727W        W32947  13.636   3.863   3.833 -0.1091 -0.1178 -0.0688
29728W        W32948  15.860   8.310   8.439  0.4676 -0.2039 -0.0046
29729W        W32949  13.030   6.489   5.429  0.0628 -0.0692 -0.0237
29730W        W32950  13.254  17.013   5.054  0.2462 -0.1384 -0.0719
29731W        W32951  11.677   5.247  15.150  0.2296 -0.0046 -0.2820
29732W        W32952  17.869  16.488  14.502  0.0275  0.2829 -0.1676
29733W        W32953   5.936   3.331   3.511 -0.2132 -0.0339 -0.1705
29734W        W32954   6.217   0.067   4.319 -0.3001  0.3496  0.0058
29735W        W32955  14.688   1.316   0.869  0.0383 -0.0265  0.1662
29736W        W32956   9.593   8.991  12.945  0.2734  0.1293 -0.1169
29737W        W32957  10.967  16.573   2.660 -0.2003  0.2948  0.0541
29738W        W32958   0.032   1.646   1.155 -0.0997 -0.0508  0.0570
29739W        W32959  17.310   2.244  17.148 -0.1968 -0.0900 -0.0696
29740W        W32960  16.729   2.612  13.287 -0.1166  0.0352  0.1549
29741W        W32961   9.968   0.501  13.497  0.1676  0.0562 -0.0544
29742W        W32962   6.018   0.576  18.240 -0.0032 -0.3413  0.3601
29743W        W32963   2.935   7.794   2.983 -0.0169 -0.0553 -0.1201
29744W        W32964  15.888   6.399   2.098  0.3481 -0.1414 -0.0239
29745W        W32965  17.585  15.264   0.132 -0.0770 -0.1499  0.1566
29746W        W32966  14.446  10.650   7.172 -0.0261  0.2025 -0.3470
29747W        W32967  13.824   5.681   1.889  0.0572 -0.0961 -0.1631
29748W        W32968  14.779   3.046  13.883  0.0342 -0.0700 -0.0196
29749W        W32969  13.777   2.763   0.699  0.0010 -0.2851 -0.1023
29750W        W32970  14.398   3.750  11.519 -0.1820  0.0634  0.0535
29751W        W32971  14.532   1.253   6.446  0.0410 -0.0539 -0.1670
29752W        W32972   1.388  14.656  18.106  0.1374 -0.1388  0.1194
29753W        W32973  14.235   5.151  13.566  0.1874 -0.0854  0.3436
29754W        W32974  12.405  10.134   6.383 -0.0124 -0.0929  0.1705
29755W        W32975   6.519   5.086   1.834 -0.0880 -0.1566 -0.0932
29756W        W32976  10.290   4.302  15.516 -0.0426 -0.0315  0.2497
29757W        W32977   4.149   5.297  15.518 -0.0840 -0.1395  0.1554
29758W        W32978  11.091   5.461   1.373 -0.1255 -0.0263 -0.0041
29759W        W32979  13.238  16.967   4.530  0.1477  0.0792 -0.0730
29760W        W32980  16.184  18.013   3.834  0.1361 -0.2086  0.1138
29761W        W32981  13.959  17.851   1.548 -0.1255  0.3712  0.1170
29762W        W32982  15.733  17.241   3.948  0.2719 -0.0275  0.0940
29763W        W32983  15.897   4.880   7.097 -0.0372  0.0704  0.0645
29764W        W32984  10.914   5.566   3.804 -0.4060 -0.1437  0.1724
29765W        W32985  17.356  14.697   1.340 -0.0091 -0.0691  0.0558
29766W        W32986  15.641   3.737   7.033  0.2198 -0.0865 -0.1415
29767W        W32987  12.124   2.335  12.983  0.1121 -0.0444  0.1826
29768W        W32988  10.513   1.914  10.005  0.0299 -0.1742 -0.0490
29769W        W32989  17.063  18.154  12.264  0.1275 -0.1251  0.0856
29770W        W32990  10.653   5.025   1.347  0.1573  0.0475  0.1043
29771W        W32991  13.046   3.854   9.749  0.1323 -0.0712 -0.1231
29772W        W32992   8.589   8.159   5.835 -0.0580 -0.0888  0.0291
29773W        W32993  12.005   8.463  12.394 -0.0163  0.2921  0.0289
29774W        W32994  15.243  17.730   1.676  0.1901 -0.0008 -0.0447
29775W        W32995   9.639   0.612   6.558  0.1066 -0.0259  0.0695
29776W        W32996  11.763   2.143   7.208  0.1730  0.2861  0.0101
29777W        W32997  10.894  13.034  16.357 -0.0520  0.0865 -0.1181
29778W        W32998  16.090   4.720   6.238 -0.1477 -0.3939 -0.4798
29779W        W32999   9.035  12.530  15.738  0.0055 -0.1552 -0.0237
29780W        W33000  14.906   4.000   3.667  0.1877 -0.1662  0.0660
29781W        W33001   9.210  15.912  12.829 -0.2151  0.0721  0.1336
29782W        W33002  13.387   2.424  12.720 -0.1591  0.1793 -0.1563
29783W        W33003   8.233   2.994   5.726 -0.2010 -0.0909 -0.0954
29784W        W33004  11.465   0.415   7.690 -0.2529 -0.1130 -0.2156
29785W        W33005  16.847  13.409   4.214  0.2492  0.1206 -0.1039
29786W        W33006  12.148   4.033   5.413 -0.0644 -0.0834 -0.0805
29787W        W33007  14.256   3.409   3.096 -0.2251  0.0442  0.2197
29788W        W33008  12.696   3.973   6.168 -0.1459 -0.2038 -0.0643
29789W        W33009  11.886  14.649   0.223  0.2296 -0.0017  0.1224
29790W        W33010   9.129   1.984  14.888 -0.2466  0.2114 -0.0361
29791W        W33011  15.288   2.703   2.057 -0.2285  0.0296 -0.0892
29792W        W33012  12.466   5.740   5.711  0.0686  0.1322  0.1225
29793W        W33013  16.236   3.103   1.808  0.0416  0.1457  0.2661
29794W        W33014   6.165  11.472  16.652 -0.1139 -0.1689  0.1445
29795W        W33015   8.389   1.339   1.224 -0.3003  0.1000 -0.1439
29796W        W33016   0.208   2.554   5.315 -0.0585 -0.0534 -0.2213
29797W        W33017  13.610  13.683   2.845 -0.1238  0.0974  0.1643
29798W        W33018  16.455  17.920  17.425 -0.2620 -0.0242  0.1844
29799W        W33019  14.617   2.483  17.905  0.0183  0.1815  0.3072
29800W        W33020  12.345   3.559   0.952 -0.1634 -0.2956  0.1709
29801W        W33021   7.138   4.435  16.689 -0.0385  0.1598  0.1991
29802W        W33022  16.973  15.467   2.162 -0.0143 -0.0414  0.0392
29803W        W33023  11.773   4.982   8.470 -0.0259  0.1636 -0.1360
29804W        W33024  13.327   0.263   1.613 -0.1298 -0.1103 -0.2524
29805W        W33025  17.506   0.142   3.483  0.1369 -0.1205  0.1052
29806W        W33026  13.378  16.358  17.539  0.0689  0.0052  0.1575
29807W        W33027   8.797   6.419   8.853 -0.1776 -0.1293 -0.2211
29808W        W33028   9.258  17.395   1.868 -0.1157  0.0341 -0.3247
29809W        W33029  13.248  13.796  16.478  0.2634  0.2818 -0.1754
29810W        W33030  12.770   7.491   4.735 -0.1812 -0.1751  0.0526
29811W        W33031  14.661  18.233   3.663  0.1376 -0.0387  0.1233
29812W        W33032  12.565   4.521   9.395 -0.1651 -0.3527 -0.3450
29813W        W33033  14.894   7.085  14.308  0.1327 -0.0041 -0.0445
29814W        W33034  14.818   5.427   7.438 -0.0999  0.0117 -0.1440
29815W        W33035  12.785   5.476   1.171  0.0820 -0.0807 -0.0755
29816W        W33036  13.908   4.612   0.367 -0.1943  0.1009  0.1291
29817W        W33037   8.653   7.754   1.785  0.0930  0.0623 -0.0687
29818W        W33038  14.675  18.050  16.231  0.0759 -0.3185  0.1748
29819W        W33039  10.530   4.044   8.850 -0.0162  0.0387 -0.0653
29820W        W33040  11.426   1.602   5.801 -0.1262  0.1772 -0.2045
29821W        W33041   0.975   6.142   2.317 -0.1937  0.0528 -0.2151
29822W        W33042  16.485   8.057   1.941 -0.1611  0.1169  0.3091
29823W        W33043  11.471   6.248   4.478 -0.0746  0.0226  0.2193
29824W        W33044  11.369   6.105  10.351  0.1674  0.1363  0.3436
29825W        W33045  11.348   1.479  17.918 -0.1628 -0.0677 -0.1529
29826W        W33046   4.972   0.976   8.459  0.0644 -0.1407 -0.0736
29827W        W33047  11.592  16.522   4.110  0.2024 -0.3404  0.2358
29828W        W33048   9.348   4.153   5.849  0.0416 -0.1708 -0.0600
29829W        W33049   9.744   9.313   0.551  0.0088  0.1293 -0.3370
29830W        W33050  10.474  18.195   5.095 -0.1342  0.1146 -0.1630
29831W        W33051  13.895  16.224   7.067  0.1285 -0.1099 -0.1043
29832W        W33052  10.389   8.962  17.787 -0.2682  0.2813 -0.1938
29833W        W33053   8.993   1.779   4.963  0.3327 -0.4855  0.1175
29834W        W33054   9.617   0.140   8.670  0.1310 -0.0420 -0.2016
29835W        W33055  12.788  16.068  17.242  0.2104  0.1649 -0.0258
29836W        W33056  11.370   0.081  14.229 -0.0557  0.1029  0.1391
29837W        W33057  12.503   7.416   5.415  0.0833  0.1079 -0.0429
29838W        W33058   5.901   6.413   2.553 -0.0302  0.0049 -0.1682
29839W        W33059   9.683   3.119   0.682 -0.2464  0.4600 -0.2948
29840W        W33060  14.955   3.703   2.510 -0.0264  0.0339  0.0430
29841W        W33061  12.745   7.064   2.723 -0.1525 -0.0052 -0.0124
29842W        W33062   5.407   6.713   3.312 -0.0547  0.3997 -0.0157
29843W        W33063  15.767   0.630   4.590 -0.0920  0.2129  0.1594
29844W        W33064   3.094  16.256  17.707  0.4471  0.2410 -0.2770
29845W        W33065   5.206   2.722   4.019 -0.0873 -0.0636 -0.0879
29846W        W33066   0.784  16.112   2.627  0.0583 -0.1583 -0.0371
29847W        W33067   9.390   2.982   5.549  0.0671 -0.0354  0.2521
29848W        W33068  15.264   5.129   9.050 -0.1047  0.2586  0.0063
29849W        W33069  10.237  17.097   0.073 -0.2170 -0.0854 -0.2870
29850W        W33070  17.693   0.260  13.644  0.0175  0.0991  0.4227
29851W        W33071  11.484  16.377   5.799 -0.1752 -0.2203 -0.1225
29852W        W33072   7.367   4.270   5.534 -0.1318 -0.1411  0.0066
29853W        W33073  16.576   6.651   8.008 -0.0089 -0.0334 -0.5491
29854W        W33074   9.985  15.034  11.454  0.1736  0.0770 -0.0897
29855W        W33075  17.483   3.347   4.523 -0.0362 -0.1582 -0.2809
29856W        W33076  12.082   7.965  14.115 -0.1179  0.0443 -0.0754
29857W        W33077  10.289  13.699   7.708 -0.0729 -0.3223 -0.1005
29858W        W33078  11.975  16.300  16.608 -0.4310 -0.0772  0.1631
29859W        W33079   8.779   2.223   0.108 -0.0798  0.1691 -0.1711
29860W        W33080  15.492   6.535   4.796 -0.2740 -0.0854 -0.1084
29861W        W33081   1.091   7.640  11.069  0.1230  0.2670  0.0258
29862W        W33082   5.475   2.366  17.485 -0.1409 -0.3348 -0.2321
29863W        W33083  12.581   2.930  10.510 -0.0789  0.1119  0.0292
29864W        W33084  15.481  14.232   4.606 -0.2037 -0.1074  0.1881
29865W        W33085  15.024  18.016   2.799 -0.2700  0.1469 -0.1568
29866W        W33086  10.231   3.460  15.675  0.0983 -0.1670 -0.1750
29867W        W33087  16.244  18.182   5.397  0.2275  0.0828  0.3077
29868W        W33088  14.774  16.877  10.870  0.1273  0.0555  0.2139
29869W        W33089   1.078   2.168  17.935 -0.3874 -0.0564 -0.3610
29870W        W33090  11.190  17.970  13.557  0.1938  0.2056 -0.1097
29871W        W33091   7.252   8.888  16.768  0.1435  0.3783  0.0491
29872W        W33092  16.292   7.176  15.182 -0.3519  0.1147  0.2438
29873W        W33093   2.340   4.533   5.151 -0.0961 -0.0140 -0.3318
29874W        W33094  11.193  18.039   1.206  0.2394 -0.0152  0.0789
29875W        W33095  11.638   1.307   7.070  0.1125  0.0790  0.1441
29876W        W33096  12.960  17.086   4.150  0.1977  0.2174  0.0788
29877W        W33097  17.153   3.149   0.001  0.1929  0.1707 -0.0148
29878W        W33098   9.605   0.632  17.154  0.1511 -0.3990  0.0121
29879W        W33099  14.895   9.187  14.674  0.0445 -0.3004  0.1561
29880W        W33100   9.052   1.061   6.024  0.0167 -0.1815  0.3056
29881W        W33101  12.085  13.582   3.347 -0.2678  0.0769  0.0437
29882W        W33102  15.604  16.309   2.024  0.1200 -0.0144  0.0018
29883W        W33103  13.104  12.344   2.478  0.0513 -0.0162 -0.1209
29884W        W33104  11.959   0.714   6.941  0.2200  0.2096  0.0918
29885W        W33105  13.678   2.338   4.911 -0.1882 -0.0748  0.2361
29886W        W33106   9.770  10.139   3.979 -0.0842 -0.0360 -0.2111
29887W        W33107   4.027   3.164   5.658 -0.0425  0.0111  0.3061
29888W        W33108  14.139   3.856   3.935  0.1495  0.0944 -0.0198
29889W        W33109  16.134   5.580   2.306  0.0846  0.0464  0.0679
29890W        W33110   9.278  15.963   1.945 -0.0972 -0.0385  0.0949
29891W        W33111   2.818   5.269   7.444 -0.0038 -0.0274  0.2073
29892W        W33112  15.746   2.354   2.759  0.0552 -0.0394 -0.0542
29893W        W33113   9.952   1.712   5.333 -0.0740  0.0289  0.0657
29894W        W33114   9.011   2.081   0.901  0.0028 -0.1532 -0.1849
29895W        W33115  13.143   5.118   2.677 -0.4605  0.0598  0.2224
29896W        W33116  15.449   1.523   3.184  0.1446 -0.4651 -0.1258
29897W        W33117  10.154  13.116   1.560  0.2289  0.2595 -0.0689
29898W        W33118  14.793  15.309   3.099  0.0307 -0.4960 -0.0217
29899W        W33119  11.962   8.160   3.731  0.1801  0.4404 -0.0578
29900W        W33120   0.039  18.027   1.645  0.1504  0.0664  0.1085
29901W        W33121   9.062   8.845   7.069 -0.0995  0.0240 -0.0207
29902W        W33122  13.759   4.456   2.298  0.3633 -0.2226  0.1419
29903W        W33123  17.118   6.327  16.109  0.0040  0.0120  0.0630
29904W        W33124   8.108   2.836   2.719  0.1274  0.1886 -0.1828
29905W        W33125  15.235  16.535  17.911  0.0117 -0.1192  0.0201
29906W        W33126   6.825  17.266   1.465 -0.0701  0.0121  0.0007
29907W        W33127  14.105  17.954   5.206 -0.0502  0.0725 -0.1518
29908W        W33128   1.511  17.391   6.310 -0.2699 -0.1541  0.3314
29909W        W33129  11.300   1.639  13.977  0.2544  0.2181 -0.0656
29910W        W33130  15.330  14.841   3.061  0.0345 -0.0353  0.1476
29911W        W33131   8.594   3.433   5.684  0.2258 -0.0401  0.1038
29912W        W33132  13.523   2.345   0.933  0.2163  0.0034 -0.0433
29913W        W33133  17.782  10.530  18.188  0.0057  0.0152  0.1751
29914W        W33134  14.747   0.477   3.500 -0.1903 -0.0089 -0.2679
29915W        W33135   8.742  17.257  16.606 -0.0305 -0.0945  0.1814
29916W        W33136  11.886   4.762   0.538 -0.0605  0.0621 -0.3998
29917W        W33137   7.540   3.637   6.560  0.0478  0.0230  0.4561
29918W        W33138  16.486   2.419   3.740 -0.0002 -0.1884 -0.0082
29919W        W33139   9.295  16.382   5.389 -0.0625 -0.2616  0.1025
29920W        W33140   9.346  10.920  14.316 -0.2331  0.3480  0.1708
29921W        W33141  10.989   6.913  15.254  0.2720 -0.0437 -0.1254
29922W        W33142  18.257  16.083  14.455 -0.1215 -0.0960 -0.1493
29923W        W33143  17.974  15.361  17.320  0.0282  0.3008  0.1654
29924W        W33144  13.528   5.323   8.068 -0.0655  0.0022 -0.2320
29925W        W33145  12.618  16.786   3.021 -0.1206  0.2185  0.2670
29926W        W33146  11.385   1.460  17.118  0.0165 -0.1185  0.0023
29927W        W33147  12.092  16.632   2.921  0.1135 -0.3881  0.2303
29928W        W33148  15.865   4.596   2.472 -0.0287 -0.0030 -0.1554
29929W        W33149  11.074   0.669   0.135 -0.1040 -0.0083 -0.2708
29930W        W33150   7.524   1.272   7.909 -0.0656  0.4766 -0.1504
29931W        W33151  10.449  12.102   3.186  0.0652 -0.0983  0.3257
29932W        W33152  12.189  14.481   9.601  0.0440 -0.1607  0.0983
29933W        W33153  10.419   0.334   7.017 -0.1652 -0.0402 -0.0564
29934W        W33154   8.062   4.127   4.900  0.1879 -0.1168  0.1492
29935W        W33155   8.908   1.460   0.752  0.1519  0.1254 -0.0841
29936W        W33156   9.937  10.869   2.348  0.0918 -0.2175 -0.0229
29937W        W33157  14.044   1.160   2.524  0.1373 -0.0376 -0.3217
29938W        W33158  15.804   7.494   4.438  0.2246 -0.2340  0.1196
29939W        W33159   0.739   1.478   2.242  0.2076  0.1379  0.1450
29940W        W33160  13.005   7.011  16.213 -0.1321 -0.1045 -0.2768
29941W        W33161  14.247   5.232   2.276 -0.0779  0.1557  0.1080
29942W        W33162  14.521   3.194   1.734 -0.0367  0.0865 -0.0248
29943W        W33163  15.979   6.261   5.871  0.0056  0.1084  0.1854
29944W        W33164   0.743  11.629  15.186  0.0378  0.1518 -0.0295
29945W        W33165  15.433   2.615   6.638 -0.0053  0.4691 -0.0852
29946W        W33166  15.426   4.568  13.087  0.0763  0.0795  0.1542
29947W        W33167  15.261   8.876  16.393  0.1750  0.1717 -0.1206
29948W        W33168   7.514   4.440  17.568  0.0975  0.2518 -0.0819
29949W        W33169  16.414   4.411   0.957  0.0702  0.4554 -0.0846
29950W        W33170   9.651   0.936   0.266  0.0982  0.0131 -0.2672
29951W        W33171   9.929   1.492   7.504  0.1346 -0.0955  0.0159
29952W        W33172  14.442  16.545   3.287 -0.3078 -0.2295 -0.1671
29953W        W33173  12.964   5.910   6.598  0.0332 -0.1034  0.0694
29954W        W33174  15.864   6.737   3.917  0.2626 -0.3098 -0.0498
29955W        W33175  17.944   0.558  16.413 -0.3264  0.2025 -0.1321
29956W        W33176  15.938   2.528   4.563  0.1093  0.1216  0.0414
29957W        W33177  13.525   7.134   5.110 -0.1608  0.0537 -0.0140
29958W        W33178  13.023   6.904  13.447 -0.2886 -0.0559 -0.1245
29959W        W33179   0.517   2.288  12.645 -0.1521  0.0589 -0.3402
29960W        W33180   8.094  17.517   4.382  0.2435  0.0092  0.0743
29961W        W33181  10.492  14.860   1.850 -0.0012 -0.0341  0.0241
29962W        W33182   6.450   6.270  13.903 -0.2052 -0.0983 -0.3156
29963W        W33183   8.805  16.387   2.087  0.1888  0.2157 -0.0603
29964W        W33184  11.909   7.049   5.514 -0.2609  0.4170 -0.1011
29965W        W33185  13.609   8.946  16.885 -0.0145 -0.2184 -0.3163
29966W        W33186   6.651  15.637   8.380  0.5302 -0.1640  0.3262
29967W        W33187  17.397   3.699  13.168  0.1327 -0.1869 -0.0483
29968W        W33188   7.460  12.480   2.391  0.0513  0.1337  0.0067
29969W        W33189  12.165   2.548   5.871  0.0379 -0.0619  0.1682
29970W        W33190  10.886   0.818   2.153 -0.0809 -0.2101 -0.1210
29971W        W33191  16.088  16.815   3.839 -0.0763 -0.1260 -0.0039
29972W        W33192  16.351   6.806  13.422 -0.3577 -0.1782  0.0232
29973W        W33193   6.216   1.673   4.189  0.0277  0.2118 -0.3410
29974W        W33194   5.018  16.294   8.742 -0.0095 -0.0026 -0.1185
29975W        W33195  17.327   1.846  11.686  0.0963  0.2329  0.4359
29976W        W33196  15.708  11.154   5.838 -0.1495 -0.4449 -0.2285
29977W        W33197   8.281   0.880   1.392 -0.3088 -0.3045 -0.0630
29978W        W33198  11.281  17.871  12.492 -0.1982 -0.0861  0.0309
29979W        W33199  12.839   5.367   4.108 -0.0327 -0.2008  0.1822
29980W        W33200  13.161   5.800  10.078 -0.0597  0.3655 -0.1455
29981W        W33201  14.733  15.065  14.996 -0.1382  0.0384  0.0214
29982W        W33202  11.444  17.231  10.594  0.1932 -0.0826 -0.1765
29983W        W33203   9.725  16.074  10.586  0.2100 -0.3000 -0.0147
29984W        W33204  16.456   7.742   5.846 -0.1540  0.0694 -0.1643
29985W        W33205  17.412  15.444   3.289 -0.2802 -0.0243 -0.0983
29986W        W33206  14.018   1.644   1.104 -0.1484  0.3421  0.2197
29987W        W33207  15.748   1.706   3.545  0.0275 -0.0701 -0.4087
29988W        W33208   9.557   0.831   9.903 -0.0431  0.0607  0.2673
29989W        W33209  10.559   5.156   7.915 -0.1284 -0.0043  0.0709
29990W        W33210   5.619  15.030  18.112 -0.1211  0.0398 -0.3621
29991W        W33211  17.033  12.922   0.078  0.1566 -0.4775  0.1766
29992W        W33212   1.384   8.978   7.806 -0.2391 -0.2336 -0.0430
29993W        W33213  12.601  16.119   6.262 -0.0705 -0.1952 -0.1258
29994W        W33214  13.789   5.283  16.251  0.0108  0.0629  0.0773
29995W        W33215   1.308   7.118  12.184 -0.0919 -0.0764  0.2812
29996W        W33216   5.633   4.151   6.538 -0.3180  0.1406  0.0219
29997W        W33217   1.764   1.907   7.081  0.2975 -0.1532 -0.3265
29998W        W33218   4.574  15.404  10.443  0.0351 -0.2676  0.0563
29999W        W33219   1.098  12.516   8.734 -0.3097 -0.2080 -0.0033
30000W        W33220   0.084   0.083   3.199 -0.2444 -0.0494  0.1502
30001W        W33221  16.466  17.113   6.032 -0.0949  0.2675  0.3448
30002W        W33222  17.118  17.760  17.928  0.2096 -0.0174  0.4487
30003W        W33223  15.808  16.465   3.599  0.2566  0.0653 -0.2910
30004W        W33224   2.108   3.074  11.480 -0.0141  0.1481  0.2207
30005W        W33225   0.600   6.757  10.732  0.0084  0.4875  0.2610
30006W        W33226  15.251   8.426  14.600 -0.3660  0.1689 -0.0607
30007W        W33227  12.930   6.969   1.874  0.0871 -0.0933 -0.0084
30008W        W33228  18.034   4.092   1.448 -0.0354  0.0579 -0.0082
30009W        W33229  17.366  11.558   6.507 -0.1732  0.0762  0.2497
30010W        W33230  10.129   3.244  12.126  0.0588 -0.0662  0.3421
30011W        W33231  17.572   3.065   7.577  0.3924  0.0667 -0.0714
30012W        W33232  13.123   5.384   6.412 -0.2688  0.1251 -0.0488
30013W        W33233   9.295   2.994   8.948  0.1361  0.1667  0.2378
30014W        W33234  11.421   0.032   6.063 -0.1711  0.4322  0.0911
30015W        W33235   0.362   2.033   8.305 -0.2807 -0.0457  0.0958
30016W        W33236  17.853   5.474   4.568  0.0232  0.0629 -0.2279
30017W        W33237  16.913   2.382   4.092 -0.1319  0.1654 -0.2240
30018W        W33238  15.273  18.268   6.738 -0.2264  0.0078  0.2471
30019W        W33239  17.556   5.953   6.723  0.3094 -0.0895  0.1198
30020W        W33240  13.925   0.419  17.816 -0.1339  0.2630  0.3329
30021W        W33241  11.857   3.995   1.246 -0.2519 -0.0236 -0.0086
30022W        W33242  15.506   0.842   1.412 -0.2586  0.2766  0.3584
30023W        W33243  16.574  17.710   5.270  0.0429 -0.2178 -0.0851
30024W        W33244   2.958   7.479   8.499  0.2855  0.0667 -0.0469
30025W        W33245  12.935   7.436   6.542  0.1152 -0.5424 -0.1157
30026W        W33246  10.568  18.225   4.305  0.3430  0.0562 -0.1304
30027W        W33247  13.802   4.205  17.190  0.0586 -0.0925 -0.0531
30028W        W33248  17.308   6.819   2.688  0.1639 -0.2493  0.1255
30029W        W33249  10.067   3.506   2.733  0.0996 -0.1605 -0.2959
30030W        W33250  10.134   2.213   2.270  0.2456  0.2052  0.1763
30031W        W33251  11.816   2.827   4.710 -0.0613  0.0534 -0.0351
30032W        W33252  14.003   1.275   6.814  0.0993 -0.5618 -0.0832
30033W        W33253  17.537   2.807   4.725 -0.0701 -0.1038 -0.0561
30034W        W33254   1.643   5.358   5.673  0.1155  0.0097  0.2012
30035W        W33255   0.266  10.589   7.045  0.0034 -0.3217  0.2642
30036W        W33256  17.243  11.549   1.644 -0.0861 -0.1290  0.0452
30037W        W33257  12.606   2.087   9.275 -0.2412  0.2235  0.3148
30038W        W33258  15.162   1.044   2.640  0.1339 -0.2785 -0.1614
30039W        W33259   0.972   8.909   7.225 -0.0628 -0.2130  0.0104
30040W        W33260  10.898   8.973   5.058 -0.1274 -0.0236  0.1818
30041W        W33261  14.325   8.152  11.150 -0.2374  0.1652  0.1322
30042W        W33262   0.972   2.797   0.390 -0.0990 -0.1773  0.0275
30043W        W33263  13.502   2.619   6.210 -0.1704  0.0745 -0.0149
30044W        W33264  13.530  16.524   6.074  0.1292  0.1652  0.0620
30045W        W33265  13.694  13.176  10.401 -0.1891  0.2797  0.0499
30046W        W33266  16.230  15.283  14.606  0.0853  0.1636 -0.0914
30047W        W33267  10.804   0.887   1.066  0.0137  0.0030  0.0520
30048W        W33268   7.728   1.440  13.126 -0.1383  0.1843  0.1428
30049W        W33269   5.051  13.582  13.263  0.0328 -0.0267  0.2106
30050W        W33270   1.422   2.159   4.884  0.1951  0.1323 -0.1647
30051W        W33271  15.406  10.991   6.257  0.0948 -0.2971  0.1632
30052W        W33272   2.657  12.252   9.169 -0.0182 -0.1419  0.0002
30053W        W33273  15.129   4.368  17.911  0.0548 -0.0001 -0.1819
30054W        W33274  11.945   5.263  17.997 -0.0162  0.1578  0.0587
30055W        W33275   9.245   4.225   5.069 -0.0580  0.0200 -0.0808
30056W        W33276  13.095   7.605   1.944  0.3956 -0.0095  0.0312
30057W        W33277   8.872   0.491   7.383  0.0491 -0.0047 -0.1380
30058W        W33278  14.394   2.559   7.294 -0.1795  0.1968  0.1365
30059W        W33279  16.635   4.217  10.180 -0.2181  0.0358  0.4015
30060W        W33280   0.191   2.855   5.760 -0.0281 -0.1165  0.2784
30061W        W33281  16.191   5.402   1.615 -0.0997  0.0132 -0.1082
30062W        W33282   6.406  16.895   7.825  0.2669 -0.1123 -0.0264
30063W        W33283   9.513  16.779   8.992  0.1477 -0.1056  0.1118
30064W        W33284   8.522  15.987   7.786 -0.2901  0.1383  0.0958
30065W        W33285   3.490   3.727   8.646 -0.0377 -0.1537 -0.0160
30066W        W33286  12.830   9.874   1.273 -0.0447  0.0916 -0.0325
30067W        W33287  16.591   8.016   7.705  0.0135  0.1936  0.2046
30068W        W33288  12.361   0.911  16.091  0.0285 -0.2663 -0.0755
30069W        W33289  13.407   3.429   8.589 -0.1580 -0.1031 -0.1277
30070W        W33290   3.341   0.784   5.697 -0.1729 -0.1405 -0.2357
30071W        W33291  15.595   5.193  17.771  0.0111 -0.0782 -0.0905
30072W        W33292   1.960  11.932   7.849  0.3392  0.0968  0.3924
30073W        W33293  15.422   0.064   2.882  0.1108  0.1225  0.0592
30074W        W33294   0.614   0.991   2.059  0.1369 -0.3014  0.0699
30075W        W33295  14.172   3.896   4.807  0.2098 -0.1243 -0.0849
30076W        W33296   4.711   9.643   0.497 -0.4650 -0.0140  0.0225
30077W        W33297  11.655  17.181   2.145 -0.0645  0.0947 -0.1173
30078W        W33298  17.344  17.821   6.583  0.0590 -0.2616 -0.0608
30079W        W33299  11.873   0.658   8.080  0.1204  0.2027  0.0472
30080W        W33300  14.940   8.257   4.732 -0.1164  0.0571  0.4737
30081W        W33301  13.746  17.823   6.128  0.1606 -0.1360  0.1869
30082W        W33302  17.830  17.295   5.744  0.3431  0.0803 -0.1092
30083W        W33303   0.804  11.846   5.896 -0.1839  0.0302 -0.1799
30084W        W33304  14.673   4.950  11.337  0.1542 -0.0695  0.1099
30085W        W33305  11.478  16.876   5.850 -0.1674  0.1416  0.0194
30086W        W33306  10.571  16.587   4.293  0.2390 -0.0836  0.2410
30087W        W33307   1.582   3.050  15.625  0.1707 -0.3483  0.1312
30088W        W33308  14.866   0.484   4.636  0.2711  0.0108 -0.0318
30089W        W33309  14.981   5.099   0.815 -0.0439  0.0267 -0.0852
30090W        W33310  10.658   2.860   2.881 -0.0129 -0.0299 -0.1023
30091W        W33311   7.977   3.996   9.813 -0.1872 -0.1454  0.0794
30092W        W33312  17.601   1.748  12.089  0.2445 -0.1288 -0.3223
30093W        W33313  10.729  17.671   9.948 -0.1050 -0.1314  0.0023
30094W        W33314  12.324  15.715   5.115 -0.1184  0.0754  0.0559
30095W        W33315  16.467  15.792   8.778  0.0817 -0.0907  0.0065
30096W        W33316  10.362  16.216  17.948 -0.1373 -0.3963 -0.0554
30097W        W33317   8.402  16.777   5.137  0.4633 -0.0253 -0.3116
30098W        W33318  17.422   5.547  10.048  0.2004  0.3332 -0.1099
30099W        W33319  11.356   5.060  12.259  0.1609  0.1937 -0.1544
30100W        W33320  18.243  12.811   7.677  0.0554  0.2072 -0.2926
30101W        W33321  12.342   3.795   5.854 -0.0383 -0.2914 -0.1717
30102W        W33322   9.984  12.228  10.625  0.0342  0.0204 -0.1228
30103W        W33323  10.653   7.254  11.996 -0.1533  0.2608  0.3103
30104W        W33324  15.537  16.670   1.654 -0.1977  0.3340  0.1017
30105W        W33325  12.565   4.272   5.520  0.2432 -0.1031 -0.0209
30106W        W33326  13.566   1.744   2.629  0.2321 -0.0738  0.2914
30107W        W33327  11.362  17.849   7.237 -0.0098  0.2363  0.0256
30108W        W33328   9.729   2.611   2.350  0.1436  0.0152  0.0583
30109W        W33329  13.564   6.860   9.244 -0.1295  0.3372 -0.2622
30110W        W33330  10.210   4.416   5.239 -0.1709 -0.0472  0.1729
30111W        W33331  13.165  10.088   2.878 -0.0886  0.0129  0.1436
30112W        W33332   8.702  18.263  17.728  0.0888  0.3086 -0.2229
30113W        W33333   9.179   5.410  10.182  0.1368  0.0559  0.2022
30114W        W33334   9.982   3.134   0.121  0.3815  0.0586  0.4364
30115W        W33335  14.402   9.633  10.115  0.2834 -0.2077  0.3345
30116W        W33336  14.581  11.253   1.071 -0.2982  0.0866  0.0730
30117W        W33337  13.762   5.367  17.361  0.2877 -0.1244 -0.3457
30118W        W33338  10.255   0.779   3.492  0.2103 -0.0390 -0.0314
30119W        W33339   8.203  15.686   7.016 -0.1012  0.3255  0.3199
30120W        W33340  16.475   6.248   8.659  0.2357 -0.0957 -0.1302
30121W        W33341  16.440   7.186   4.542 -0.3720  0.1977 -0.2538
30122W        W33342   4.874   6.156   6.270  0.0438 -0.3668 -0.4225
30123W        W33343  10.234   9.920   5.661 -0.0774 -0.1786 -0.1703
30124W        W33344  14.538   3.406   4.828 -0.3350  0.2389 -0.0400
30125W        W33345   8.625   1.162  13.231 -0.3068 -0.0252  0.0318
30126W        W33346   4.230  17.629  15.983 -0.1271  0.0091 -0.2920
30127W        W33347  11.353   0.265   8.424  0.1647  0.1605  0.1932
30128W        W33348  11.479   8.434   6.660 -0.0374 -0.2173 -0.1164
30129W        W33349  15.143  16.507   5.492  0.2138  0.0096  0.0938
30130W        W33350  10.127  17.717   4.232  0.3550  0.1827 -0.0068
30131W        W33351   8.720  12.002   3.190  0.2000  0.4428  0.2087
30132W        W33352  17.667   1.066   0.859 -0.2940 -0.0146 -0.4116
30133W        W33353  17.592   6.733   6.073  0.1267  0.1225 -0.2253
30134W        W33354  14.804  15.481   7.887 -0.1327 -0.3138 -0.0110
30135W        W33355  11.727   3.749   6.664 -0.0004 -0.0050  0.0126
30136W        W33356   9.004  17.727  10.779  0.0579  0.1261 -0.0830
30137W        W33357  14.556   4.688   4.311  0.1829 -0.1248 -0.0906
30138W        W33358  11.374   3.903  16.127 -0.2147  0.2955  0.0487
30139W        W33359   8.530   2.653   5.653 -0.0730  0.0223  0.0908
30140W        W33360  14.926  17.287   6.809  0.3113  0.0151 -0.1065
30141W        W33361  16.334   0.020  11.614 -0.0177 -0.0922 -0.1111
30142W        W33362  14.961   0.503  12.153  0.0784 -0.1610 -0.2367
30143W        W33363  14.312   1.417   1.536  0.0708  0.0816 -0.1996
30144W        W33364  13.252   4.494   6.983  0.0149  0.1306  0.3147
30145W        W33365  15.003   2.788  11.419 -0.2196 -0.2386  0.0264
30146W        W33366   4.728  14.659   8.505 -0.0286 -0.0762 -0.1488
30147W        W33367  12.429  16.638   2.552  0.5108 -0.0492  0.3017
30148W        W33368  10.394  14.977   7.700 -0.0376  0.1735 -0.3295
30149W        W33369  18.249  14.453   4.213 -0.0232  0.0062  0.1105
30150W        W33370  13.591   3.706   9.079 -0.1235 -0.0079 -0.3945
30151W        W33371  13.062   4.522   3.805  0.1785 -0.1061 -0.1876
30152W        W33372  18.197   3.491  12.514  0.0222  0.0368  0.0901
30153W        W33373  12.039   0.091   4.122 -0.0330 -0.1304  0.1557
30154W        W33374  10.421  15.654   6.844 -0.2463  0.0617 -0.1820
30155W        W33375   8.404  12.426  17.907  0.3128 -0.1664 -0.0702
30156W        W33376  17.720  14.307  16.760  0.3650 -0.3188  0.0136
30157W        W33377  10.848   4.032   3.753 -0.0447 -0.0321  0.2873
30158W        W33378  16.236   4.607  16.729  0.1165  0.1992  0.0483
30159W        W33379  12.166   7.676   8.968  0.1562  0.0326 -0.0150
30160W        W33380  15.717  10.061   0.007 -0.1623  0.2658  0.0750
30161W        W33381   3.182   7.027  16.780  0.0488  0.1264  0.1805
30162W        W33382   9.273  15.341   6.426 -0.1202 -0.1575  0.3186
30163W        W33383  17.092   0.953   8.739  0.4893 -0.0799  0.0200
30164W        W33384  10.185   1.737   4.376 -0.1374  0.2225 -0.1018
30165W        W33385  16.590   0.190   6.322  0.5646 -0.0443  0.1938
30166W        W33386  13.243   4.509  17.967 -0.2887 -0.2708 -0.2874
30167W        W33387   8.683  17.881   6.009 -0.0667 -0.0263  0.3554
30168W        W33388  11.367  14.048   5.201 -0.1137  0.0162 -0.0455
30169W        W33389  12.929  17.968   6.581 -0.1677 -0.0297 -0.0268
30170W        W33390  17.372   2.810  10.131 -0.1093  0.0718  0.0442
30171W        W33391  12.765   1.617   6.024 -0.0247  0.0173  0.1157
30172W        W33392  14.182   4.546   8.185  0.2420  0.0270  0.0375
30173W        W33393  13.304  18.084   6.055 -0.0964 -0.0788  0.1713
30174W        W33394  15.482   7.898   0.955 -0.0805 -0.1673  0.1730
30175W        W33395  12.754   8.285   7.487  0.1213 -0.0543 -0.0948
30176W        W33396   4.750   3.757  10.140  0.0692  0.0431  0.1014
30177W        W33397  15.477   2.734   2.562  0.1514  0.2572 -0.2343
30178W        W33398  14.425   0.895   8.305 -0.1018 -0.1675  0.0802
30179W        W33399   6.460   0.452   0.351  0.0366 -0.3596  0.2444
30180W        W33400  11.485   9.079   1.089  0.1965 -0.0716  0.3053
30181W        W33401  16.968  17.747   5.696  0.0389 -0.2128  0.1108
30182W        W33402   9.917  17.811  17.549 -0.0712  0.2253  0.0877
30183W        W33403   4.034  16.997   7.241  0.1748  0.0958  0.2913
30184W        W33404  15.114  17.443   8.360 -0.0767  0.0808  0.1787
30185W        W33405  15.563   5.412  10.206 -0.2862 -0.4878  0.0162
30186W        W33406  13.925   8.371   3.269  0.1605  0.3353  0.0009
30187W        W33407  14.684  17.860   3.221  0.3482 -0.1601 -0.0723
30188W        W33408   0.639   2.942   5.158 -0.2836 -0.0662 -0.4050
30189W        W33409  16.600  14.211   8.797  0.4294  0.3264 -0.3167
30190W        W33410  14.458   0.589   5.404  0.1815  0.0653 -0.2653
30191W        W33411  13.079   5.125   3.207 -0.1596  0.0789 -0.0993
30192W        W33412  16.500  15.533   3.051 -0.6738  0.1445  0.0345
30193W        W33413  12.870  15.994  14.446 -0.4736  0.0436  0.0475
30194W        W33414  14.763   9.900   6.046 -0.1558  0.1764  0.1320
30195W        W33415  16.509   2.502   4.873  0.0862 -0.2204  0.1612
30196W        W33416  16.709  17.464   3.833 -0.2371 -0.1325  0.2031
30197W        W33417   9.348  15.659  12.404 -0.1544 -0.0083  0.1770
30198W        W33418  13.293   8.783   2.645  0.3298 -0.0610 -0.0063
30199W        W33419  16.450  15.972   3.311  0.2647 -0.3235  0.1160
30200W        W33420  12.326  16.844   6.326 -0.0261  0.0449  0.0867
30201W        W33421  12.979  15.433   7.329  0.1557  0.0425  0.1597
30202W        W33422   1.362   0.840   4.377  0.0833  0.1636 -0.0267
30203W        W33423  14.446   8.955   4.591 -0.0691 -0.0642  0.1748
30204W        W33424  16.839   3.203   6.870 -0.0955  0.1678  0.1480
30205W        W33425   9.254   5.400   4.620 -0.1288  0.2275  0.0819
30206W        W33426  15.315   4.094   9.454  0.0289 -0.0923 -0.1932
30207W        W33427  11.168   3.965   3.383  0.0318 -0.1733 -0.0055
30208W        W33428  18.033  14.429  17.307  0.1985  0.0307 -0.0045
30209W        W33429  16.303   0.686   7.848 -0.1772 -0.2588  0.1814
30210W        W33430   1.997   0.883   7.067 -0.2036  0.0948  0.1478
30211W        W33431   0.099   5.924   3.405 -0.0264  0.2341  0.1408
30212W        W33432  14.437  13.277   1.454 -0.1740  0.1139  0.3921
30213W        W33433  12.986   2.517   2.741  0.0256  0.0448 -0.1044
30214W        W33434   5.212   5.820  15.049  0.1440  0.2535 -0.0308
30215W        W33435  13.979  15.011   4.266  0.0506 -0.0346  0.0040
30216W        W33436  15.897   1.679   5.025  0.0937  0.0318  0.1699
30217W        W33437  18.039   1.915  13.747  0.0194 -0.0840 -0.2943
30218W        W33438  18.111   4.270  12.487 -0.1498 -0.1776 -0.2637
30219W        W33439   3.646  15.902   3.998  0.0054  0.0771  0.2443
30220W        W33440   0.597   5.597   9.472 -0.1975 -0.1185 -0.0290
30221W        W33441  14.135   7.140   8.429 -0.4134 -0.0812 -0.0494
30222W        W33442   0.061   2.775   7.210  0.1013  0.0274  0.1606
30223W        W33443  14.530  15.562   5.312  0.0283 -0.2092 -0.0348
30224W        W33444   0.566  17.345   1.010 -0.0123 -0.0865  0.3100
30225W        W33445  13.933   0.449   6.432  0.2882  0.5202 -0.4293
30226W        W33446  15.127  12.790   3.000 -0.0857 -0.5324 -0.3523
30227W        W33447   0.898   1.910   0.176 -0.0588 -0.2593 -0.0136
30228W        W33448  17.249   1.043  18.134  0.0895  0.2657 -0.0005
30229W        W33449  13.913  17.835  11.304  0.0411 -0.0307 -0.0625
30230W        W33450  14.647   4.099   6.215  0.0561  0.0664 -0.0247
30231W        W33451  14.613  14.291  12.154  0.0015  0.0291 -0.0458
30232W        W33452   9.302   1.849  15.970  0.2840 -0.0440 -0.2118
30233W        W33453  13.335   2.035   4.020  0.1587  0.1401 -0.1024
30234W        W33454  17.375   1.696   5.458  0.0074 -0.1904  0.0363
30235W        W33455   8.661   3.864   1.874  0.1124  0.3055 -0.1287
30236W        W33456  17.068  17.977  11.011  0.2155  0.3149 -0.3587
30237W        W33457  12.087   3.830  10.630 -0.0496  0.1520 -0.1477
30238W        W33458  17.175   1.234  15.008  0.3652 -0.1398  0.1619
30239W        W33459  12.051   2.165  17.778 -0.1403  0.3745  0.2164
30240W        W33460  13.515   4.073   5.345  0.1594 -0.0788  0.4007
30241W        W33461  17.264  18.162   8.345 -0.2383 -0.0119 -0.0315
30242W        W33462   0.244  12.074  11.527 -0.1970 -0.5001 -0.1698
30243W        W33463  11.870   2.992   3.900  0.0465 -0.0204 -0.1579
30244W        W33464  12.347   4.210   1.349 -0.0355 -0.1130  0.1719
30245W        W33465  10.817   5.341   6.038 -0.0943  0.1002  0.3005
30246W        W33466  15.864  12.597   7.920  0.2037 -0.1090 -0.0179
30247W        W33467  16.309  14.437   1.684 -0.1620  0.0319  0.3938
30248W        W33468  13.666  14.671   6.558 -0.2313  0.2461  0.0842
30249W        W33469  16.364   3.886   7.987  0.0329  0.0117  0.4350
30250W        W33470  14.759  15.697   2.271  0.0457 -0.1306 -0.1437
30251W        W33471  13.949  11.570  11.306  0.2044 -0.1808  0.1163
30252W        W33472   0.684   8.168   6.237 -0.5040 -0.2365 -0.0194
30253W        W33473  11.592   4.516  14.033  0.2342 -0.1730 -0.1036
30254W        W33474  13.706  14.074   8.702 -0.2017  0.1274  0.2630
30255W        W33475  14.506   3.644  16.941  0.0999  0.0218  0.2043
30256W        W33476  14.219  16.595   5.206  0.1365 -0.0853  0.1135
30257W        W33477  12.900   0.079   8.802 -0.0414  0.3062 -0.1900
30258W        W33478  11.875   1.217   6.126  0.1275 -0.1110  0.3142
30259W        W33479  16.171  17.932  16.836 -0.0512  0.0465  0.1928
30260W        W33480  11.443   5.827   3.588  0.3195 -0.0670 -0.1075
30261W        W33481  14.838   5.942  12.157 -0.2679  0.0641  0.0697
30262W        W33482   1.423   5.742   8.871 -0.1339 -0.0827 -0.0475
30263W        W33483  16.325  17.444   9.145 -0.2298  0.1413 -0.0859
30264W        W33484  14.094   3.160   2.674 -0.0240 -0.2461  0.0034
30265W        W33485  10.757   5.910  13.578 -0.2393 -0.0451  0.0736
30266W        W33486  14.372  16.276  11.548 -0.0851  0.2160  0.1555
30267W        W33487  14.819   4.269   7.378  0.0054  0.0351  0.1360
30268W        W33488  16.997   7.825   8.534 -0.0486 -0.1423 -0.0144
30269W        W33489   8.343  17.842  10.849  0.2724 -0.1124  0.4652
30270W        W33490  14.620  18.194   9.248  0.3165  0.5301 -0.1318
30271W        W33491  14.563  17.623   6.931  0.1152 -0.2005 -0.1658
30272W        W33492   1.344   6.689   1.504 -0.1012  0.1103  0.2402
30273W        W33493   7.887   4.228   5.347 -0.1882 -0.0033 -0.1888
30274W        W33494  14.369   0.673   8.807  0.0066 -0.1906  0.0492
30275W        W33495  12.724   0.315   7.354 -0.0446  0.1818  0.1105
30276W        W33496  13.594   4.039   7.726 -0.1201  0.3710  0.1066
30277W        W33497  13.092   5.914   7.086  0.0578  0.3028  0.0914
30278W        W33498  16.395  13.577   6.102  0.1482  0.4178 -0.2199
30279W        W33499  13.273  17.672   5.731 -0.0644 -0.1106 -0.2670
30280W        W33500   9.976  17.362   6.289 -0.0758 -0.2356 -0.0557
30281W        W33501  15.450   1.068   3.044 -0.1813  0.3126 -0.4167
30282W        W33502  16.208  10.096  18.095  0.0156  0.0666 -0.1334
30283W        W33503  12.807   1.277   2.338  0.2499 -0.1562 -0.0067
30284W        W33504  17.097   3.269  11.423 -0.1304  0.4809  0.2088
30285W        W33505   9.742   6.002   5.027  0.0539  0.0936  0.0287
30286W        W33506  15.010   3.817  11.979  0.2181 -0.3066  0.1358
30287W        W33507  14.079   5.644   5.399 -0.4761 -0.1746 -0.0967
30288W        W33508  13.508   0.980   9.554  0.1472 -0.1560  0.3540
30289W        W33509  16.693  17.031   0.673 -0.2355 -0.1175 -0.1182
30290W        W33510  16.333   7.632  14.707 -0.4780  0.0990  0.0508
30291W        W33511  10.417   0.091   7.481 -0.0304 -0.0880 -0.0024
30292W        W33512   1.847  17.599   3.983 -0.1684  0.0352  0.3896
30293W        W33513  15.861  15.600   7.004  0.2272 -0.3848  0.0368
30294W        W33514  14.723   3.338   2.156  0.0054 -0.3553  0.0059
30295W        W33515  10.146   6.930  11.890 -0.2242  0.0692  0.0664
30296W        W33516  11.934  17.579   0.803  0.4305 -0.3263  0.0226
30297W        W33517  10.222  18.241  15.194 -0.1379 -0.0420  0.0183
30298W        W33518   7.012  13.952   2.961  0.0579 -0.0419  0.0716
30299W        W33519  15.105  12.208   7.284  0.0748  0.2295  0.0104
30300W        W33520   8.050   5.550   7.974 -0.0081  0.1467 -0.5722
30301W        W33521  13.244   7.745   0.994  0.1664 -0.0761 -0.0261
30302W        W33522   7.417  18.078   7.974 -0.1828  0.0453 -0.0614
30303W        W33523   3.238   0.606   7.179 -0.0130  0.1970 -0.0898
30304W        W33524   7.534  15.784  11.071 -0.0070 -0.1718 -0.0301
30305W        W33525  13.221   3.067   6.442 -0.1881 -0.1422  0.3753
30306W        W33526  10.566  16.822  14.654  0.0409  0.1797  0.1284
30307W        W33527  14.473  16.437   5.575  0.0593 -0.1196  0.1161
30308W        W33528  11.684   7.664   3.384  0.0091  0.0704 -0.0078
30309W        W33529  13.599   3.038   3.648 -0.1004 -0.0023 -0.0454
30310W        W33530  12.979   1.997   2.924  0.2360 -0.1250  0.0185
30311W        W33531   9.761  17.842   9.330  0.1073  0.3029  0.2876
30312W        W33532  13.904   3.262  10.284  0.3136  0.1652 -0.0892
30313W        W33533   8.533  16.199   1.719 -0.0515  0.0007 -0.0038
30314W        W33534  16.265   4.401  11.065  0.0326  0.0483  0.0494
30315W        W33535   3.332  16.259   7.455  0.0248  0.2038 -0.1066
30316W        W33536  10.258  11.899   7.348 -0.0022 -0.0588  0.0588
30317W        W33537  12.784   9.911   3.147  0.3667 -0.2068  0.0009
30318W        W33538   3.199   9.113   9.229  0.3437 -0.0288  0.0316
30319W        W33539  12.570   5.570  13.280 -0.0280 -0.4335  0.0994
30320W        W33540  16.097  11.757  14.111  0.2606  0.0833 -0.0523
30321W        W33541  14.939  11.405   9.010 -0.1223  0.0912  0.0774
30322W        W33542   2.566   3.930   1.960 -0.0653 -0.1028  0.1051
30323W        W33543   3.030   3.635   8.400  0.0452  0.0775 -0.0639
30324W        W33544  12.441   3.355  13.671 -0.1585 -0.3380 -0.1454
30325W        W33545   0.558   6.506   6.931  0.0852  0.0698  0.1820
30326W        W33546   0.871   3.468   3.208  0.1652  0.0918  0.0260
30327W        W33547  11.985  11.209   2.792 -0.1966  0.2250 -0.1092
30328W        W33548  14.638   1.847   4.462 -0.1922 -0.2603 -0.2406
30329W        W33549  13.487   9.511  11.893  0.0741  0.2956 -0.1819
30330W        W33550  17.248   1.958   0.263 -0.1477  0.1266 -0.0861
30331W        W33551  13.152   1.634   6.422  0.0295 -0.0633 -0.0865
30332W        W33552  18.195   8.919   7.313  0.1371 -0.0557  0.1040
30333W        W33553  12.588   2.891   7.696  0.1603 -0.2527 -0.2076
30334W        W33554  15.967   2.070   6.001 -0.2586  0.1346 -0.1806
30335W        W33555   1.013   1.434  10.659 -0.0160 -0.1859 -0.1686
30336W        W33556  14.215   2.754   1.538  0.2728 -0.2363  0.0748
30337W        W33557  14.039   5.169   6.192 -0.5407  0.3709  0.0199
30338W        W33558   5.023   0.274   7.324 -0.3318 -0.1785 -0.3124
30339W        W33559  14.403   1.369  14.106 -0.0108  0.2043 -0.1407
30340W        W33560  12.168   0.301   2.966 -0.1533  0.0311 -0.0830
30341W        W33561   3.297  17.166   1.383 -0.2783 -0.0037  0.0730
30342W        W33562  16.673   0.632   6.079  0.0892  0.1117  0.2662
30343W        W33563  10.362   0.391   5.077 -0.2617  0.0058  0.1647
30344W        W33564  16.263  17.111   2.334  0.3124 -0.1022 -0.0518
30345W        W33565  10.068   4.804   7.916  0.3388  0.3216 -0.2139
30346W        W33566   7.295  13.271  10.573 -0.1639  0.0196 -0.0237
30347W        W33567   2.391   4.278  12.988  0.3613 -0.1133  0.1763
30348W        W33568   1.355   3.461   1.831 -0.2254 -0.3644  0.2557
30349W        W33569  12.566  17.285   4.431 -0.1270 -0.1558  0.0319
30350W        W33570  13.127   5.799  13.292 -0.0184 -0.0786 -0.0337
30351W        W33571  12.553   3.894  18.198  0.1327  0.2173 -0.0733
30352W        W33572  18.189   6.339  10.686  0.2647  0.1355  0.1008
30353W        W33573   4.367   1.598  15.927 -0.4038 -0.0739  0.1116
30354W        W33574  17.495   2.191  15.202 -0.0532 -0.3472 -0.0496
30355W        W33575   9.663   5.504   9.059 -0.0208  0.3957 -0.0916
30356W        W33576   7.154   4.269   8.507 -0.2187  0.2694  0.0944
30357W        W33577  13.728   1.510   5.153  0.1222 -0.3090 -0.3863
30358W        W33578  14.093   4.434  15.886 -0.0987  0.2761 -0.0800
30359W        W33579   1.889   5.603   5.022 -0.4745 -0.0171  0.1389
30360W        W33580  12.906  12.309   6.784  0.0610 -0.4162  0.1153
30361W        W33581   7.447  11.679  10.624  0.0238  0.2455 -0.3669
30362W        W33582   7.715   1.013  10.387 -0.0924  0.0735  0.0599
30363W        W33583  12.995   6.888   8.948 -0.0545 -0.2260  0.2204
30364W        W33584   8.126  15.726   1.569 -0.1478 -0.0558  0.2701
30365W        W33585  10.102  17.665  15.253 -0.1766  0.0965 -0.0692
30366W        W33586  12.762  18.063   3.030  0.1690 -0.3935 -0.0119
30367W        W33587  10.954  14.564  10.983  0.0358 -0.3583  0.0108
30368W        W33588  13.442   0.739   8.640 -0.1733 -0.0699 -0.4104
30369W        W33589  17.472   0.686  10.691 -0.1240 -0.0443  0.0300
30370W        W33590  14.785   8.371  14.298  0.0360 -0.4838  0.2514
30371W        W33591  13.447   0.489   6.834 -0.0511  0.1659  0.1925
30372W        W33592  10.749   5.757   0.539 -0.0176  0.1869 -0.3939
30373W        W33593   1.951   1.038  10.283 -0.3091  0.1678 -0.1981
30374W        W33594   1.708   9.007   6.859  0.0001  0.0511  0.3303
30375W        W33595   6.166   0.900   8.600 -0.0086 -0.1150  0.5686
30376W        W33596  10.628  14.820  13.447  0.1517 -0.4411  0.3602
30377W        W33597  11.954   2.021  11.100 -0.0511  0.1513  0.2873
30378W        W33598   0.297   4.606   4.415  0.0284 -0.4157 -0.0082
30379W        W33599  11.565  12.299  14.765  0.2632 -0.1263  0.2485
30380W        W33600  12.059   5.807  17.999 -0.1322  0.2631  0.0180
30381W        W33601  14.333   1.944   8.016  0.1632 -0.2994 -0.1558
30382W        W33602   9.559  15.997  12.013  0.3033  0.1382 -0.2938
30383W        W33603  14.243   3.143  16.442  0.0926  0.1651 -0.0196
30384W        W33604   2.319   2.433   7.402 -0.2416 -0.2293 -0.0191
30385W        W33605   4.941   3.667   4.874 -0.1016 -0.3863  0.4427
30386W        W33606  13.774   1.733  11.801  0.2078  0.1516  0.2829
30387W        W33607  13.282   4.043  11.197 -0.2948 -0.2992 -0.0276
30388W        W33608  13.421   4.627   7.464  0.1478  0.0918 -0.2376
30389W        W33609  12.512   3.372   8.754  0.2769  0.0170  0.1838
30390W        W33610   1.936   0.680   4.986 -0.3104  0.0756  0.2248
30391W        W33611   9.694   1.274  12.922 -0.0104 -0.1743 -0.1021
30392W        W33612  14.303   0.792   6.577 -0.0845 -0.2409 -0.0138
30393W        W33613  14.662  15.827   9.121  0.0292  0.1067 -0.2120
30394W        W33614  14.005  13.852  14.079 -0.1191 -0.0958  0.0243
30395W        W33615   6.166   7.092  10.827 -0.0297  0.1506  0.1113
30396W        W33616  16.413   6.403   2.719 -0.0903 -0.2651 -0.2568
30397W        W33617  15.312   0.267   4.256  0.3851  0.1679  0.0076
30398W        W33618  15.031   6.073  10.289  0.3494  0.3573 -0.0575
30399W        W33619  16.872   4.050  12.156  0.1683 -0.1690 -0.4233
30400W        W33620  12.617   2.230   3.852 -0.0738  0.0175  0.5407
30401W        W33621   3.904  14.837  17.507  0.0775  0.2641 -0.0505
30402W        W33622  11.874  11.357   6.311  0.0435  0.0544  0.2654
30403W        W33623  12.576   0.074  11.462  0.1495 -0.3261 -0.2789
30404W        W33624   2.267   6.929  12.079 -0.1700  0.0373 -0.3050
30405W        W33625   5.665  11.219  10.241 -0.2138  0.0182  0.3913
30406W        W33626  12.140  17.270   8.810  0.0896  0.2931 -0.2522
30407W        W33627  11.320   0.147  13.671  0.4123 -0.1540 -0.1230
30408W        W33628  11.953   7.110  13.019  0.1754 -0.2916  0.2318
30409W        W33629  17.346  17.351   9.014  0.0822 -0.1294  0.1481
30410W        W33630   6.834   1.188  11.879  0.1770  0.0479 -0.0761
30411W        W33631  10.428   7.600  18.179 -0.2607  0.0206  0.1453
30412W        W33632  14.818  17.758   8.619  0.3049  0.0919 -0.0904
30413W        W33633   8.451   1.763   6.454 -0.1388 -0.1799  0.1215
30414W        W33634  10.424   7.609   4.202  0.1402  0.2361  0.2211
30415W        W33635  15.859  17.526  11.393  0.1017 -0.2480 -0.0474
30416W        W33636  12.643   9.619   9.253 -0.0265  0.1050  0.1490
30417W        W33637   5.258   5.295   6.087 -0.0113  0.1473 -0.2116
30418W        W33638  13.748   0.467   9.643  0.0207  0.0542  0.0219
30419W        W33639  13.061   1.542   8.105 -0.3070  0.0473 -0.0980
30420W        W33640  18.119   4.108  13.310 -0.2615 -0.4266 -0.0469
30421W        W33641   4.774   2.445  13.546 -0.2812 -0.0424  0.0164
30422W        W33642  14.730   6.571   8.950  0.4241 -0.2969 -0.0736
30423W        W33643   0.567   5.051   7.111 -0.2889  0.3326 -0.0285
30424W        W33644  16.321   7.896  16.628 -0.0638  0.0081  0.0823
30425W        W33645   0.053   9.454  14.411  0.0192  0.2656  0.3591
30426W        W33646   8.717   3.028  17.539 -0.0756  0.1185 -0.1608
30427W        W33647  16.077   0.804   6.896 -0.0593 -0.1946 -0.2460
30428W        W33648  13.466  11.186  11.830  0.0218  0.3066  0.1339
30429W        W33649  13.101   6.493  10.739  0.1083 -0.0838  0.0833
30430W        W33650  12.662   4.488  10.387  0.0275 -0.0964  0.0257
30431W        W33651  12.130   2.047   9.164  0.1989  0.2327 -0.0171
30432W        W33652  10.364   3.508   9.735  0.2694  0.2850  0.2216
30433W        W33653   0.240  15.899   9.710 -0.4006 -0.0482 -0.1415
30434W        W33654  10.938   0.538  10.013 -0.0885  0.1403 -0.1073
30435W        W33655   9.189  16.185  16.054  0.0880  0.2063 -0.2191
30436W        W33656   9.028   5.279  14.760 -0.1266  0.0539  0.0491
30437W        W33657  13.705   5.296   1.140  0.2316  0.0586  0.1644
30438W        W33658  14.598   4.644  11.740 -0.2770 -0.0163  0.1178
30439W        W33659   9.918   7.634  15.366  0.1936 -0.0813  0.2682
30440W        W33660  12.954   0.187  14.940  0.2677  0.1803 -0.0802
30441W        W33661   2.550   4.519   9.090  0.1760 -0.0210 -0.2087
30442W        W33662   1.698   6.740   3.836 -0.0860 -0.1527 -0.2122
30443W        W33663   8.371   6.025  13.636 -0.0330  0.0010  0.3827
30444W        W33664   8.453   2.379  10.471 -0.1407  0.1142  0.3612
30445W        W33665  11.059  16.181  12.222 -0.2141  0.1643 -0.2118
30446W        W33666   9.258   3.442   6.434 -0.0422 -0.0417 -0.2701
30447W        W33667   3.135   0.494   6.642 -0.1111  0.0873 -0.2393
30448W        W33668  10.621  12.566   7.447  0.0394 -0.1482  0.0042
30449W        W33669  10.093   6.080  10.135 -0.2460  0.1636  0.0696
30450W        W33670  17.868   2.666   8.473 -0.1200  0.3627  0.4479
30451W        W33671  11.223   2.048   7.133  0.0303 -0.0109  0.2225
30452W        W33672   9.244   0.995   4.638  0.2274  0.0099  0.2055
30453W        W33673  13.342  12.654   5.066 -0.0003  0.1209 -0.0700
30454W        W33674  18.093   8.215   3.699 -0.0530 -0.0650  0.0932
30455W        W33675  18.007  11.937   9.787  0.4164  0.0814  0.0635
30456W        W33676   0.212   2.612   6.792  0.0997  0.0316  0.0406
30457W        W33677   1.329   0.742   7.798 -0.0845  0.0059 -0.1205
30458W        W33678  15.783   1.908  14.662 -0.2398 -0.0328 -0.0396
30459W        W33679  14.187  16.922   8.456 -0.2970 -0.0296 -0.3718
30460W        W33680  16.342  15.975  10.078  0.0700  0.2478  0.0299
30461W        W33681  17.634  17.768  13.432  0.2349  0.1078  0.1048
30462W        W33682  12.917   0.014  11.844  0.0054 -0.2736 -0.0197
30463W        W33683  16.861  17.105  11.344  0.2720  0.3487  0.2021
30464W        W33684   6.232   5.285   6.731  0.1014 -0.1653 -0.0299
30465W        W33685  11.907   7.416  16.056  0.0632  0.1961  0.0806
30466W        W33686  11.072  15.821  14.021  0.1357 -0.0101 -0.0806
30467W        W33687   2.219  17.233   9.474  0.2831 -0.1925  0.1383
30468W        W33688  13.393   3.682   8.103 -0.2425 -0.1437 -0.2708
30469W        W33689   0.101  14.454   4.733  0.2025 -0.0766  0.2939
30470W        W33690  12.379   1.935   7.514  0.3464 -0.0293  0.2326
30471W        W33691  14.321  17.539  11.230 -0.3347 -0.0905 -0.1708
30472W        W33692   1.308   0.255   8.579  0.0770  0.2178  0.2124
30473W        W33693  18.127   5.476   6.412 -0.1288  0.2439  0.0375
30474W        W33694  12.194   8.294  11.768 -0.1072 -0.1342 -0.0668
30475W        W33695  16.708   0.840  10.869 -0.1212 -0.2915 -0.3968
30476W        W33696  17.673   3.994   7.537 -0.2110 -0.0200 -0.1556
30477W        W33697  15.981   0.076  11.974 -0.1929  0.1852 -0.0268
30478W        W33698  15.165   0.701   8.759  0.1876 -0.1681 -0.1254
30479W        W33699  13.074  10.647   6.711 -0.0906  0.0991 -0.0283
30480W        W33700  15.322   5.689  13.168 -0.2712 -0.0886  0.1772
30481W        W33701  14.988   0.892   8.125 -0.0646  0.1082 -0.2296
30482W        W33702  15.916  14.568   0.671 -0.1006  0.0378 -0.1651
30483W        W33703   8.362   4.523  12.847  0.0001  0.0469 -0.0872
30484W        W33704  18.174  11.959   8.835  0.0852 -0.1178 -0.0069
30485W        W33705  17.092   3.936   7.349  0.3981 -0.2031  0.3715
30486W        W33706  15.935  17.840  13.594  0.1207  0.0187  0.1640
30487W        W33707  15.152   9.809  15.188  0.0784  0.0509 -0.0601
30488W        W33708   0.415   1.022   8.120  0.0471 -0.0306 -0.0100
30489W        W33709   0.480   0.631   7.828 -0.2583 -0.2567 -0.2052
30490W        W33710  11.947  16.057  12.056  0.2368 -0.1195 -0.0254
30491W        W33711   9.122  15.174   3.624  0.0170 -0.3522  0.1265
30492W        W33712   0.639   3.953   9.984 -0.0346 -0.0220  0.2106
30493W        W33713  10.256   5.059  14.280  0.4602 -0.3284  0.0762
30494W        W33714  17.172   4.931  11.290 -0.1394 -0.0531  0.0901
30495W        W33715   6.190   1.846   5.371 -0.1287 -0.2437 -0.0786
30496W        W33716  13.700   1.769   4.777  0.0433 -0.1379  0.1946
30497W        W33717   7.993   4.580   4.612  0.1731 -0.0008 -0.0227
30498W        W33718   2.855  18.165   9.984 -0.2574 -0.0028  0.0994
30499W        W33719   6.971   2.269  13.047  0.1940  0.3465  0.0437
30500W        W33720  11.597   0.067   4.707  0.1049 -0.0022  0.4942
30501W        W33721  12.140   3.314  10.774 -0.0947 -0.0263 -0.1063
30502W        W33722   8.730   3.966  18.066 -0.1494  0.2066  0.1280
30503W        W33723  14.540   9.086   9.306 -0.1234  0.1038  0.0003
30504W        W33724  15.476  11.085   9.788  0.1850 -0.2144  0.1108
30505W        W33725  13.321   3.091   7.075 -0.2139 -0.2939  0.3053
30506W        W33726  13.682   2.755  12.473 -0.3286  0.3055 -0.2023
30507W        W33727  12.408   0.692   7.824 -0.1067 -0.1034  0.0177
30508W        W33728  10.831  18.150   6.328  0.0573  0.0296  0.2890
30509W        W33729   6.875  17.977   6.662 -0.1271  0.0851  0.1917
30510W        W33730  13.993   3.580  11.813 -0.0826 -0.0903  0.0578
30511W        W33731   2.872   5.007  14.555  0.0800 -0.2067  0.0570
30512W        W33732  15.192  11.655   8.109 -0.0627 -0.1069  0.1588
30513W        W33733  10.558   1.279   9.686  0.0124  0.0888  0.0027
30514W        W33734  10.619   2.656   7.858 -0.0007 -0.0640  0.1591
30515W        W33735  11.817   3.459  10.351  0.2568 -0.0829 -0.0815
30516W        W33736  14.099   0.569   9.265 -0.2037 -0.1714 -0.3544
30517W        W33737  15.555   0.097   8.373  0.0898  0.0882  0.2227
30518W        W33738   8.067   1.700  14.794  0.4115  0.1368 -0.1505
30519W        W33739   9.483   3.324  10.592  0.0887  0.2573  0.1735
30520W        W33740  12.779   1.634   5.312 -0.2351 -0.2053  0.0035
30521W        W33741  10.461  15.482   9.528  0.1429  0.1161  0.1618
30522W        W33742  15.252  14.623   2.089  0.1251  0.0681  0.2507
30523W        W33743  11.496   8.071  13.034  0.0810 -0.3165  0.1904
30524W        W33744  11.180  16.672   7.811 -0.2279 -0.1368  0.1677
30525W        W33745  11.739  13.750   9.292  0.0514  0.0785  0.2831
30526W        W33746  13.777   3.626  13.248  0.0399 -0.3001  0.0067
30527W        W33747  11.613   3.200  11.483  0.2558 -0.0703  0.0359
30528W        W33748  11.268   5.018  14.084 -0.1799 -0.1113 -0.1020
30529W        W33749  13.913   7.766  11.360 -0.0442 -0.3127  0.1274
30530W        W33750  17.563  18.108  10.103 -0.0848 -0.0640  0.1116
30531W        W33751   9.011   6.617  13.038 -0.2830 -0.1565 -0.0193
30532W        W33752  15.771   5.223   7.546 -0.0550  0.0538  0.1952
30533W        W33753  17.725   4.680   9.369  0.2718 -0.4910  0.0212
30534W        W33754   7.611   3.742  11.211 -0.4775 -0.1593  0.1233
30535W        W33755   6.524   6.230   9.123  0.3372 -0.1230  0.0199
30536W        W33756  12.826   0.597  16.390 -0.0640 -0.0934  0.1014
30537W        W33757  11.891   8.047  12.123 -0.1419  0.0940  0.0384
30538W        W33758   6.149   5.579   2.321 -0.1539  0.3246  0.0860
30539W        W33759   9.651   1.467  16.508  0.0716 -0.0426  0.0723
30540W        W33760  11.984   1.624  12.104  0.0540  0.0353 -0.3691
30541W        W33761  14.748   7.735   9.702 -0.0391  0.3361  0.0447
30542W        W33762  14.832  17.352  18.069  0.2320  0.3303 -0.0768
30543W        W33763  14.775   3.620   0.377 -0.1730  0.0790  0.0401
30544W        W33764  14.984  12.748   6.448  0.0839 -0.2268  0.2081
30545W        W33765  14.297   2.541   6.000  0.1223  0.0330  0.0434
30546W        W33766  14.556   0.577   9.548 -0.1528  0.0185  0.0382
30547W        W33767  16.418   8.994  12.669 -0.2728 -0.1667 -0.2000
30548W        W33768   6.432  14.461   3.760 -0.2219 -0.2012  0.1989
30549W        W33769  13.842   2.283  16.140  0.1470 -0.4026  0.0538
30550W        W33770  13.800  17.014  10.758  0.1114  0.3497 -0.3909
30551W        W33771  14.081   5.716  11.037  0.1007  0.3673 -0.0069
30552W        W33772  11.734   0.783   3.969  0.0292  0.0024 -0.2798
30553W        W33773  13.063   8.708   7.425 -0.3167 -0.1365 -0.1480
30554W        W33774  14.258   4.029   7.452  0.0886  0.1415 -0.1243
30555W        W33775   7.896   3.400  15.392  0.1375 -0.0433 -0.0707
30556W        W33776  10.005   0.557  14.041  0.0140  0.2192 -0.0154
30557W        W33777  12.250  15.456  11.468  0.0409 -0.1342  0.0274
30558W        W33778   9.952   7.450  16.173  0.2253  0.1064 -0.0618
30559W        W33779  13.663   7.624   8.701 -0.0308  0.4112  0.3752
30560W        W33780   7.194   5.833  13.915  0.0271 -0.0599 -0.2592
30561W        W33781   9.677   7.385  11.022 -0.1195 -0.1155  0.1711
30562W        W33782  10.481   0.005   2.485 -0.0191 -0.0966 -0.0823
30563W        W33783  11.440   4.865  13.605  0.1350  0.3014  0.0998
30564W        W33784  11.648  15.490   6.325  0.0218  0.0721 -0.0597
30565W        W33785  16.280   3.007   8.900  0.1554  0.2581 -0.0632
30566W        W33786   5.462  16.003   1.691  0.3541  0.1076  0.2700
30567W        W33787  10.513   3.671  11.685 -0.0538 -0.1522 -0.1272
30568W        W33788  10.033   7.688  13.428  0.3770 -0.0197  0.2194
30569W        W33789  17.890   4.917   6.752  0.2206 -0.1829  0.0215
30570W        W33790   2.931  15.492  14.047 -0.2800  0.2224 -0.0138
30571W        W33791  11.642   1.932   9.867  0.0151  0.0173 -0.0996
30572W        W33792  12.030   1.713  10.057 -0.1946 -0.0616 -0.2376
30573W        W33793   1.470   5.098  11.242 -0.1526  0.0206 -0.4171
30574W        W33794  13.124   7.944  11.227 -0.1669  0.4297  0.1989
30575W        W33795   1.328   0.708   3.867  0.1260  0.3837 -0.3753
30576W        W33796   2.169   1.062   3.417 -0.0254  0.0319  0.0059
30577W        W33797  15.669  16.593  13.178  0.0412  0.0187  0.0635
30578W        W33798  14.323  14.663  11.870  0.0993  0.0292  0.0843
30579W        W33799  12.696   8.047  11.603  0.4320 -0.1732  0.0087
30580W        W33800  16.624   3.206   8.160 -0.1644  0.0866 -0.0830
30581W        W33801   5.260  18.048  11.579 -0.1881 -0.0253  0.0930
30582W        W33802  15.749  17.234   9.917 -0.2146  0.0277  0.3164
30583W        W33803  16.388   4.486   9.134 -0.0491  0.1125 -0.0204
30584W        W33804  15.682   6.151  14.548 -0.0507  0.2901  0.1642
30585W        W33805   9.741   1.585  17.156  0.0002  0.0542 -0.0572
30586W        W33806  12.162  11.586  13.963  0.0417  0.1552 -0.0120
30587W        W33807  13.278   7.286  12.907  0.2660 -0.1168 -0.1076
30588W        W33808  17.139   5.580   5.691  0.1006 -0.5522  0.0228
30589W        W33809  14.713   1.968   7.581  0.1783 -0.2364  0.1839
30590W        W33810   0.832   9.483   6.985  0.0226 -0.0195 -0.0045
30591W        W33811  17.464   1.349  10.451  0.1448 -0.0363  0.0091
30592W        W33812   6.205  13.128  12.470 -0.0742  0.2855 -0.0317
30593W        W33813  10.264   5.488   8.803  0.0636 -0.4554 -0.2601
30594W        W33814   1.178   6.283   6.282  0.0012 -0.0496 -0.0654
30595W        W33815  13.452   2.605   7.630 -0.3096 -0.3858  0.0067
30596W        W33816   4.126   0.816   6.722 -0.0436  0.1435  0.0629
30597W        W33817   8.413   1.955  17.627  0.2774  0.1532  0.4874
30598W        W33818  12.993  11.183  12.000 -0.1584 -0.2601 -0.1327
30599W        W33819   8.979   0.554   9.866 -0.0634  0.4103  0.3917
30600W        W33820  15.785  18.063   6.373 -0.0613  0.0057 -0.0574
30601W        W33821  14.731   9.255   2.533  0.0467  0.1723  0.0623
30602W        W33822  14.327   3.705   0.871 -0.2989 -0.3263 -0.1437
30603W        W33823  13.491  10.768  10.097  0.2291 -0.0000 -0.1915
30604W        W33824   8.015   1.847   4.620 -0.0819 -0.1815  0.0590
30605W        W33825   8.859  10.557  12.552 -0.1866  0.0737  0.0767
30606W        W33826  14.565   2.367   1.278 -0.0691  0.1148 -0.0719
30607W        W33827  10.842   2.466  12.116 -0.2037 -0.0605 -0.0717
30608W        W33828  14.409   3.971   9.767  0.2465  0.2219  0.1833
30609W        W33829  14.954   2.789  13.362  0.2385 -0.1689  0.4117
30610W        W33830   1.578   0.273   3.469  0.3267 -0.1465  0.1312
30611W        W33831  14.826  15.877   9.683 -0.1013 -0.3095  0.1388
30612W        W33832   7.880  14.513  13.332 -0.1095  0.4161  0.0462
30613W        W33833  13.330   6.712  14.203 -0.2021 -0.3901 -0.0538
30614W        W33834  13.799   2.038  10.211  0.0180  0.0405 -0.1546
30615W        W33835   1.968   2.297   6.823  0.0090  0.0753 -0.0921
30616W        W33836   8.411   4.537  11.849  0.0174 -0.0834  0.1478
30617W        W33837   0.025   2.986   8.416  0.1949 -0.2868  0.1301
30618W        W33838  17.184   5.813   7.550 -0.3348 -0.1109  0.0375
30619W        W33839  11.763   4.886   4.118  0.0327 -0.2608  0.1742
30620W        W33840   6.454   2.508   9.125 -0.0923 -0.0934  0.0070
30621W        W33841  12.081   7.496   5.844 -0.1094  0.0332 -0.2140
30622W        W33842  14.898   0.190   5.537 -0.1915  0.0411 -0.1047
30623W        W33843   4.201  17.759  12.274 -0.1728 -0.0249  0.1160
30624W        W33844   9.463   4.620   6.498 -0.1688 -0.1032 -0.1412
30625W        W33845  12.562  15.961   8.120 -0.0830  0.3291 -0.1254
30626W        W33846   6.213  17.506   9.089  0.1135  0.1307 -0.2464
30627W        W33847  13.079   3.151  17.469  0.0912 -0.1239  0.0458
30628W        W33848  15.167   3.729   7.272 -0.2078 -0.1802  0.2014
30629W        W33849  17.414   6.374  11.803 -0.0038 -0.3338 -0.1263
30630W        W33850   0.244   1.965   4.481 -0.3160 -0.1401  0.2019
30631W        W33851   7.579   3.091   4.155 -0.0030  0.2538  0.0753
30632W        W33852  12.452   1.680   7.025 -0.0301 -0.1293 -0.0018
30633W        W33853   3.518   0.498  11.535  0.0015  0.0002  0.1593
30634W        W33854  11.543   1.871  11.914 -0.1849 -0.2604  0.5562
30635W        W33855   7.880   0.394   5.305 -0.1626 -0.0543  0.0370
30636W        W33856   6.379   1.561   2.200 -0.2084  0.2988 -0.0938
30637W        W33857  12.047   1.474   3.660 -0.0378 -0.2044  0.0309
30638W        W33858  16.413   7.779  15.182 -0.1689 -0.3835 -0.0030
30639W        W33859   9.808   1.866   3.948  0.3021 -0.0873 -0.0904
30640W        W33860  14.338   3.923  12.103  0.1889 -0.0263  0.1160
30641W        W33861   8.106   5.892   3.299 -0.2135 -0.0724 -0.1743
30642W        W33862   8.372  10.164  11.035 -0.1698  0.0964  0.1094
30643W        W33863  12.241  11.768  12.909 -0.2848  0.1019  0.0048
30644W        W33864  10.170   3.860  14.751  0.2063  0.1548  0.0862
30645W        W33865  11.433   6.437   6.309 -0.1216  0.1022 -0.0087
30646W        W33866   0.544  14.039  10.296 -0.1166  0.2847 -0.2616
30647W        W33867  16.986   2.660  14.073 -0.0460 -0.0166 -0.2318
30648W        W33868   8.960  17.607   1.501 -0.0522 -0.1106 -0.3489
30649W        W33869  16.754   3.596  12.278  0.0320 -0.1549 -0.1961
30650W        W33870  17.585  17.173   8.097 -0.0045 -0.0193 -0.0361
30651W        W33871  14.449   0.546  11.862  0.0145 -0.1368  0.0080
30652W        W33872  11.249  12.735  10.857  0.0375 -0.2116  0.2150
30653W        W33873  15.264   3.461  12.876 -0.3133  0.0823 -0.2429
30654W        W33874  14.632  17.466  10.786  0.1854 -0.0259 -0.3407
30655W        W33875  12.444   3.453  14.555  0.0799 -0.0169 -0.0223
30656W        W33876  17.095   0.265   9.329 -0.1635  0.1207  0.2495
30657W        W33877   4.341   4.811   7.473  0.0046 -0.1841  0.1212
30658W        W33878  13.275   2.494   3.230  0.1890 -0.0958 -0.0421
30659W        W33879   5.703  12.283   2.662 -0.0443  0.0330  0.2585
30660W        W33880   0.203   3.161  12.742 -0.2624 -0.0330 -0.0721
30661W        W33881  13.956   0.562   5.945 -0.2554  0.1748  0.3114
30662W        W33882   8.988   0.157   6.050 -0.0189  0.2976  0.1363
30663W        W33883  12.339  14.709   7.786 -0.0794  0.1572 -0.2035
30664W        W33884  12.696   3.134  14.093 -0.4144 -0.0870  0.2426
30665W        W33885  15.144   0.502   9.275 -0.2971 -0.2872 -0.0666
30666W        W33886   8.820  15.042  10.288 -0.0921  0.1578 -0.0612
30667W        W33887  17.219  17.243   8.468 -0.0578 -0.1867 -0.1186
30668W        W33888  13.692   2.911  11.250 -0.2363 -0.3148 -0.1546
30669W        W33889   7.650   5.334  15.396  0.0830 -0.1947  0.2120
30670W        W33890   9.462   0.866   5.676 -0.1553  0.0258  0.0780
30671W        W33891  13.663  17.057   3.293  0.1719 -0.0701 -0.1053
30672W        W33892  16.904  13.045   7.759  0.0294  0.2910 -0.0525
30673W        W33893  13.508   7.753   9.370 -0.2029 -0.3100  0.2101
30674W        W33894   9.752   6.139   8.213  0.0877 -0.1504  0.2250
30675W        W33895  17.616   6.738   8.991 -0.0195  0.0486  0.1257
30676W        W33896   0.143  17.189   9.115  0.0062  0.1632  0.1840
30677W        W33897   9.756   0.065   9.172 -0.1146 -0.0965  0.0208
30678W        W33898  16.832   8.111   6.853 -0.0679  0.2606  0.0451
30679W        W33899   7.170   4.169  12.570  0.1488 -0.2385  0.1632
30680W        W33900  12.292   5.118   2.709 -0.0658 -0.2245 -0.1301
30681W        W33901   7.774  11.194  12.000  0.1637 -0.0632 -0.0996
30682W        W33902  11.459  15.452   5.663 -0.1600  0.2550  0.1397
30683W        W33903  12.164   0.484  16.390  0.1214 -0.1024 -0.2330
30684W        W33904   1.688   5.015  13.909  0.0252 -0.0999  0.2071
30685W        W33905   9.887  10.737   7.740 -0.0863  0.3561  0.2305
30686W        W33906  14.955  15.044   6.440 -0.1540  0.3335  0.4426
30687W        W33907  14.909   8.715  11.295  0.1915 -0.0698  0.2461
30688W        W33908  15.263   8.745  12.159 -0.1423 -0.0774 -0.0364
30689W        W33909   9.228  14.467   8.956  0.0533 -0.1017  0.5312
30690W        W33910  17.814   9.225  14.346 -0.2679 -0.1351 -0.2250
30691W        W33911  12.354   7.295   0.528  0.1434  0.0756 -0.2746
30692W        W33912  16.287  17.967  11.212  0.4353  0.0386  0.1425
30693W        W33913  14.040   1.918   9.764 -0.0435 -0.0839 -0.0207
30694W        W33914   8.722  14.809  13.906  0.1000  0.1424 -0.2495
30695W        W33915   6.998   3.373  15.915  0.0852 -0.1805 -0.0695
30696W        W33916  12.260   2.284   7.190 -0.0155  0.2218  0.2253
30697W        W33917  12.834   3.441   7.441  0.1564  0.0260 -0.2025
30698W        W33918  12.582   4.969   9.611  0.0504 -0.1550  0.2222
30699W        W33919   4.572  15.508   5.784 -0.2178  0.1042  0.0607
30700W        W33920  13.744   5.211   7.461  0.0884 -0.0994 -0.0339
30701W        W33921  15.285   1.197   8.727 -0.2042 -0.0508 -0.0351
30702W        W33922  14.123   8.816   3.342  0.0019  0.2037  0.0744
30703W        W33923   6.049   2.953  13.299 -0.0719  0.1996 -0.1531
30704W        W33924  11.646  18.027   2.028  0.2420 -0.0313  0.0510
30705W        W33925  12.338  17.312   7.076 -0.2646  0.0484  0.0868
30706W        W33926   8.377   3.768   4.558  0.3327  0.0885  0.0635
30707W        W33927  15.346  10.650  10.858  0.1335  0.1780 -0.0608
30708W        W33928  10.853   3.794  16.003  0.1322 -0.0946  0.1559
30709W        W33929   6.270   6.937   7.790  0.1341  0.3142  0.0024
30710W        W33930  12.129   4.664  13.954 -0.1767  0.1550 -0.0068
30711W        W33931   6.316   0.490   3.459  0.0024 -0.1024  0.1046
30712W        W33932  13.983  16.111   6.570  0.1523 -0.2112 -0.2265
30713W        W33933   9.924  17.294   9.987  0.0486  0.0459  0.1503
30714W        W33934   5.994  11.827  13.861  0.4152  0.1334  0.0030
30715W        W33935   2.202   3.499   5.620 -0.1574 -0.2595  0.2369
30716W        W33936  16.842   1.187   4.799 -0.1474 -0.2109  0.0654
30717W        W33937   8.283  16.671  15.301  0.2693 -0.4442 -0.2722
30718W        W33938  10.985   2.038  10.850  0.0725 -0.2401 -0.1518
30719W        W33939  14.155   8.563  13.477 -0.0643  0.0426 -0.0268
30720W        W33940   1.458   7.799   5.750 -0.3214  0.1752  0.1178
30721W        W33941  12.771   6.694   9.983  0.2679  0.2210 -0.0504
30722W        W33942  16.191   1.560   9.155 -0.0415  0.0735 -0.1507
30723W        W33943  16.267   1.867   8.263  0.0342 -0.0876 -0.0093
30724W        W33944   2.114   2.226   9.787  0.2144 -0.1315 -0.3005
30725W        W33945  11.635  18.110   7.633 -0.1438  0.1487  0.2628
30726W        W33946  16.999  17.850  11.862  0.0208 -0.2161 -0.2065
30727W        W33947  13.015   5.505   8.342 -0.3989 -0.1673 -0.0874
30728W        W33948  11.167   1.239   2.651 -0.2297  0.0015 -0.1789
30729W        W33949  16.473  13.740   7.970 -0.1164 -0.0154  0.1218
30730W        W33950   5.689   1.019   9.582 -0.3497  0.0146 -0.1428
30731W        W33951  10.648   4.711  11.352 -0.0610 -0.1215 -0.1440
30732W        W33952   1.272   4.366   7.661 -0.0622 -0.1954 -0.2728
30733W        W33953   1.476   4.803  12.634  0.2530  0.0113 -0.2116
30734W        W33954   8.311   7.237   8.555  0.3444 -0.2774  0.1226
30735W        W33955  15.294   7.279  17.266  0.2802 -0.2591 -0.1057
30736W        W33956   7.518   0.828   7.113 -0.0984 -0.0240 -0.0686
30737W        W33957   6.092   0.086   9.403 -0.1702  0.0820  0.1318
30738W        W33958   0.115   7.377   7.696 -0.3324 -0.0801 -0.2045
30739W        W33959  15.767   3.411   9.477  0.0467  0.1854 -0.0060
30740W        W33960  13.601  10.627   6.558  0.0556 -0.2493  0.2359
30741W        W33961   9.530   6.262   0.480  0.0601  0.2178  0.0045
30742W        W33962  11.875   3.644  11.590  0.0649  0.0181  0.1498
30743W        W33963   8.513   4.658  13.430 -0.0433 -0.1873  0.0864
30744W        W33964  14.060  12.526   6.946 -0.1111  0.0169  0.1902
30745W        W33965  11.396   0.754   9.621 -0.0713 -0.1938 -0.1221
30746W        W33966   8.739   1.307   5.688  0.1946 -0.1476  0.3924
30747W        W33967  10.436   1.741   9.431 -0.0187 -0.1274 -0.0067
30748W        W33968  14.109   1.999   5.894  0.3918  0.2570 -0.0010
30749W        W33969   9.121   0.350   9.392  0.0853  0.0216  0.2419
30750W        W33970  14.022   0.927   9.587  0.1037  0.2067  0.2264
30751W        W33971  15.162   3.681   6.781 -0.2549 -0.3735  0.2852
30752W        W33972   8.340  14.697  12.236 -0.1976 -0.3387 -0.1713
30753W        W33973  17.426   8.121  10.565  0.3480 -0.0993 -0.2816
30754W        W33974  13.731  16.998   4.540  0.0504  0.0740 -0.0314
30755W        W33975  14.029   7.325  16.888 -0.0405  0.0513 -0.0580
30756W        W33976   1.948   1.784  17.949  0.1978 -0.0872 -0.0444
30757W        W33977   7.714  17.467  12.654 -0.1097 -0.1818  0.1939
30758W        W33978  13.684   4.193  10.006  0.0863  0.0748 -0.1611
30759W        W33979   2.093  13.950  12.339 -0.2348  0.5378  0.2201
30760W        W33980  15.753   9.640  14.829  0.0375 -0.0636 -0.2021
30761W        W33981  12.622   4.099  15.826  0.0196 -0.1275  0.0207
30762W        W33982  14.365   5.353  14.703 -0.0575 -0.1432 -0.1041
30763W        W33983   8.003  17.945  11.227  0.2472  0.5462  0.0911
30764W        W33984  12.486  13.813   4.923 -0.1681  0.0079 -0.2166
30765W        W33985  14.578  13.623  14.629  0.0975 -0.3987 -0.3743
30766W        W33986   0.460   1.319  13.641  0.1613  0.0383  0.0505
30767W        W33987  12.495  17.909  10.672  0.0606  0.1788 -0.0609
30768W        W33988  12.371   5.297  15.693  0.3955  0.1108  0.1794
30769W        W33989   6.587   4.496   3.600 -0.2947  0.0658  0.2107
30770W        W33990  10.006  18.125   8.342  0.1867  0.2247  0.2738
30771W        W33991   5.156   4.439  15.336 -0.1516  0.2802 -0.0171
30772W        W33992   8.021  17.019   4.271  0.0078  0.0379  0.0187
30773W        W33993   5.530   4.977  16.129 -0.0146  0.1741  0.2015
30774W        W33994  15.119   3.280  14.318  0.2743 -0.2323 -0.1703
30775W        W33995  17.698   5.130   6.361  0.0795 -0.1116  0.1395
30776W        W33996  13.338   2.180  10.132  0.2056 -0.1430  0.0301
30777W        W33997  11.984  14.155  17.006 -0.0786 -0.3399 -0.0762
30778W        W33998  12.297   4.234   0.467 -0.0688 -0.0393 -0.0058
30779W        W33999  13.951   0.193  14.026 -0.0061 -0.1789 -0.1466
30780W        W34000   7.586   1.588  15.532 -0.1751 -0.0415  0.0172
30781W        W34001  12.478   2.609  12.524  0.1268  0.1213 -0.0663
30782W        W34002  12.420   8.524  13.918  0.2326  0.0204  0.6411
30783W        W34003   7.152   0.629  14.211  0.3509  0.2442  0.0878
30784W        W34004  13.328   1.977  14.967  0.1901 -0.0834 -0.0658
30785W        W34005  12.116  11.158  15.115  0.2102  0.0318  0.0978
30786W        W34006   0.938  16.362  18.185 -0.0732 -0.0862  0.1421
30787W        W34007  15.262   2.417  17.710 -0.1967  0.1063  0.3342
30788W        W34008  15.138   3.846  15.651 -0.1350  0.0495  0.0947
30789W        W34009   9.903   2.489  14.575 -0.2085  0.1935 -0.2353
30790W        W34010   7.139  14.775  13.794 -0.0951 -0.0759 -0.0900
30791W        W34011  16.806   6.678  13.741 -0.2384  0.1812  0.0149
30792W        W34012  13.432   2.219  16.631  0.1762 -0.0543 -0.0977
30793W        W34013  14.488  11.214   5.684 -0.0787  0.0154 -0.1562
30794W        W34014  17.007  14.243   7.303  0.0727  0.1737 -0.1957
30795W        W34015  10.114  14.520  11.573  0.1161 -0.2239  0.0830
30796W        W34016  13.490   0.635   6.347  0.1553  0.0777  0.0617
30797W        W34017  14.037   2.152  12.022  0.1960  0.2818  0.0760
30798W        W34018   6.748  15.725   9.251  0.0211  0.1938 -0.2628
30799W        W34019   8.122   5.903   8.638  0.1420 -0.0819  0.2929
30800W        W34020   3.782   1.856  13.446 -0.0201  0.1131 -0.0745
30801W        W34021  14.866  17.137   0.555 -0.0189  0.0232 -0.0167
30802W        W34022   9.926  17.393   4.546 -0.0825 -0.2944  0.0252
30803W        W34023  12.310  17.238   5.285 -0.0643  0.2236  0.1169
30804W        W34024   9.204   0.397   5.589  0.0718 -0.1164 -0.2342
30805W        W34025   5.458  14.442   8.810  0.0381 -0.1029 -0.0838
30806W        W34026   7.463   2.335  16.331  0.3506 -0.0380  0.2438
30807W        W34027  13.700   5.042  12.931  0.2730 -0.0166  0.1634
30808W        W34028  13.207   0.401  11.067 -0.0496  0.0662 -0.0866
30809W        W34029  15.948  17.416   9.494  0.0375  0.1375 -0.0730
30810W        W34030   1.923   3.547  12.184  0.0463  0.0591  0.0648
30811W        W34031  11.892  16.616  16.990  0.0834  0.0150 -0.0155
30812W        W34032  17.816  16.035  14.683  0.0420  0.1830 -0.0209
30813W        W34033  12.408   1.413  14.819  0.0467 -0.2498 -0.2634
30814W        W34034  16.213   3.013  11.126  0.0875  0.2244  0.3629
30815W        W34035  10.972   1.135  11.820 -0.0844  0.2135 -0.4231
30816W        W34036   6.938  17.336   8.482  0.3943 -0.3148  0.0261
30817W        W34037  11.526  15.821  10.415  0.6001  0.0804  0.0035
30818W        W34038   9.853   2.556  13.330  0.0993  0.1647 -0.1247
30819W        W34039  16.551   6.212  15.961  0.1649  0.0744  0.2149
30820W        W34040  15.463   2.811  14.681 -0.3481 -0.2773  0.2676
30821W        W34041   9.653   8.207  12.958 -0.0908 -0.3636 -0.1752
30822W        W34042  12.352   4.539  15.309 -0.3858  0.2829  0.0421
30823W        W34043   7.005  16.956   7.260 -0.1246  0.0942  0.0928
30824W        W34044   5.238  14.472  14.915  0.1684 -0.1102  0.2399
30825W        W34045  10.758  16.250   9.712  0.0738 -0.1008  0.3947
30826W        W34046  11.063   1.524   8.667  0.1002  0.0212  0.0926
30827W        W34047  11.762   3.158  15.018 -0.1933 -0.0234  0.2670
30828W        W34048  12.810   6.572  11.667  0.3459  0.0265 -0.2309
30829W        W34049   9.720   2.667  12.872  0.1279  0.1080 -0.0309
30830W        W34050  13.668  15.407   9.447 -0.0893  0.2997  0.3733
30831W        W34051  11.378   1.559   9.941  0.2723  0.0648  0.4125
30832W        W34052   9.890   5.748  14.453 -0.1344 -0.0846  0.0453
30833W        W34053  12.680  11.702  11.968  0.1861 -0.0208 -0.1904
30834W        W34054  10.482   0.214  10.181  0.0436  0.2170  0.1663
30835W        W34055  13.524   3.486   6.444  0.3012  0.2191 -0.1429
30836W        W34056  15.713  10.660  14.299  0.0627  0.1233 -0.0793
30837W        W34057  13.086  14.349  11.876 -0.0180  0.0209  0.1617
30838W        W34058  17.432   2.805   8.180 -0.0835 -0.1750  0.1370
30839W        W34059  13.427   3.430  17.181 -0.0546  0.2187 -0.1020
30840W        W34060  12.880  14.916  13.112 -0.5033  0.2212  0.1277
30841W        W34061  13.897  14.652  12.155 -0.1563  0.3543 -0.0542
30842W        W34062  10.006  13.603  14.808 -0.0277  0.0551  0.1623
30843W        W34063  12.687  17.439   6.693 -0.1770 -0.1677  0.3207
30844W        W34064  13.218  17.353  12.283 -0.2950 -0.0557  0.2076
30845W        W34065  15.083   2.539  12.706 -0.2319  0.0164 -0.0190
30846W        W34066   3.642   3.552  11.942  0.0424 -0.2092  0.1502
30847W        W34067   0.605  11.324  17.474  0.0842 -0.2073  0.2943
30848W        W34068   5.264   5.337   7.425 -0.3280  0.2114  0.2488
30849W        W34069   7.936   2.439   7.183 -0.0335  0.0314 -0.0612
30850W        W34070  12.607   7.090  11.383  0.1205 -0.0176  0.0348
30851W        W34071  10.487   4.569   8.829  0.0084 -0.2969  0.2211
30852W        W34072  12.536   7.062  16.404 -0.0089  0.2387 -0.0114
30853W        W34073   9.396   1.418  11.831 -0.0191  0.1496 -0.2566
30854W        W34074   9.354  16.945   0.645  0.1363 -0.0509 -0.0206
30855W        W34075  13.363  17.771   6.480 -0.1540  0.2121 -0.2042
30856W        W34076  17.543   8.550  17.094  0.1282  0.0788  0.2263
30857W        W34077   5.874  16.827   1.785  0.1944  0.1378 -0.0006
30858W        W34078  11.196   7.297  10.382  0.1959  0.0724 -0.1119
30859W        W34079  13.779   4.866  16.649 -0.0310 -0.2208  0.2905
30860W        W34080  18.137  17.882  11.824 -0.1324  0.2954  0.1176
30861W        W34081  13.406  12.954  11.567 -0.1985 -0.1933 -0.0228
30862W        W34082  10.287  16.026  13.820  0.4360  0.1176 -0.0888
30863W        W34083  12.437  13.472   5.455  0.0505  0.1112  0.1045
30864W        W34084  11.876  15.320   7.708  0.2029 -0.1595 -0.0513
30865W        W34085  10.254  16.661  16.746  0.1130 -0.1257  0.1062
30866W        W34086   9.251  16.552   2.101  0.3172 -0.0966  0.1113
30867W        W34087  14.497  13.340   8.411 -0.0185 -0.5160 -0.1881
30868W        W34088  13.788  14.909   5.392  0.2500 -0.1287 -0.2003
30869W        W34089  13.955   0.375  12.588 -0.0906  0.0489  0.1486
30870W        W34090  11.006  13.784   1.122 -0.1744 -0.2777 -0.2404
30871W        W34091   0.827   4.334  12.633  0.0908  0.0933 -0.2509
30872W        W34092  11.557   2.090  13.849 -0.1307 -0.0105  0.1333
30873W        W34093  13.976   3.700   6.345 -0.0606 -0.2918 -0.1645
30874W        W34094  13.451   8.833   8.210 -0.0180 -0.0547 -0.0641
30875W        W34095   9.208   7.335   4.354  0.1622 -0.0516 -0.1473
30876W        W34096   8.931  16.238   7.579 -0.0705 -0.0402  0.0485
30877W        W34097  14.443  16.140   9.431  0.1010 -0.0117  0.1345
30878W        W34098   0.001  15.302  14.282  0.2834  0.1039  0.0849
30879W        W34099   5.864   0.333   7.884 -0.2121  0.2475 -0.0852
30880W        W34100  14.492   7.015  14.673 -0.2206 -0.3387  0.0871
30881W        W34101  11.914  18.060   7.219  0.2560  0.0609  0.0749
30882W        W34102   1.209   5.760   0.182 -0.1561  0.2362 -0.1458
30883W        W34103  11.929   1.007  16.491 -0.0500 -0.0251  0.0366
30884W        W34104  14.184  18.085   3.425 -0.1469  0.1689  0.2019
30885W        W34105  16.422   2.815   0.039 -0.2772 -0.0591 -0.2052
30886W        W34106  12.934  16.746  12.535  0.1815  0.0248  0.0820
30887W        W34107  14.943   3.949   8.628 -0.0258 -0.1583  0.1268
30888W        W34108   2.088   2.116   1.965  0.0810 -0.0796  0.2030
30889W        W34109   8.281  16.673  14.761  0.0113  0.3792  0.2997
30890W        W34110  15.258  11.642   9.577  0.0694 -0.1544  0.5911
30891W        W34111   0.349   4.123   8.632 -0.2245 -0.2339  0.2088
30892W        W34112  12.836  17.368   1.286 -0.1522 -0.2295 -0.2554
30893W        W34113  14.755   2.546  13.781 -0.1412  0.0367 -0.0818
30894W        W34114  12.952   3.225  15.631  0.1050 -0.2396 -0.2234
30895W        W34115  17.987   0.988  11.492 -0.0218  0.1270 -0.0400
30896W        W34116   9.513  15.722   9.766  0.2982  0.1526 -0.1154
30897W        W34117  13.250  16.524  11.652 -0.1248  0.1946  0.0858
30898W        W34118  17.655   5.102  16.808  0.0230 -0.0160 -0.2068
30899W        W34119   0.843   1.894  14.507 -0.0648  0.1430 -0.0321
30900W        W34120  13.562  11.768  12.928 -0.0193  0.5969 -0.0437
30901W        W34121  15.888   5.122  11.701  0.3644  0.1348 -0.1549
30902W        W34122   7.849  11.616  14.232  0.1740 -0.1846  0.2945
30903W        W34123   9.007   5.444  17.103  0.1580  0.1955 -0.1016
30904W        W34124   9.041  17.919  11.314 -0.2585  0.1642 -0.0095
30905W        W34125   9.155  12.616  10.824 -0.2813 -0.0096  0.4157
30906W        W34126  11.670   3.465  14.097 -0.0045  0.1379  0.1383
30907W        W34127  12.144   3.142   9.050 -0.1600 -0.1600  0.3374
30908W        W34128   8.114   2.567  13.768 -0.6232  0.0518  0.2341
30909W        W34129  13.074   0.510  12.066 -0.1089 -0.1136  0.1015
30910W        W34130  13.693  16.359   7.793 -0.0348 -0.2021  0.2247
30911W        W34131  14.699   4.029   0.693 -0.1046 -0.2179 -0.1422
30912W        W34132  11.172   2.001  15.233  0.0233 -0.2316  0.1004
30913W        W34133   9.852  15.622  12.276 -0.1370  0.1581 -0.0979
30914W        W34134  10.838   9.944   6.021 -0.1459 -0.0044  0.1971
30915W        W34135  13.187  17.636   2.865 -0.0693  0.0150 -0.1678
30916W        W34136  13.116   7.531  17.827 -0.1372  0.1886 -0.1508
30917W        W34137   3.097  13.961   7.207  0.1401  0.1021 -0.0771
30918W        W34138  14.498  10.261  11.602 -0.1244 -0.0286 -0.1257
30919W        W34139  13.154   4.752  15.855  0.0858 -0.0923  0.2594
30920W        W34140  15.479  13.987  16.790  0.2186  0.0911 -0.0947
30921W        W34141  13.376  16.335  10.660  0.0471 -0.0452 -0.0996
30922W        W34142  15.786   5.219  12.199  0.0661  0.0925  0.3894
30923W        W34143   4.598  13.464   0.916  0.0422 -0.0064  0.0187
30924W        W34144   4.466  18.058   0.197 -0.0966  0.1325 -0.0046
30925W        W34145  13.490  15.297  14.584 -0.2225 -0.0729  0.3825
30926W        W34146   2.339   2.431   0.670 -0.2528 -0.0012 -0.1547
30927W        W34147   6.673  11.236  11.744  0.2723 -0.0057  0.2184
30928W        W34148  12.776   1.917  16.187  0.1058  0.2599 -0.1037
30929W        W34149   9.366   4.423  10.968 -0.0966 -0.1285  0.2320
30930W        W34150   6.368  15.837  17.532 -0.1622  0.1792  0.1404
30931W        W34151  10.217  11.262  10.157  0.1091 -0.2204  0.0921
30932W        W34152  16.283   2.308  13.394  0.1322  0.2037 -0.2965
30933W        W34153  15.241  16.753   9.414  0.1572  0.1336 -0.0113
30934W        W34154  15.586  12.453   8.680 -0.1804 -0.2855 -0.0473
30935W        W34155  11.072   0.465  16.167 -0.1153 -0.3009  0.1138
30936W        W34156   0.131  17.941  11.398  0.0016  0.1320 -0.0217
30937W        W34157   6.233   4.915   9.356 -0.0454 -0.0551 -0.2178
30938W        W34158  12.232   6.826   0.849  0.0604  0.0335  0.1282
30939W        W34159  15.982  17.849  11.718 -0.0729  0.0304  0.2074
30940W        W34160  13.762   0.629  10.333 -0.2992  0.3013 -0.0698
30941W        W34161   8.823  16.572  13.867 -0.0517 -0.0587 -0.0829
30942W        W34162  12.577  17.044  15.664  0.1321  0.2769 -0.2441
30943W        W34163   2.906  10.836  14.515 -0.3412  0.5734 -0.1233
30944W        W34164  17.588  11.171  16.714  0.1103 -0.1067 -0.0783
30945W        W34165  14.801  16.196  14.294  0.1568 -0.1509  0.1877
30946W        W34166  11.898   6.283  11.876 -0.5342 -0.2010  0.0808
30947W        W34167   6.926  12.535  12.348 -0.0730  0.2309 -0.0121
30948W        W34168   7.992  16.452  14.433  0.0633 -0.0186  0.1425
30949W        W34169  16.469  13.588   1.161  0.1094  0.2330 -0.3143
30950W        W34170   7.896  12.321  11.400  0.1817 -0.0350  0.2972
30951W        W34171   9.770   9.164  14.893  0.1610  0.3731  0.2571
30952W        W34172  17.089   6.979   9.445 -0.0769  0.1756 -0.0098
30953W        W34173   9.978  16.916   6.609  0.0485  0.3199 -0.0233
30954W        W34174  12.351  14.235   0.120  0.1142  0.0978 -0.0832
30955W        W34175  15.977   9.136   9.540 -0.0316 -0.1453  0.2287
30956W        W34176   7.892   2.597  15.294 -0.0223  0.0439  0.2187
30957W        W34177   9.856  16.188   7.245  0.1816  0.3811  0.1211
30958W        W34178  11.796   9.311   8.022  0.2574  0.0140 -0.2516
30959W        W34179  14.547   2.184  10.182 -0.0213  0.1083 -0.0002
30960W        W34180   4.583   8.585  17.781 -0.2023 -0.0219  0.0376
30961W        W34181  10.371   7.151  14.112 -0.0773  0.1295 -0.4379
30962W        W34182  12.807  13.555  15.800 -0.0977 -0.1383 -0.2254
30963W        W34183  17.436   3.815  15.409 -0.2975 -0.2257  0.0753
30964W        W34184  15.456  16.661  14.953  0.0985 -0.0679 -0.1737
30965W        W34185  10.656   4.625  10.486 -0.2087 -0.0939 -0.3811
30966W        W34186  12.378   7.506   8.601 -0.0063  0.1741  0.0346
30967W        W34187  13.579   0.629   9.194 -0.2044  0.0521  0.1243
30968W        W34188   3.696   1.807   4.589  0.1076 -0.4254  0.0467
30969W        W34189  10.717   0.341  11.681 -0.2068 -0.0044  0.0959
30970W        W34190   8.698  17.090   5.813 -0.0774 -0.1934 -0.2737
30971W        W34191   9.930   8.774  17.855  0.0080 -0.2044  0.0218
30972W        W34192   9.615  17.337  10.812 -0.2110 -0.0861 -0.0784
30973W        W34193   6.642   8.192   0.340 -0.1479  0.0330 -0.3298
30974W        W34194  12.869   1.924  10.189 -0.0146 -0.0390 -0.0268
30975W        W34195  11.228  17.840  15.760  0.1203  0.3490 -0.1214
30976W        W34196   1.575  17.118  17.932 -0.1589 -0.1675  0.1739
30977W        W34197  10.462  15.583  14.014  0.1427  0.1565 -0.1852
30978W        W34198   9.194  16.934  10.360 -0.1617 -0.0288 -0.0332
30979W        W34199  17.711   0.917  12.172 -0.1067  0.0805 -0.1553
30980W        W34200   8.414   0.733  14.800  0.1349 -0.0869  0.2683
30981W        W34201   6.150  14.234  15.850 -0.1029  0.1174 -0.0963
30982W        W34202   7.402   2.571  15.465  0.0306  0.0911 -0.2369
30983W        W34203   3.345   5.886  11.634  0.1176  0.1620 -0.0410
30984W        W34204   7.095  10.204  12.407 -0.1997 -0.2432 -0.2703
30985W        W34205  11.888   5.826  15.454  0.2473  0.2482 -0.1103
30986W        W34206   1.329  12.782  17.908 -0.0688  0.0365 -0.2156
30987W        W34207  15.017   4.591  12.552  0.2113  0.0427  0.1248
30988W        W34208  16.831   1.120   9.627 -0.0790 -0.0943  0.0825
30989W        W34209  16.303   9.569  11.592  0.0224  0.0953 -0.2249
30990W        W34210   5.192  15.554  17.406 -0.1480  0.4506  0.2318
30991W        W34211  14.441   0.246  13.843 -0.1605 -0.0801  0.2814
30992W        W34212  11.429   6.532   1.932  0.1095  0.0024 -0.3056
30993W        W34213  14.220  17.322   0.530  0.0073  0.0296  0.1811
30994W        W34214  11.996   4.160  13.919  0.2282 -0.1970 -0.0125
30995W        W34215  16.632   1.118  12.762  0.1833  0.0411 -0.3209
30996W        W34216  13.812   4.534  11.685  0.0877 -0.1060 -0.1993
30997W        W34217   9.325   1.694  16.893 -0.0594 -0.0460 -0.1533
30998W        W34218  14.212   8.582   9.704  0.1556 -0.0107  0.1236
30999W        W34219   6.855   3.018   8.093  0.1190  0.2736  0.0683
31000W        W34220  10.295   4.876  16.170 -0.1576 -0.0054 -0.0595
31001W        W34221  11.437   6.603  17.084  0.1329  0.2316 -0.1079
31002W        W34222   0.493   3.761  16.048  0.3117 -0.1402 -0.0256
31003W        W34223  11.971   1.246   5.628 -0.0333  0.1360 -0.1501
31004W        W34224  17.282   3.969   7.846 -0.2624  0.1146  0.0711
31005W        W34225   8.478   4.170  10.095  0.0733  0.1440  0.1604
31006W        W34226  12.775  16.703  17.631 -0.0928 -0.1382  0.0745
31007W        W34227  15.253   5.328  13.514  0.1181 -0.0729 -0.2200
31008W        W34228   0.503   8.263  14.478 -0.1136 -0.0913  0.1176
31009W        W34229  15.142   2.347   5.960  0.2208 -0.1705  0.2429
31010W        W34230  14.302   1.792   3.876 -0.0408  0.0309 -0.4425
31011W        W34231   9.727   5.584  12.911  0.0961 -0.0713  0.1699
31012W        W34232   5.502   2.144  14.885 -0.2185  0.1583 -0.0189
31013W        W34233  15.767   1.490  11.995 -0.1126  0.1248  0.0983
31014W        W34234  12.022   0.433  14.294  0.3864 -0.1069 -0.1073
31015W        W34235  10.983   2.539  11.569  0.0750 -0.0536  0.0169
31016W        W34236  16.848  11.083  13.626 -0.1180  0.1700  0.4410
31017W        W34237   6.714   1.032  11.430  0.3816 -0.2401 -0.1388
31018W        W34238  10.451  15.244   7.254  0.0002  0.1724  0.2516
31019W        W34239  12.994   6.223  12.922  0.1148 -0.4043  0.0827
31020W        W34240   9.358  11.024   1.394 -0.0494 -0.3840 -0.0019
31021W        W34241  13.788  17.882  16.603 -0.3727 -0.1636  0.3691
31022W        W34242  10.779  17.484  15.639 -0.1193  0.1206  0.1418
31023W        W34243  13.280  12.097  10.950 -0.3126  0.0706 -0.2327
31024W        W34244  13.045   6.528  13.804  0.4677 -0.1476 -0.1817
31025W        W34245   9.179   6.505  14.325  0.1593  0.0359  0.0101
31026W        W34246  10.673  14.234  11.300  0.0866  0.2952  0.0260
31027W        W34247   7.959   5.772  15.489  0.1977  0.3403 -0.0012
31028W        W34248  12.849   8.768  13.598  0.1807  0.3778 -0.3803
31029W        W34249  16.175  14.443   8.420  0.0606 -0.1528 -0.0108
31030W        W34250  15.572   7.217  16.450  0.1552 -0.0448  0.2228
31031W        W34251  17.137   5.800   8.978  0.0974 -0.1499 -0.2165
31032W        W34252  15.369   7.823  13.077  0.0744 -0.3133  0.0102
31033W        W34253  12.620   0.053  13.417  0.3216  0.1157 -0.0182
31034W        W34254  12.268   1.292   8.736  0.2163  0.0862  0.0313
31035W        W34255   1.395  16.174   0.137  0.1152  0.2281  0.0337
31036W        W34256  18.091  17.664   1.375  0.0403 -0.0507  0.0042
31037W        W34257  16.943  10.713   6.386 -0.2550 -0.3172  0.0650
31038W        W34258   9.746   6.087  17.309  0.1572 -0.0450 -0.3903
31039W        W34259  14.402   5.345  10.278 -0.0861  0.1993 -0.0316
31040W        W34260   7.271   2.658  11.195  0.0464 -0.1805 -0.0146
31041W        W34261   7.654   1.444  11.690 -0.1838 -0.2380  0.3855
31042W        W34262  11.255  16.856  10.869 -0.2287 -0.0175  0.0458
31043W        W34263  13.127  18.190  10.852  0.3629 -0.2805 -0.0383
31044W        W34264   1.314   2.887  13.305  0.2546 -0.3151  0.1510
31045W        W34265  13.596  14.007   1.010 -0.1437 -0.2295 -0.1621
31046W        W34266   7.998  15.992  13.894 -0.1924 -0.4004  0.0290
31047W        W34267   9.515   5.332   9.741 -0.0944  0.0965 -0.0018
31048W        W34268   1.972   6.942   7.277  0.2965 -0.2585 -0.2711
31049W        W34269   4.328   0.452   7.347 -0.0114 -0.1657  0.1058
31050W        W34270  12.173   1.018  15.606  0.0225 -0.0413 -0.1151
31051W        W34271   8.881  14.546   5.325 -0.4810  0.1140  0.0258
31052W        W34272  15.838   3.141   4.863  0.0454 -0.1839 -0.1774
31053W        W34273  14.485   9.221  11.424  0.0436 -0.0021 -0.2916
31054W        W34274   2.676   3.091   9.774 -0.1629 -0.2972 -0.1845
31055W        W34275  12.479  18.144  15.873 -0.0598  0.0749  0.0686
31056W        W34276  10.016  12.756  13.093  0.0008 -0.3609 -0.1651
31057W        W34277  17.416  16.881  11.846 -0.0453  0.0254 -0.0559
31058W        W34278  16.031   0.563  10.051  0.0008  0.1516 -0.3376
31059W        W34279  12.290   7.476  11.427  0.3987 -0.0737  0.2664
31060W        W34280   8.230  17.934  11.674 -0.0021 -0.2368 -0.1358
31061W        W34281  17.647   3.517  17.449 -0.1188 -0.5217 -0.1815
31062W        W34282   0.051   7.864   0.161  0.1290  0.4609 -0.0717
31063W        W34283   9.808   2.642  18.090 -0.0435 -0.0608 -0.0170
31064W        W34284  18.155   6.107   9.697 -0.0949  0.0360  0.2950
31065W        W34285  18.068  12.992  13.668 -0.1048 -0.0236  0.0078
31066W        W34286  15.006  17.093  14.662 -0.2298 -0.0822 -0.0182
31067W        W34287   5.844  17.954  16.631  0.3813  0.0975  0.1903
31068W        W34288  11.621   0.850   7.278  0.0067  0.0686 -0.1699
31069W        W34289   8.263   6.548  12.953  0.3661 -0.1148 -0.3799
31070W        W34290   6.215  17.230  14.588 -0.0905  0.1426  0.1473
31071W        W34291  14.273   6.305   7.075  0.1517 -0.1458 -0.5186
31072W        W34292   4.249  13.967  12.327  0.1020 -0.1865 -0.0658
31073W        W34293  18.151   9.642  13.349  0.1776 -0.1667 -0.0213
31074W        W34294  14.892   5.514  14.355 -0.0467  0.0057 -0.1555
31075W        W34295   8.407   6.447   5.268  0.3055 -0.3281 -0.1953
31076W        W34296  15.699   4.373   1.066 -0.1126  0.2700 -0.0630
31077W        W34297  14.831   3.428  15.698  0.0351  0.4090  0.1828
31078W        W34298  13.423  15.254   8.140 -0.1438  0.3505  0.4250
31079W        W34299   3.430   3.694   9.123 -0.0715 -0.1456 -0.1659
31080W        W34300   9.060   5.122  11.372  0.0614  0.1390 -0.1465
31081W        W34301   2.225   6.428  10.924 -0.0724  0.1940  0.3955
31082W        W34302  14.252  12.021  12.986 -0.2163 -0.2444 -0.1159
31083W        W34303  13.869   7.010  10.512  0.1350  0.0502 -0.2793
31084W        W34304  12.606  15.542  13.723  0.1467  0.3161  0.2532
31085W        W34305  16.202  18.198   6.140  0.0083  0.1738  0.1639
31086W        W34306  10.462   6.742   6.478 -0.0769 -0.1022 -0.2030
31087W        W34307  12.926   5.551   5.679 -0.0670  0.1614 -0.0170
31088W        W34308  12.894   0.313   1.185 -0.0423 -0.1503 -0.0822
31089W        W34309   9.845   9.598  14.539 -0.3667  0.2383  0.1267
31090W        W34310  16.823  16.809   9.783  0.3025 -0.1931 -0.2200
31091W        W34311   8.498   0.583  14.330  0.2606 -0.1054  0.1458
31092W        W34312   9.801   3.197   1.444  0.2755  0.0538  0.0551
31093W        W34313  17.312  12.725  13.172 -0.2092 -0.0661 -0.0324
31094W        W34314  12.814  14.932  14.883  0.0850 -0.1113 -0.0236
31095W        W34315  16.627  15.201  10.717  0.0752  0.0056 -0.0193
31096W        W34316   8.143  18.260  12.050 -0.1229 -0.1481 -0.0707
31097W        W34317   7.930  13.102   8.873 -0.0723 -0.0452  0.2252
31098W        W34318  17.500  13.506  16.205  0.2450 -0.2117 -0.1613
31099W        W34319   0.545  17.037  15.939 -0.1911  0.0231 -0.2519
31100W        W34320  11.316   5.523  12.068 -0.1879 -0.1190 -0.1034
31101W        W34321   8.949   2.623   2.842  0.0471  0.0599  0.1499
31102W        W34322   0.325   2.405   2.346  0.0295  0.4527 -0.0811
31103W        W34323   4.999   3.829  12.589 -0.2382  0.2076 -0.1520
31104W        W34324   8.157  14.255   3.536  0.0740  0.0499 -0.0769
31105W        W34325  14.309   4.338   0.634 -0.2021 -0.2250  0.0667
31106W        W34326   5.906   7.391  12.199 -0.1563 -0.4455 -0.2591
31107W        W34327   7.767   2.830  14.602  0.0038 -0.3701  0.4022
31108W        W34328  16.881   2.326   1.482 -0.0105  0.3163  0.1466
31109W        W34329  11.723  17.858  12.703 -0.0170  0.0677  0.0095
31110W        W34330  14.302   2.630  16.320  0.1816 -0.0947  0.3706
31111W        W34331  14.286  17.136  10.918  0.1570 -0.5560 -0.3347
31112W        W34332  14.212  17.893   9.735 -0.0191 -0.2028  0.3173
31113W        W34333  11.165  10.241  14.625  0.2532  0.0345 -0.1712
31114W        W34334  12.706   3.553   9.194 -0.1850  0.2079 -0.0042
31115W        W34335  15.895  13.491  14.062  0.2694 -0.0763  0.0732
31116W        W34336  10.137  10.485  10.957  0.2045  0.1514  0.1675
31117W        W34337  11.097  17.958  12.940  0.0015  0.1426  0.1878
31118W        W34338  13.360   4.371  17.317  0.2090 -0.1125  0.0635
31119W        W34339  11.469   8.727   7.089 -0.3015 -0.0901  0.0771
31120W        W34340   6.208   4.855  15.828  0.1457 -0.0933  0.3143
31121W        W34341  13.167   2.952   7.528  0.0840 -0.1296 -0.0308
31122W        W34342  10.110   1.809  15.196  0.1157  0.0886  0.2400
31123W        W34343   6.937  13.199   3.519 -0.1152  0.4182  0.0666
31124W        W34344   5.452  11.627   4.454 -0.1875 -0.2598 -0.0035
31125W        W34345   8.632  13.521  15.348 -0.1584  0.0876 -0.1196
31126W        W34346  13.236  15.818  14.842 -0.0829 -0.0716  0.1151
31127W        W34347  11.960  16.525   8.185 -0.0097  0.2029  0.3631
31128W        W34348  13.833  17.942   6.568  0.0874  0.1194 -0.1396
31129W        W34349  11.596   1.661  11.213 -0.1312  0.2735 -0.2072
31130W        W34350   4.224   3.606   0.852 -0.1267  0.2646 -0.0002
31131W        W34351   9.660  15.727  12.849  0.1924 -0.1278 -0.0493
31132W        W34352   8.233   0.554   6.134  0.1613  0.3174  0.1759
31133W        W34353  12.185  11.742  12.179 -0.2663  0.3204 -0.0170
31134W        W34354  13.678   2.509   2.078  0.2345  0.0121 -0.0637
31135W        W34355  14.013   4.376   7.737 -0.3771 -0.1862 -0.0699
31136W        W34356   7.846   4.175   1.693  0.0230  0.2121  0.2762
31137W        W34357  16.331   6.199   8.172 -0.1005  0.0014  0.1769
31138W        W34358  16.248  16.668   5.955  0.0839  0.3185 -0.0237
31139W        W34359  14.503   2.046   2.320  0.2827  0.0152 -0.0862
31140W        W34360   9.295   2.406   6.510  0.0529 -0.2201 -0.0357
31141W        W34361  10.455   0.935  16.078  0.2854  0.4980  0.1005
31142W        W34362  16.596   1.825  14.008  0.0304 -0.1940 -0.0047
31143W        W34363   9.244   0.331   7.873 -0.2569 -0.1319 -0.1342
31144W        W34364  12.130   7.929   0.141  0.1826 -0.1510  0.4447
31145W        W34365  12.620  17.809   1.405 -0.1562 -0.3477 -0.0451
31146W        W34366  12.509   9.520  16.950  0.0343 -0.1490 -0.1072
31147W        W34367  13.637   4.319  15.687  0.1064  0.0420  0.1585
31148W        W34368   7.333   5.935   8.521  0.0021  0.3421 -0.0732
31149W        W34369  11.490  15.256   4.713 -0.4376 -0.0299 -0.0036
31150W        W34370  15.746   0.333  14.736  0.2124  0.2267  0.0502
31151W        W34371   7.217   0.201  15.273  0.0843 -0.0215  0.0151
31152W        W34372   4.001   9.568  12.157  0.3383 -0.2729  0.0773
31153W        W34373   7.302  11.505   1.706 -0.1631 -0.2020 -0.0386
31154W        W34374  11.239   0.308  10.792  0.2234 -0.0295  0.1950
31155W        W34375  16.267  11.836  16.283  0.2619 -0.1627 -0.0966
31156W        W34376   6.167   5.416   4.333  0.1938 -0.1603 -0.0559
31157W        W34377  15.176   7.804  17.063  0.1922  0.0530 -0.1809
31158W        W34378  13.467  15.923   3.876 -0.0675  0.1062 -0.0753
31159W        W34379   9.718   2.558   5.531  0.0209  0.2125 -0.2228
31160W        W34380   6.674  14.700  10.055  0.2160  0.1236  0.1986
31161W        W34381   2.935   4.218   5.802  0.0836 -0.1696 -0.0263
31162W        W34382  14.847   1.278  16.383 -0.0423 -0.0827 -0.3221
31163W        W34383   8.285   0.088   0.341 -0.2378  0.1265  0.0907
31164W        W34384  10.910  10.511  14.161  0.0343 -0.0223 -0.1342
31165W        W34385   9.594   2.828  13.653 -0.0222 -0.2601 -0.0328
31166W        W34386  16.284  15.399  18.051  0.1834  0.0860 -0.1252
31167W        W34387   0.312   5.645   1.337  0.1121 -0.2781 -0.0232
31168W        W34388  16.333   4.948  12.549  0.0590  0.1153 -0.1026
31169W        W34389  10.097   8.343  14.250 -0.3175  0.1545 -0.2312
31170W        W34390  16.117   6.956  16.445 -0.0211  0.3073 -0.0621
31171W        W34391   5.854   7.267  16.241 -0.4037  0.1103  0.0523
31172W        W34392  15.944  17.803  15.896 -0.0491  0.0077  0.0427
31173W        W34393  11.798   3.947  13.419  0.2772  0.1030  0.2384
31174W        W34394  18.005   5.147  13.381 -0.0941  0.1571  0.1267
31175W        W34395   7.822   5.484   3.061 -0.0897  0.0726  0.0809
31176W        W34396  14.363   2.072  18.089 -0.0717  0.1096  0.1462
31177W        W34397  18.151   8.172   0.887  0.0117  0.0951  0.0409
31178W        W34398  10.854  14.437  14.944 -0.1291  0.0278 -0.0111
31179W        W34399  12.435   4.687  11.434  0.1068  0.1609  0.1095
31180W        W34400   1.531  11.021   1.568 -0.0669 -0.0081 -0.0559
31181W        W34401  11.168  16.281   3.956 -0.0700 -0.0774 -0.0631
31182W        W34402  12.294   5.686   4.883  0.3909  0.0542 -0.0840
31183W        W34403  17.648  17.472  10.543 -0.3212  0.1311 -0.1889
31184W        W34404   8.598  16.025  18.163 -0.0944 -0.1167 -0.2774
31185W        W34405  11.552  12.828  12.786 -0.3657  0.1044 -0.2081
31186W        W34406   3.212   4.270  14.025  0.3143 -0.0624 -0.0526
31187W        W34407  13.446   6.646  14.671  0.1197 -0.2611 -0.2658
31188W        W34408  10.323   2.704   9.034 -0.1810 -0.1591 -0.0630
31189W        W34409  16.392   3.737  14.905 -0.0455 -0.2072  0.0514
31190W        W34410  14.774  11.610  14.216  0.0500  0.2945 -0.1576
31191W        W34411  17.267   8.193  16.204 -0.2078 -0.3431 -0.1562
31192W        W34412  14.469   7.420  12.101  0.0230 -0.1077  0.3949
31193W        W34413  11.723   4.773  12.574  0.0885 -0.0544 -0.0235
31194W        W34414  13.259  13.415  15.421 -0.2789 -0.0828 -0.1590
31195W        W34415  13.179   2.325  11.917  0.2771 -0.0459 -0.0366
31196W        W34416  18.101  18.237  10.110 -0.2552 -0.0389 -0.0202
31197W        W34417   6.729   5.388  15.462 -0.0581  0.0494  0.0328
31198W        W34418   8.387   0.258  14.893  0.0551 -0.1347 -0.1891
31199W        W34419  13.756   0.976  17.869 -0.1425  0.2701 -0.1801
31200W        W34420  12.393   2.269  16.447 -0.1791  0.0706  0.1346
31201W        W34421  11.431   0.163   0.880 -0.0809  0.3010 -0.2732
31202W        W34422  12.796   5.962  14.176  0.1467 -0.1982  0.1824
31203W        W34423  15.794   0.896  16.246  0.3350 -0.0287  0.3089
31204W        W34424  10.843   0.949  13.525  0.1867 -0.2982 -0.3511
31205W        W34425  11.244   8.787  12.027  0.1164 -0.5240  0.0358
31206W        W34426  13.845   2.924  16.509 -0.1262  0.0908 -0.4806
31207W        W34427  12.024   4.145   4.688  0.1065  0.1070  0.2919
31208W        W34428  14.642  10.441  17.479 -0.1849  0.1175  0.1926
31209W        W34429   8.957   4.137  10.932 -0.0801  0.2804 -0.2535
31210W        W34430  10.612  17.183  16.425  0.1665  0.0688 -0.1766
31211W        W34431  11.109   7.117  16.243 -0.4597 -0.1121 -0.3072
31212W        W34432   1.195   4.247  13.495  0.2962 -0.0812  0.0143
31213W        W34433  15.329   3.344   2.541  0.0934  0.0085  0.1974
31214W        W34434  13.447  14.502  17.392 -0.0025 -0.1282 -0.0972
31215W        W34435   8.931   3.679  12.844 -0.1088 -0.1874 -0.0551
31216W        W34436  18.078   9.211  13.772  0.0533 -0.2058  0.4163
31217W        W34437  17.276   2.878   0.409 -0.0458  0.2161  0.0528
31218W        W34438  11.056  11.873  12.874 -0.1897  0.1351  0.0999
31219W        W34439   9.600   5.065  15.706 -0.0255  0.2276  0.2546
31220W        W34440  13.585   3.294   1.662  0.0903 -0.0159  0.1830
31221W        W34441  15.000   2.700  17.039  0.0674  0.0721 -0.0194
31222W        W34442  15.042   2.106  13.872  0.3963 -0.2463 -0.0456
31223W        W34443  11.659   2.497  14.428 -0.2520  0.1743 -0.1933
31224W        W34444   2.377  18.244   0.056  0.0355 -0.1126  0.1426
31225W        W34445   9.782   4.817  12.343  0.1153  0.0204 -0.0388
31226W        W34446  17.509  16.602  15.473  0.0393 -0.0686  0.0469
31227W        W34447  15.607  15.222  15.637  0.1414  0.1391  0.1040
31228W        W34448  16.296  16.503  17.077  0.0127 -0.1020  0.1590
31229W        W34449  10.361   3.123  17.982 -0.1271 -0.2959  0.1279
31230W        W34450  10.550   1.709   3.134  0.0344  0.2895  0.0134
31231W        W34451  16.918   1.103  14.627  0.1926  0.2483  0.0673
31232W        W34452  11.718   2.258   5.865  0.1561 -0.2431  0.0370
31233W        W34453  16.671  17.313  13.494 -0.1535 -0.5095 -0.1261
31234W        W34454  16.644  16.979  17.874  0.1742 -0.0597  0.4138
31235W        W34455  11.880   2.811   1.308 -0.1238 -0.3784  0.0115
31236W        W34456  11.275   8.215   0.339 -0.0831 -0.0329 -0.0568
31237W        W34457   5.613   3.123   0.212  0.1015 -0.2183  0.3599
31238W        W34458  10.433   0.310   1.461 -0.0862  0.2162 -0.1631
31239W        W34459  13.726   0.199  15.965 -0.2858 -0.1059 -0.0587
31240W        W34460   8.271   6.005  15.044 -0.0491  0.2011  0.0739
31241W        W34461   8.730   1.562  14.901 -0.0540 -0.1388 -0.1589
31242W        W34462  15.469  18.083   3.841 -0.1785 -0.3195  0.0107
31243W        W34463  11.195   4.157   2.219  0.0744  0.0045  0.0279
31244W        W34464  12.084   2.047  16.804 -0.0338  0.2972 -0.0534
31245W        W34465  12.603  16.959   1.249  0.1141  0.0232 -0.0568
31246W        W34466   8.971   3.981   0.607  0.0479  0.1454 -0.2086
31247W        W34467  12.114  16.897  15.791 -0.0107  0.0055 -0.0521
31248W        W34468  10.878   9.597  13.828  0.1678 -0.0771  0.1655
31249W        W34469  13.437   5.828   0.087 -0.0499 -0.2545  0.3104
31250W        W34470  14.560   2.952   2.943 -0.1387  0.3970  0.4204
31251W        W34471  12.122   4.364  15.711 -0.1401 -0.0871 -0.3747
31252W        W34472   3.665  17.985  12.189 -0.0359 -0.3581 -0.1230
31253W        W34473   7.738   3.432  13.125  0.1726 -0.2635  0.0007
31254W        W34474  14.353  14.671   5.117 -0.0589 -0.2445 -0.4538
31255W        W34475  12.139   6.256  14.480 -0.0397 -0.2262 -0.2925
31256W        W34476   0.832   1.025  11.757 -0.0079 -0.2550 -0.1994
31257W        W34477  11.602  17.499  12.287  0.2596 -0.1227  0.2669
31258W        W34478  10.637   2.737  15.068 -0.1985 -0.1046 -0.1060
31259W        W34479  16.820   3.763  16.322 -0.0576  0.2634  0.0962
31260W        W34480   9.853  17.126  12.284  0.0776  0.1128 -0.1409
31261W        W34481  10.028  16.960  14.559 -0.0341  0.0064  0.2459
31262W        W34482  10.699   2.765  16.492  0.0915  0.1123 -0.1487
31263W        W34483  17.551   8.895  16.713 -0.1872  0.2352 -0.0312
31264W        W34484   6.284   2.822  15.972  0.0798 -0.3386  0.0222
31265W        W34485   0.423  16.210   0.040  0.0705 -0.0533  0.2114
31266W        W34486  13.340  18.135   8.475 -0.1661 -0.0598  0.1563
31267W        W34487  11.144   5.149  15.917 -0.0086  0.4161 -0.0107
31268W        W34488   0.414   8.665  14.901 -0.2446 -0.0728  0.0306
31269W        W34489  13.856  11.459   2.195  0.3240 -0.2663 -0.2719
31270W        W34490  16.715  17.880   3.096 -0.4047 -0.2288 -0.0614
31271W        W34491   0.819  11.171   0.482  0.0353 -0.5408  0.0101
31272W        W34492  13.935   5.091  17.844 -0.1677 -0.0569  0.2745
31273W        W34493  11.712   3.343   2.607  0.1967 -0.1551  0.0773
31274W        W34494  14.195  17.521   0.084  0.2456 -0.0078 -0.0101
31275W        W34495  12.969   2.846   4.595 -0.1306  0.1062  0.1506
31276W        W34496  11.145  12.139  16.984 -0.0408 -0.2418 -0.2658
31277W        W34497  11.763  12.528  12.454  0.1111 -0.1822 -0.1328
31278W        W34498  12.377   9.291  16.027 -0.2827  0.1691  0.0306
31279W        W34499   4.495   4.095   8.666  0.1047 -0.3564 -0.1710
31280W        W34500   7.694  17.117   3.294  0.1914 -0.1588  0.0034
31281W        W34501   3.469   6.583  11.302 -0.1423 -0.1042 -0.2108
31282W        W34502  14.297   8.422  12.491  0.3837 -0.0021 -0.1986
31283W        W34503  11.537   6.171  12.234 -0.2562  0.2260  0.0125
31284W        W34504  11.734   1.852  15.969 -0.0952 -0.0906 -0.0577
31285W        W34505  14.403   9.484  12.311 -0.2156 -0.0366 -0.1978
31286W        W34506   3.832  15.728  17.411 -0.1513  0.1923 -0.2645
31287W        W34507  14.131   2.002   4.574  0.1216  0.0333  0.0474
31288W        W34508  12.897   7.652  13.757 -0.1491  0.0605  0.2072
31289W        W34509  17.829  16.247   9.218 -0.1277  0.0091 -0.0511
31290W        W34510  12.721   6.261   1.380  0.0637  0.2880  0.2096
31291W        W34511  10.982   8.431   2.841 -0.0769 -0.0453  0.0754
31292W        W34512   5.959   6.153  14.890  0.1644 -0.1047  0.1250
31293W        W34513  17.129  17.052   6.908 -0.1880 -0.1376  0.0628
31294W        W34514   6.367  12.539   0.633  0.1448 -0.0520  0.0286
31295W        W34515   4.236   3.381  14.296  0.0596 -0.0166 -0.0717
31296W        W34516   6.484   1.512   8.611  0.1101 -0.0767 -0.2719
31297W        W34517  16.125   0.188   3.589  0.3421 -0.0789  0.0447
31298W        W34518   7.103  11.095   3.330 -0.0538  0.0511 -0.1317
31299W        W34519  15.183   0.062  15.953  0.0154  0.1062 -0.0627
31300W        W34520   3.440  14.369  14.522 -0.0102 -0.1572 -0.0050
31301W        W34521  16.086  10.693   5.034 -0.3003  0.3314 -0.2312
31302W        W34522  12.017   3.903  15.730 -0.3288 -0.0165 -0.0069
31303W        W34523  16.061  10.626   1.868 -0.0285  0.2025 -0.2171
31304W        W34524  13.183   3.942   1.295  0.1663 -0.1806 -0.0668
31305W        W34525  11.357   2.413  16.081 -0.0024  0.1006 -0.0763
31306W        W34526  11.995  16.571  17.490 -0.0167 -0.2011  0.2073
31307W        W34527   9.957  13.872  17.855 -0.0634 -0.1580 -0.2794
31308W        W34528   8.706  17.803  12.582  0.0973  0.2615  0.2023
31309W        W34529  13.896  15.257  16.339 -0.0788 -0.2197 -0.0783
31310W        W34530   0.819   7.362  17.005  0.1295 -0.0041  0.2125
31311W        W34531   3.443   4.387   8.006 -0.0846 -0.1551  0.0094
31312W        W34532  12.837   1.419  17.389 -0.0002  0.2765  0.1187
31313W        W34533  12.619   7.174  13.616 -0.0723  0.0184 -0.2192
31314W        W34534  10.211   2.311   0.002 -0.3492  0.0205  0.0305
31315W        W34535   7.613  17.408  17.378 -0.1910  0.0091 -0.1162
31316W        W34536  14.992  15.007  13.847 -0.0210 -0.1959  0.0356
31317W        W34537  11.419  17.084  14.716  0.1434 -0.0987  0.3384
31318W        W34538   7.785   9.014  10.873  0.0522 -0.2004 -0.1768
31319W        W34539   7.183  14.863  12.537  0.2251 -0.1045  0.1596
31320W        W34540   5.878   0.177  16.434  0.2612  0.1674 -0.0625
31321W        W34541   0.019   8.414  14.334 -0.1645  0.2880 -0.1097
31322W        W34542  12.959   4.619  14.525  0.2365  0.3753 -0.0857
31323W        W34543  13.112   2.655  14.824 -0.2747 -0.0986  0.1453
31324W        W34544   8.458   4.318   4.662  0.0413 -0.0098 -0.1776
31325W        W34545  12.243  18.089  17.312  0.0771  0.1939  0.0274
31326W        W34546  14.830  17.678  16.576 -0.1810  0.0938 -0.0103
31327W        W34547   8.478   0.999   3.622 -0.3260 -0.0346 -0.1226
31328W        W34548  14.324   1.923   6.334  0.2416  0.2177  0.3307
31329W        W34549  14.681   8.110  17.682 -0.0301  0.1953  0.1771
31330W        W34550  12.075   3.690  13.006  0.2280  0.1824 -0.0208
31331W        W34551  11.963   4.946  12.141  0.1782  0.0608  0.1359
31332W        W34552  11.902   9.617  11.124 -0.0349 -0.3762  0.1514
31333W        W34553   8.137   0.663  10.830 -0.1360  0.1994  0.2032
31334W        W34554  13.509   1.966  17.939 -0.0581  0.1208 -0.0223
31335W        W34555  16.002   9.611  16.342 -0.2231  0.2508  0.1758
31336W        W34556   8.956  18.068  13.887 -0.1769 -0.0464  0.1219
31337W        W34557   3.042  15.215  12.595 -0.0350  0.0369  0.3103
31338W        W34558  14.396  13.680   2.853  0.0544  0.0164 -0.1316
31339W        W34559  15.333   0.895  13.937  0.2242 -0.0675 -0.0458
31340W        W34560  11.000  11.944   4.551 -0.0610  0.0327  0.1654
31341W        W34561  12.160  17.160   1.051 -0.0469  0.1317 -0.1143
31342W        W34562  12.050  13.568   1.143  0.0838 -0.1992  0.2035
31343W        W34563  16.748   1.185  18.216  0.2567 -0.2870 -0.1782
31344W        W34564  15.461   5.082  13.123 -0.0214 -0.1006 -0.1670
31345W        W34565  11.117  12.801  17.772 -0.0174 -0.0489  0.1276
31346W        W34566   6.964   0.948  12.877 -0.0999 -0.2605 -0.2201
31347W        W34567  10.590   8.693  14.371 -0.0229  0.1301  0.2880
31348W        W34568   4.606  17.388   9.378 -0.1932  0.2931  0.1547
31349W        W34569   8.987   6.269  16.090  0.2853  0.3148 -0.1431
31350W        W34570   1.020  11.430  12.099 -0.2721  0.0317  0.1545
31351W        W34571  15.767   6.413   3.572  0.1332 -0.0107 -0.1050
31352W        W34572  12.591   3.563   2.509 -0.0961 -0.0186 -0.0874
31353W        W34573  15.710   3.724  11.411 -0.1622  0.1260  0.0718
31354W        W34574  13.023   7.520  15.299 -0.2034 -0.1230 -0.0143
31355W        W34575  11.882   2.481  16.997 -0.2558  0.0784 -0.1428
31356W        W34576  12.649   1.734  18.180 -0.0058  0.1328  0.1539
31357W        W34577   7.511  13.427  15.783  0.0582  0.2029 -0.2889
31358W        W34578   7.135   5.996  10.713 -0.1165 -0.0330 -0.1724
31359W        W34579  12.564   1.832  15.664  0.1317 -0.1495 -0.1529
31360W        W34580  12.874  10.946   3.178 -0.0464  0.1048  0.0242
31361W        W34581  11.211   4.398  15.461  0.3400 -0.3994  0.1313
31362W        W34582  11.617  16.551  15.836 -0.3180  0.0600  0.1127
31363W        W34583   9.570  18.121  17.867  0.2225 -0.0404  0.0175
31364W        W34584  17.267   5.124  15.887  0.1242  0.3539 -0.1431
31365W        W34585  16.821   2.196  11.410  0.1823 -0.1437  0.2101
31366W        W34586  14.950   9.113  11.683 -0.0241 -0.2818 -0.1375
31367W        W34587  13.766   4.152   1.846 -0.2304  0.0335 -0.3327
31368W        W34588   3.250   5.234   0.679  0.1637 -0.0275 -0.0255
31369W        W34589   0.187   0.131  14.155 -0.2807 -0.3240 -0.1446
31370W        W34590   8.175  14.976  16.870 -0.1478  0.1617 -0.0019
31371W        W34591  10.214   2.894   1.494  0.2666  0.2256 -0.0585
31372W        W34592  15.308   1.641   1.051  0.2140 -0.0632  0.3567
31373W        W34593  10.610  12.850  15.586  0.0016 -0.1150  0.0779
31374W        W34594  11.695   5.082  13.190  0.2243  0.3276  0.2839
31375W        W34595   7.571  17.949  12.662  0.2262  0.1830 -0.1163
31376W        W34596  14.576   5.844  11.188 -0.0019  0.1784  0.1746
31377W        W34597  18.132   8.890  14.643 -0.1235  0.4389  0.1386
31378W        W34598  15.722   0.054  17.687  0.2731 -0.1785 -0.1155
31379W        W34599  13.112   4.731  10.479  0.3361 -0.0370 -0.0661
31380W        W34600  13.423  16.317   2.684  0.0470 -0.3211 -0.1785
31381W        W34601   5.442   4.225   1.250  0.2613 -0.0492  0.0182
31382W        W34602   9.262   8.894   0.897 -0.2173  0.0735 -0.2330
31383W        W34603  10.444   2.397   0.439  0.1192 -0.1408  0.0943
31384W        W34604  14.517   4.889  10.251  0.3423 -0.2589 -0.0801
31385W        W34605  14.547  14.707   6.596  0.2246 -0.3133  0.0562
31386W        W34606   6.274   3.599   9.505  0.0143  0.0701  0.0747
31387W        W34607   9.034   0.781  14.282 -0.0516 -0.0505  0.2134
31388W        W34608   9.201   0.672   5.091  0.1446 -0.3682  0.0423
31389W        W34609   3.066   6.105  15.189  0.0369 -0.0853 -0.0232
31390W        W34610  10.063  16.357  12.605 -0.4314  0.1179  0.1761
31391W        W34611   9.510   7.307  15.176 -0.0140  0.0167  0.2759
31392W        W34612  11.781   0.005  14.525  0.0216  0.0267  0.2833
31393W        W34613   4.881   7.145   2.715  0.0374 -0.0405  0.0166
31394W        W34614  16.196  15.598   1.980 -0.0632  0.0052 -0.1234
31395W        W34615  13.137   2.174   0.193  0.0336 -0.0838  0.2192
31396W        W34616  16.063   5.725  13.737 -0.0853  0.0237  0.1098
31397W        W34617  16.190  16.877   9.970  0.3047  0.0161 -0.2017
31398W        W34618   8.197  15.179   7.903 -0.4775  0.1997 -0.1490
31399W        W34619  12.077   3.278  16.005  0.0885  0.0648  0.1249
31400W        W34620   7.093   0.809   9.673  0.1823  0.0956 -0.0611
31401W        W34621   9.932  17.229  16.847  0.0591 -0.2524  0.1234
31402W        W34622  14.736  16.450   4.121 -0.1153 -0.2425  0.0292
31403W        W34623  14.359   1.592   5.896 -0.1496 -0.3712  0.0867
31404W        W34624   7.213  15.293  15.941 -0.0736 -0.0230  0.0633
31405W        W34625  15.996   1.948  15.925  0.0937  0.2988 -0.2109
31406W        W34626  14.333   5.624  13.771  0.0893  0.1754  0.0594
31407W        W34627   9.365  14.687   3.755  0.2037 -0.1485  0.2653
31408W        W34628  11.578  11.683   3.981 -0.1146  0.0172 -0.0993
31409W        W34629  15.992  16.284   4.075 -0.0914 -0.0871 -0.0310
31410W        W34630  12.461   3.959  16.733  0.2676  0.0117 -0.0117
31411W        W34631  14.934   3.362  18.103 -0.0841  0.0954 -0.1655
31412W        W34632  15.878   3.968   8.141 -0.2817 -0.2200  0.1896
31413W        W34633   8.561   4.886  15.302  0.0595  0.1293 -0.3197
31414W        W34634   7.745   1.615  17.863 -0.1096 -0.0197  0.1781
31415W        W34635  14.268   3.113   2.231 -0.1658 -0.3979 -0.2452
31416W        W34636  12.993  15.036   3.059 -0.2479  0.0587  0.0106
31417W        W34637   9.876   5.088  11.777 -0.2103 -0.0528 -0.2853
31418W        W34638   1.035  17.460   0.759 -0.1589 -0.1832 -0.2154
31419W        W34639  16.813   6.667  17.884  0.2016 -0.0714 -0.2958
31420W        W34640  13.452   5.418   3.449 -0.0178 -0.0043  0.1740
31421W        W34641  11.948   4.940   3.064 -0.0123  0.2896 -0.0262
31422W        W34642   9.899  11.056  16.045 -0.0137  0.1207  0.0914
31423W        W34643  18.176   6.852  13.377 -0.0143 -0.1757  0.0801
31424W        W34644  11.322   0.894  16.267  0.0389  0.0173 -0.0982
31425W        W34645  13.581   6.195   4.627  0.0033 -0.5014 -0.0374
31426W        W34646  10.281  15.170   8.128 -0.0495  0.1879  0.0653
31427W        W34647  10.923  15.157  11.173 -0.0518 -0.0046 -0.0895
31428W        W34648  10.301   9.439   5.689 -0.2498  0.0790 -0.1960
31429W        W34649  15.649   7.264  15.598 -0.0498  0.0762 -0.0665
31430W        W34650  11.308  16.044  17.649  0.0306 -0.0187  0.2675
31431W        W34651  12.888   5.095  15.403  0.2859  0.0370  0.2031
31432W        W34652  12.954   2.147   8.822 -0.0524  0.3365  0.0750
31433W        W34653  12.159   5.087  17.590  0.1810  0.0363 -0.0780
31434W        W34654   1.356   5.911   6.537  0.0794  0.3456 -0.2309
31435W        W34655   9.231   2.283   3.708  0.0949  0.1616 -0.5360
31436W        W34656   7.340   1.166  16.919  0.0414  0.0681 -0.0870
31437W        W34657  11.628   1.995   6.355  0.0778  0.2158  0.1412
31438W        W34658  13.737   2.502  14.078 -0.1087  0.0065 -0.2124
31439W        W34659  11.910  15.866  14.396 -0.1810  0.0806 -0.2733
31440W        W34660   4.453   8.619  16.010  0.1697  0.4134  0.1326
31441W        W34661  13.036   2.013   9.721 -0.2827  0.0584  0.0687
31442W        W34662  15.366  17.593   4.057 -0.2030 -0.1692 -0.1887
31443W        W34663  16.113   7.331   0.262 -0.2334 -0.0065  0.0205
31444W        W34664  17.083   6.674   1.711  0.1158 -0.0325  0.2375
31445W        W34665   3.449   7.348   9.882  0.1181 -0.5107 -0.0486
31446W        W34666  10.273   2.314  13.722 -0.0009  0.2446 -0.2444
31447W        W34667  13.786  18.084   0.631  0.0522 -0.0873  0.2663
31448W        W34668   3.865  16.470  14.161  0.1662  0.1683  0.0731
31449W        W34669  14.173   5.497  11.621  0.0590 -0.4293 -0.3609
31450W        W34670  12.889   5.624   0.622 -0.0651  0.0676  0.3365
31451W        W34671   8.170   1.747  14.266 -0.4402  0.0557 -0.0514
31452W        W34672   6.757   0.248   7.776  0.1462  0.2127 -0.0143
31453W        W34673  14.941  17.601  14.843  0.4851 -0.1162  0.0439
31454W        W34674   7.565   6.483   0.671  0.1760  0.2858  0.1864
31455W        W34675   9.629   6.210   1.403  0.2964  0.1709 -0.0697
31456W        W34676  10.130   3.184   6.247 -0.0109 -0.0907 -0.4834
31457W        W34677   0.245  17.642  14.599 -0.0830 -0.0258 -0.5040
31458W        W34678  14.496   4.752  13.274  0.2680  0.1434 -0.0585
31459W        W34679   6.357  15.053   2.555  0.0617  0.3133 -0.2463
31460W        W34680   1.407   3.783  12.057  0.0192  0.0180  0.2457
31461W        W34681   4.731  13.972  17.682  0.0182  0.1132  0.0381
31462W        W34682  16.391  18.100  15.901 -0.0390  0.2289 -0.0029
31463W        W34683  13.059   4.582  16.563  0.0960  0.0605  0.0758
31464W        W34684  14.185   8.631  10.784  0.3281 -0.0530  0.1621
31465W        W34685  13.428   3.377  10.483  0.1900 -0.0135 -0.1447
31466W        W34686   8.425   9.876   2.819 -0.0242 -0.2384 -0.0623
31467W        W34687  10.368  17.551  14.054 -0.0897 -0.0505 -0.1753
31468W        W34688   0.807  16.856  17.658  0.2226  0.1871  0.1464
31469W        W34689   8.947   5.435  16.093  0.2152  0.1657 -0.0605
31470W        W34690   0.805  10.528  18.057  0.1702 -0.0891  0.2291
31471W        W34691  11.223  16.460   9.495  0.0361 -0.0763  0.2123
31472W        W34692   0.779  17.163   0.287 -0.0185 -0.1758 -0.1760
31473W        W34693  12.096   1.544  11.125  0.0502  0.0314 -0.0830
31474W        W34694   8.708   3.720   1.345  0.0391  0.1809 -0.1320
31475W        W34695  15.389  17.009   8.979  0.1171  0.2575  0.3848
31476W        W34696  14.820   9.320  10.094  0.2450  0.0387 -0.1773
31477W        W34697  11.510  13.943  10.503  0.0521  0.1961  0.0491
31478W        W34698   1.387   0.899  16.087  0.0528  0.0784  0.1222
31479W        W34699  15.537   8.412  15.437  0.0548 -0.0601 -0.0991
31480W        W34700  10.172   1.535  14.277 -0.2981  0.0022  0.0311
31481W        W34701   2.246  16.933  15.400  0.0253 -0.1258  0.2414
31482W        W34702   1.506   6.564   2.508  0.0207  0.0994 -0.1945
31483W        W34703  12.385   4.746  15.750  0.0531  0.0465  0.0332
31484W        W34704   9.101  17.918  17.752 -0.1216 -0.0228  0.1614
31485W        W34705   8.855  15.355   9.184 -0.2648 -0.2685 -0.2629
31486W        W34706   6.444  15.968  15.003  0.1678  0.5805 -0.1643
31487W        W34707  12.297  12.500  13.871 -0.3019 -0.0042 -0.1546
31488W        W34708   9.775   3.250  13.862  0.0699  0.4735 -0.1178
31489W        W34709   8.458  16.521  11.632 -0.1213 -0.2839  0.2095
31490W        W34710  12.234  17.642  13.335 -0.0275  0.1310 -0.0478
31491W        W34711  13.373   6.100   1.782  0.1676  0.0229 -0.1121
31492W        W34712   0.455   7.189   0.742  0.0356  0.0929  0.0794
31493W        W34713  14.226   6.492  18.059  0.0173 -0.2477 -0.1204
31494W        W34714  11.447   0.399   9.991 -0.2315  0.2481  0.1135
31495W        W34715   3.002   3.048  14.588 -0.2195 -0.1137  0.1417
31496W        W34716  12.294  10.090  17.068  0.2646 -0.2298 -0.0732
31497W        W34717  14.004   5.642   1.381 -0.3419  0.1803  0.2215
31498W        W34718  12.786  14.614   4.747  0.0108  0.0771  0.0956
31499W        W34719   8.274  13.015   9.263 -0.1522 -0.0553  0.0944
31500W        W34720  14.133  16.879   2.412 -0.2271  0.3618  0.1256
31501W        W34721   9.970   2.308  15.597 -0.1652 -0.2025  0.2164
31502W        W34722  13.314   7.082   0.514 -0.3048  0.2215 -0.1496
31503W        W34723  14.562   9.849  13.166  0.0639 -0.0048  0.2517
31504W        W34724   9.793   6.525  16.544 -0.2729  0.2309  0.1784
31505W        W34725   3.181   1.118   1.876  0.0402  0.1045  0.1745
31506W        W34726   1.654   5.017  14.765 -0.2601  0.2427 -0.1505
31507W        W34727  10.766  10.863   2.510 -0.0727 -0.0511  0.1572
31508W        W34728   0.001   2.395  15.039 -0.2913  0.2411 -0.2649
31509W        W34729   8.595  14.051  15.353  0.1952 -0.2218 -0.1804
31510W        W34730  11.880   9.157   0.798  0.0440  0.0723  0.1029
31511W        W34731  14.501   1.949   2.858 -0.2878 -0.0344 -0.1575
31512W        W34732  16.744   7.747  13.436 -0.2923 -0.0234  0.1306
31513W        W34733  14.795   9.050  16.491 -0.2701  0.0963 -0.0012
31514W        W34734   1.682   8.375  14.505 -0.0986 -0.1176  0.0557
31515W        W34735   9.160   5.455   1.852  0.2034 -0.2676 -0.1411
31516W        W34736   5.379  17.149  15.581  0.1031 -0.0278  0.0989
31517W        W34737  14.299   6.047  13.460 -0.3218 -0.3257 -0.2433
31518W        W34738   8.440  17.822   1.996  0.0589 -0.2834  0.2401
31519W        W34739   5.764   8.066  15.157  0.0244 -0.4057  0.3113
31520W        W34740  16.313  13.915   2.347 -0.1080  0.2187 -0.4013
31521W        W34741   7.808   7.624  15.202  0.2736  0.1940  0.0884
31522W        W34742  13.692  14.891  10.723  0.0655  0.3223 -0.1006
31523W        W34743  13.833   9.460  12.203 -0.2705 -0.0477 -0.1635
31524W        W34744  14.945   3.190  15.247  0.0620  0.0325  0.2915
31525W        W34745  14.482   7.509  13.102  0.0915 -0.0259 -0.0703
31526W        W34746  17.986   3.884  13.720 -0.1375 -0.1563 -0.2300
31527W        W34747   0.945  10.159  16.509  0.0113 -0.0198 -0.0942
31528W        W34748  17.375  16.710   8.203 -0.0133  0.0457 -0.0920
31529W        W34749  10.085   1.100  17.855 -0.1469 -0.1856 -0.1704
31530W        W34750  10.086   4.761  17.490 -0.2180 -0.0664 -0.2551
31531W        W34751  13.233   9.005  13.434 -0.2130  0.1579 -0.0145
31532W        W34752  16.964   5.505  11.493 -0.0742  0.1622 -0.0080
31533W        W34753  12.058   0.821  17.350 -0.0037 -0.0781  0.0196
31534W        W34754   8.629   8.701  12.794 -0.1073  0.0954  0.1396
31535W        W34755  13.659  13.347  12.043 -0.1579  0.0562 -0.0739
31536W        W34756  11.163   0.861   9.140  0.1798 -0.0807 -0.0849
31537W        W34757  13.521  17.729   2.536  0.0905  0.0714 -0.0810
31538W        W34758  15.955   8.836   2.000  0.0693 -0.1508  0.0991
31539W        W34759   3.755  17.690  17.766  0.2077 -0.0378  0.1407
31540W        W34760   1.896   7.175   7.722  0.0536 -0.0419  0.2849
31541W        W34761  14.145   7.713   5.902  0.2421 -0.1115 -0.1591
31542W        W34762  13.706   6.453   1.772  0.0078 -0.0708 -0.0426
31543W        W34763  11.986   8.426   6.405  0.2316  0.0329 -0.0086
31544W        W34764   4.117   6.638   0.628  0.0518  0.2029  0.2040
31545W        W34765  11.753   5.253   5.859 -0.1384  0.4415  0.0704
31546W        W34766  11.712  17.351   7.905  0.1340 -0.1213  0.0024
31547W        W34767  15.030   6.004   6.691 -0.2670  0.0050 -0.0651
31548W        W34768   1.401   9.409   6.010 -0.0905  0.4363 -0.0843
31549W        W34769  13.966   1.192   0.131  0.1160  0.1330 -0.2218
31550W        W34770  10.448   9.558  12.408 -0.2283 -0.0349  0.1482
31551W        W34771  18.122   9.065   9.172 -0.1246  0.0902  0.1670
31552W        W34772  17.062  10.072  11.453 -0.0018 -0.0749  0.0668
31553W        W34773  16.266   1.672   3.410 -0.0561 -0.0663 -0.2985
31554W        W34774   1.771   8.576   3.146  0.1916  0.1375  0.0712
31555W        W34775   6.842   0.864   2.061 -0.0560  0.1428  0.3431
31556W        W34776  14.056  15.349  15.718  0.0150 -0.0417  0.0320
31557W        W34777  10.068   0.521  16.283  0.1850  0.1892  0.0510
31558W        W34778   0.150  17.688   3.794  0.0139 -0.2976  0.1547
31559W        W34779  10.669   1.809   1.417 -0.0513  0.1415  0.0408
31560W        W34780   0.792   5.611   7.400  0.0745  0.1809 -0.3646
31561W        W34781  14.191   6.883   4.799 -0.3528  0.0380  0.0309
31562W        W34782   7.439   7.755  17.413 -0.1868 -0.0585  0.3095
31563W        W34783  13.821   4.283   7.282 -0.0758 -0.2426  0.1339
31564W        W34784   6.982   1.106   5.701  0.2377 -0.2696  0.3328
31565W        W34785  13.289   4.357   2.529  0.0860  0.1140 -0.0495
31566W        W34786  16.679   6.420   1.461  0.1915  0.3826  0.1697
31567W        W34787  14.250  12.221  18.053  0.2611 -0.0564  0.0676
31568W        W34788  12.519   7.429   3.552  0.0625  0.2049 -0.1035
31569W        W34789  14.124   6.049  17.790  0.0575 -0.1301  0.1590
31570W        W34790  16.174   5.728   0.786  0.0931 -0.2284  0.1542
31571W        W34791  13.149  15.310  12.119  0.0426  0.1571  0.3862
31572W        W34792  10.232   8.969   1.785 -0.0772 -0.0132  0.0962
31573W        W34793   8.502  16.696   9.042  0.3500 -0.2156  0.1076
31574W        W34794  13.720   0.948   4.174  0.1056 -0.2325  0.2552
31575W        W34795  13.074   6.396   2.297  0.0888  0.4000  0.1148
31576W        W34796   5.603   3.593  18.011 -0.1807 -0.0792  0.3775
31577W        W34797  13.631  10.632   3.418 -0.2448 -0.1806  0.1398
31578W        W34798  12.086   6.154   6.812  0.1523 -0.0740  0.0553
31579W        W34799  13.081   0.627   2.141  0.0046  0.1102 -0.2215
31580W        W34800  14.800  11.988   4.142 -0.0974  0.2591 -0.1267
31581W        W34801  11.374   8.027   9.617  0.3211 -0.0434 -0.1114
31582W        W34802  14.767   2.746  15.454 -0.2392 -0.1602 -0.1326
31583W        W34803  13.275   1.539   4.292 -0.1390 -0.1228 -0.0003
31584W        W34804  11.810  17.175   5.451  0.1676  0.1747 -0.0589
31585W        W34805  14.391  18.076   1.555 -0.1905  0.4529  0.0894
31586W        W34806  11.573   1.958  17.833  0.2419  0.0574  0.0176
31587W        W34807   7.890   2.756  17.224  0.1320  0.1973  0.1615
31588W        W34808  12.156   0.388   2.478 -0.3299 -0.0107  0.1584
31589W        W34809  13.350   3.470   3.628 -0.0373  0.0346 -0.3313
31590W        W34810  12.671   7.279   2.233 -0.1155 -0.1212 -0.1602
31591W        W34811  10.271  11.602  17.227 -0.2603 -0.2034  0.0636
31592W        W34812  13.259   6.126   2.702 -0.1632 -0.0048  0.1730
31593W        W34813   7.609  16.701  15.902  0.1483  0.0185  0.1309
31594W        W34814   9.608  11.514  16.234 -0.0575  0.3108  0.0921
31595W        W34815  16.240   8.084  17.135  0.1448 -0.2382 -0.0042
31596W        W34816  18.000   7.445   1.562 -0.0835  0.1411 -0.0605
31597W        W34817   8.861  11.774   8.289  0.1549 -0.1015  0.0512
31598W        W34818  13.765   7.677  16.489 -0.0842 -0.1533 -0.0554
31599W        W34819   9.247  10.052  12.921  0.4151  0.1245 -0.0286
31600W        W34820   9.149  15.654   5.516  0.2708 -0.1336 -0.0715
31601W        W34821   8.581   9.397   2.786 -0.2970 -0.4248  0.0826
31602W        W34822   8.188   7.629  16.882 -0.2133 -0.1091 -0.0635
31603W        W34823   9.328   0.656   6.127  0.2323  0.0830  0.1844
31604W        W34824  13.266   1.076   2.265 -0.0578  0.0628 -0.3051
31605W        W34825   8.349   9.432  14.493  0.0721  0.2053  0.1444
31606W        W34826  12.223   8.447  16.631 -0.0463  0.0373 -0.0378
31607W        W34827  14.652   9.480   4.630 -0.0082  0.0731  0.0432
31608W        W34828  15.920   3.843   2.690  0.2277  0.3828  0.4769
31609W        W34829  11.994   3.988   7.157 -0.0834  0.1562 -0.0623
31610W        W34830   7.292   8.910   0.022 -0.1383 -0.0029 -0.0258
31611W        W34831   5.062   7.374   8.169  0.1710  0.1127 -0.0118
31612W        W34832  11.156   7.658  12.897 -0.1707  0.0018  0.0034
31613W        W34833   0.863   7.672   2.429  0.1667  0.2069 -0.2894
31614W        W34834  13.113  16.901   1.164 -0.3046 -0.1282 -0.2965
31615W        W34835   9.046   6.889   9.792  0.2342  0.3620 -0.1890
31616W        W34836   0.412   5.166   5.137  0.3801  0.4291 -0.2823
31617W        W34837  15.581   1.351   5.292 -0.2320 -0.0563 -0.0696
31618W        W34838  11.967   5.664   3.558  0.0045 -0.0757  0.1359
31619W        W34839   7.648   2.277  11.102 -0.2305  0.3729  0.0557
31620W        W34840   8.878   8.561   5.222  0.1747  0.0009 -0.0606
31621W        W34841  13.263   4.384   7.936  0.1286 -0.0749 -0.0426
31622W        W34842  13.283  15.955   0.930  0.1362  0.1874  0.1741
31623W        W34843   0.218   2.618   3.280  0.2678 -0.0090 -0.0093
31624W        W34844  10.442  17.958  18.073  0.1761  0.1349  0.0896
31625W        W34845  14.912   3.621   6.306 -0.1504  0.2762 -0.0641
31626W        W34846   8.014   3.880   3.808 -0.0733  0.3720 -0.1603
31627W        W34847   9.012   5.840   3.424 -0.2421 -0.0802  0.3185
31628W        W34848  10.548   5.759  14.105 -0.5182  0.0923 -0.1110
31629W        W34849  16.555  11.119   4.489  0.3211 -0.1115  0.2409
31630W        W34850  16.216   2.910   3.724  0.2398  0.2020 -0.0910
31631W        W34851  12.413  18.261   0.412 -0.3600 -0.0343 -0.0077
31632W        W34852  11.633   4.024   3.079  0.0225  0.0920  0.2030
31633W        W34853   0.936   6.518   2.680 -0.1267  0.1170  0.1212
31634W        W34854  13.627  17.579   1.256 -0.1247  0.0753 -0.0084
31635W        W34855  16.309   9.968  17.594 -0.0385  0.0636  0.0132
31636W        W34856   7.625  16.711   9.133 -0.1441  0.2000 -0.1034
31637W        W34857  10.243   4.229   6.317 -0.0975 -0.1687 -0.1948
31638W        W34858  14.393   8.278   3.434 -0.1691 -0.1257 -0.0420
31639W        W34859  11.312  10.073   4.702  0.1605 -0.3476 -0.0756
31640W        W34860  11.534   4.738  14.478  0.0545 -0.0172  0.3328
31641W        W34861  14.184   7.755  16.743  0.0710 -0.1291  0.1428
31642W        W34862  16.315   9.007  10.901 -0.0345 -0.1752  0.1243
31643W        W34863   0.636  12.577   5.441 -0.1631  0.0576  0.0281
31644W        W34864  10.272  14.700  10.513  0.0108 -0.2201 -0.1134
31645W        W34865   1.673   7.354   6.475 -0.0004  0.2128 -0.3031
31646W        W34866  15.277   6.498  17.981 -0.2790  0.2754  0.0897
31647W        W34867  12.427  15.777   8.634  0.0639 -0.2072  0.1505
31648W        W34868  11.147   5.967   1.432 -0.0882 -0.1118 -0.2209
31649W        W34869  14.518   5.962  16.602  0.1235  0.0184 -0.0062
31650W        W34870  13.073   5.261   0.278  0.2391 -0.0795 -0.0819
31651W        W34871  13.996  10.472   0.013 -0.2136  0.2490 -0.2107
31652W        W34872  12.416   6.320   0.041 -0.0121 -0.0318 -0.3663
31653W        W34873  13.256   5.514   9.195  0.1340 -0.1519  0.0413
31654W        W34874   0.254   7.046   2.845  0.1294 -0.1724  0.0129
31655W        W34875  17.214   3.620   0.324  0.3356  0.0399 -0.1328
31656W        W34876   5.307  14.442  14.192  0.1172  0.0801  0.2267
31657W        W34877   1.702  13.545  15.459  0.1235  0.2359  0.1788
31658W        W34878  12.530  17.198  13.813  0.3578 -0.1171 -0.0500
31659W        W34879  10.479   5.903  11.844  0.2103 -0.0950  0.0828
31660W        W34880  14.459  17.502  13.141  0.3170 -0.2732  0.0906
31661W        W34881  13.558  14.417  15.887  0.1633 -0.1123 -0.2030
31662W        W34882  10.735   4.336   3.285 -0.2226 -0.1983 -0.1482
31663W        W34883   5.740   8.526  13.188 -0.1422 -0.0790 -0.1317
31664W        W34884  13.709   2.017   2.255 -0.0663 -0.2081 -0.2347
31665W        W34885  13.633   6.603   7.407  0.2700  0.0907 -0.0076
31666W        W34886  15.512   7.879   1.805  0.0735 -0.2077 -0.0505
31667W        W34887  16.519  11.354   2.187 -0.0027 -0.2244 -0.1583
31668W        W34888  16.211   4.666   3.148 -0.1103  0.1978 -0.0118
31669W        W34889  16.280   7.738  18.035  0.3429 -0.1238 -0.0510
31670W        W34890  16.058   3.829   2.172  0.0588  0.1219 -0.3392
31671W        W34891   7.491   6.283   6.205  0.1906 -0.2459 -0.3482
31672W        W34892  10.111   5.569  10.461 -0.0064 -0.0542  0.0238
31673W        W34893   1.168   2.517   2.609 -0.2853  0.0732 -0.1220
31674W        W34894   0.563   9.115   8.055  0.0023  0.0074  0.1327
31675W        W34895  12.542   3.902   9.556 -0.1650  0.2619  0.2459
31676W        W34896  11.558   6.300   5.389  0.0461  0.0576  0.4194
31677W        W34897  13.901   1.215  14.030 -0.2560  0.0691 -0.1612
31678W        W34898   0.175  11.230   0.151  0.1745  0.1103  0.1253
31679W        W34899   8.579  10.355   1.433  0.0152 -0.0370 -0.1221
31680W        W34900  16.070   4.950   4.019 -0.0638 -0.3051  0.0018
31681W        W34901  12.264   9.497  16.552 -0.0641  0.1323  0.0021
31682W        W34902  10.386   9.534  14.468 -0.3781  0.0225  0.0688
31683W        W34903  10.024   7.289  12.660  0.0731 -0.0894 -0.1526
31684W        W34904   8.347  14.330  14.630 -0.0425 -0.1464 -0.1510
31685W        W34905  14.045   3.807   6.859  0.2032  0.5275  0.2973
31686W        W34906   5.292   8.518  17.114 -0.0423 -0.1580  0.1170
31687W        W34907  11.429  10.221   1.436  0.1449  0.2354  0.1407
31688W        W34908  14.965   0.044   2.360  0.2662 -0.0118  0.3985
31689W        W34909   6.860  15.934   2.779 -0.0809 -0.1270 -0.0370
31690W        W34910  15.875   3.873   3.799  0.1742  0.0817  0.0896
31691W        W34911  11.745   1.096   5.136 -0.0043  0.0280 -0.0087
31692W        W34912   6.676   6.035   6.377  0.1380  0.3277 -0.3002
31693W        W34913   8.105   4.665   2.533 -0.1450  0.0793  0.1190
31694W        W34914  16.289  12.866  14.171 -0.0915  0.2097  0.0270
31695W        W34915  14.793   1.416  10.926  0.5873 -0.1152  0.0440
31696W        W34916   0.914   3.081   2.917 -0.0401 -0.1290  0.0573
31697W        W34917  14.680   9.727   4.213  0.0165  0.2784 -0.0098
31698W        W34918  10.178  12.369   6.058 -0.3150 -0.1129  0.0212
31699W        W34919  17.107  14.179  17.379 -0.2280 -0.0862  0.0396
31700W        W34920   9.575   3.054  14.616  0.2077  0.5405 -0.2226
31701W        W34921  17.050  13.010  11.970 -0.1551  0.1411 -0.0657
31702W        W34922  10.275   6.155   2.646 -0.0023  0.0809  0.0775
31703W        W34923   5.865   3.366  17.528  0.1732  0.1590 -0.2256
31704W        W34924  17.638   6.149   8.336 -0.1236  0.1131 -0.0426
31705W        W34925  11.336   9.348  17.803  0.2278 -0.0165 -0.0052
31706W        W34926  10.659   9.178  10.719 -0.1502  0.1150  0.0760
31707W        W34927  12.089   5.644  16.620 -0.5123  0.0360  0.3567
31708W        W34928  12.189   7.769   1.608  0.2064  0.3492 -0.0342
31709W        W34929   9.569   3.964   5.431  0.1147  0.1006 -0.3241
31710W        W34930   3.098   4.125   6.414 -0.0414 -0.2905  0.0404
31711W        W34931  14.635   8.756  16.891 -0.0327  0.0775 -0.0341
31712W        W34932  16.803   5.831  11.856 -0.0127  0.1691  0.0793
31713W        W34933  11.981   5.770   5.967 -0.0608  0.1578  0.1223
31714W        W34934  10.472   5.683  16.970 -0.0222  0.1507  0.3369
31715W        W34935  10.372   4.080  12.318  0.2451  0.1173  0.0301
31716W        W34936  10.367  11.068   1.265  0.0368 -0.0108  0.0961
31717W        W34937  17.028   6.841  17.313 -0.2884  0.0876  0.0242
31718W        W34938  10.760  12.191   2.663  0.0883  0.0132  0.1476
31719W        W34939  11.293   5.412  11.487  0.2556 -0.2575  0.0891
31720W        W34940  15.986  14.472  11.027  0.1170  0.0212 -0.0603
31721W        W34941  18.090   2.737  10.688  0.0007  0.1238  0.1077
31722W        W34942  15.076   1.944   3.543  0.2306  0.1072 -0.0564
31723W        W34943  10.437   3.012   3.466  0.3196 -0.2557 -0.0667
31724W        W34944  11.210   1.553   7.161 -0.0969  0.2417 -0.5028
31725W        W34945  10.340   9.691   4.588 -0.1601  0.1780  0.1969
31726W        W34946   6.410   9.548   8.242 -0.2075 -0.1805 -0.1311
31727W        W34947  12.063   8.088   1.159  0.1142  0.1200  0.1626
31728W        W34948  11.701   3.042  10.661 -0.1239  0.0473 -0.0323
31729W        W34949   0.656   7.009   7.027 -0.4159  0.2669 -0.0036
31730W        W34950   9.975   4.758   8.515  0.2099 -0.1027  0.0246
31731W        W34951  16.549   7.096   3.420 -0.0756  0.2422  0.2194
31732W        W34952   0.387   5.767   2.999  0.2355  0.0419  0.4211
31733W        W34953  15.481   9.359   4.250 -0.0172  0.2687  0.2786
31734W        W34954   6.934  17.871   5.229  0.1818  0.3010  0.0763
31735W        W34955   7.897   2.168   4.201  0.1632  0.1242  0.0303
31736W        W34956   9.271   5.256   2.353  0.2323 -0.1129  0.0998
31737W        W34957  14.306  14.869  15.766 -0.1203  0.1726 -0.0173
31738W        W34958   6.255  15.545  11.114 -0.2183 -0.0399  0.2119
31739W        W34959  11.155   6.350   1.102  0.1035  0.0181  0.1183
31740W        W34960   9.697   3.591   0.800 -0.2117  0.0442  0.1142
31741W        W34961  12.037   2.557  17.475 -0.0967  0.1079  0.0922
31742W        W34962  14.852   2.381   7.331 -0.1472 -0.0375 -0.2168
31743W        W34963  14.986  13.100  17.675  0.0190 -0.0190 -0.1384
31744W        W34964   9.937   7.615  16.691  0.0798 -0.1012  0.0819
31745W        W34965   0.998  10.181  14.625 -0.2452  0.2102 -0.4512
31746W        W34966   8.178   3.981   5.735  0.1281 -0.3665  0.1224
31747W        W34967  13.219   8.333   7.825 -0.1934  0.1477 -0.2360
31748W        W34968   9.118   1.241   4.212  0.0494  0.3579 -0.1295
31749W        W34969  17.394   5.715   4.679  0.1207 -0.2508  0.0292
31750W        W34970  15.179   4.502   6.104  0.0715  0.2914  0.0644
31751W        W34971   7.410   6.028   9.453  0.0952  0.2162 -0.0398
31752W        W34972   3.838   9.212   3.902 -0.2521 -0.3489  0.2152
31753W        W34973   1.572  10.638   2.334  0.1409 -0.0527 -0.1054
31754W        W34974   9.450   6.393   5.742 -0.1754  0.1431  0.1359
31755W        W34975   4.950   5.220   6.513  0.1255 -0.0951  0.0224
31756W        W34976   1.065   4.147   8.093 -0.0185 -0.1930  0.0735
31757W        W34977  13.958   7.266   3.332 -0.0025 -0.0816 -0.1903
31758W        W34978  17.352   6.260  10.335  0.1277  0.1981  0.1685
31759W        W34979  15.427   2.179  15.974  0.0633  0.0836  0.1381
31760W        W34980  16.006   8.230   3.832 -0.0079  0.0224 -0.4365
31761W        W34981  15.924   1.814   1.529 -0.0657  0.0389  0.4706
31762W        W34982  13.284  12.054   9.120 -0.0413 -0.0077 -0.0455
31763W        W34983   0.684   3.017   2.441  0.0347 -0.0495 -0.2553
31764W        W34984  14.983   6.559   0.522  0.1515  0.0939 -0.1903
31765W        W34985   6.400   1.490  15.921  0.0072  0.2889 -0.0651
31766W        W34986   8.459   0.792  13.034  0.0774  0.1519  0.1223
31767W        W34987  12.715   3.170   4.284 -0.2380 -0.0697 -0.1711
31768W        W34988  12.913   7.234   5.637 -0.3053 -0.2944  0.0150
31769W        W34989  16.947   4.942  13.524  0.2942  0.0070 -0.2778
31770W        W34990   8.115   6.511   2.175  0.0544  0.0865  0.0482
31771W        W34991   6.719   1.794   5.330 -0.2302 -0.1970 -0.1618
31772W        W34992   0.802   5.625   3.209  0.1142 -0.0665 -0.0441
31773W        W34993  13.526   4.597   5.468  0.1273 -0.1468 -0.2039
31774W        W34994  10.707   1.355   0.850 -0.0272  0.0866  0.0301
31775W        W34995  16.348   5.498  14.404  0.1469 -0.3171 -0.0403
31776W        W34996   8.407   4.744   2.144  0.1510 -0.0854  0.1692
31777W        W34997   8.335  10.021   5.222 -0.0043 -0.0673 -0.1768
31778W        W34998  14.838  17.165  16.618  0.0661  0.1752  0.3952
31779W        W34999  10.600   7.127  13.384 -0.1045  0.1345  0.0347
31780W        W35000  14.145   2.903   0.372 -0.0428  0.3605 -0.1516
31781W        W35001  13.503   5.690   1.434 -0.0544  0.2707  0.0549
31782W        W35002  13.682   6.374  18.238  0.1811  0.0668 -0.2135
31783W        W35003  14.271   5.150  17.421  0.0906 -0.2310  0.0196
31784W        W35004  14.213  14.068  14.691  0.1501  0.1860 -0.0579
31785W        W35005  11.462   7.263   7.903 -0.0954  0.0381 -0.0108
31786W        W35006  16.417  10.845   3.465  0.1303  0.1728  0.2018
31787W        W35007   5.739   3.590   9.261 -0.1111 -0.2346  0.0544
31788W        W35008   7.831  16.939   3.780  0.0271  0.0219 -0.0486
31789W        W35009  16.195   4.907   4.611 -0.0045 -0.2820 -0.2464
31790W        W35010  15.977  10.259   1.478 -0.1977  0.0070  0.2729
31791W        W35011   9.118   5.573   6.529 -0.2609  0.1152  0.0171
31792W        W35012  10.520  14.044   1.960  0.3680  0.2251  0.0392
31793W        W35013  14.577  14.241   7.920  0.1482  0.1239 -0.0046
31794W        W35014   0.535   3.939   0.913 -0.4112 -0.0695 -0.2472
31795W        W35015  11.765   4.864   5.548 -0.1136  0.2809 -0.2230
31796W        W35016  10.167  10.640  15.818  0.3578 -0.0503  0.2677
31797W        W35017  17.380   3.597   5.054  0.1436  0.3707  0.0221
31798W        W35018   3.164   8.641   8.568  0.0149  0.0627  0.0701
31799W        W35019  13.808   7.759  17.808  0.0336  0.2410 -0.2137
31800W        W35020  15.647   8.254   0.630  0.0776  0.1343 -0.2196
31801W        W35021  14.044   4.253   2.603  0.0710 -0.1649 -0.0030
31802W        W35022  17.962   5.584   5.601  0.0798 -0.3309  0.0262
31803W        W35023   9.566  10.508   1.364  0.2299 -0.1765 -0.2465
31804W        W35024  13.585   9.093   0.940  0.0782 -0.0036 -0.1238
31805W        W35025  18.084   5.788   3.011  0.2574  0.2194  0.1225
31806W        W35026  13.438   6.387   6.994 -0.0568  0.0711 -0.0311
31807W        W35027  15.443  15.007   3.592 -0.3775  0.0352  0.1885
31808W        W35028  14.498   5.253  12.443  0.1796  0.3633  0.0737
31809W        W35029   0.224   7.978   5.947  0.0077 -0.2499 -0.1400
31810W        W35030  12.735   6.500   5.035 -0.0540  0.1974 -0.0079
31811W        W35031  12.537   4.293   3.291 -0.2162 -0.2577 -0.1967
31812W        W35032   8.576   6.596  16.956 -0.1654  0.0961  0.2997
31813W        W35033  13.807   8.242   0.053  0.1490 -0.1306  0.0353
31814W        W35034  16.772   9.325  12.320 -0.1851  0.1504  0.2400
31815W        W35035   8.125  10.156  16.292 -0.0993 -0.0682 -0.1000
31816W        W35036  14.630   7.957  13.976 -0.0519  0.1090 -0.0294
31817W        W35037   9.514   6.437   1.999 -0.0382 -0.1865  0.0885
31818W        W35038  15.495   1.970   5.727  0.0516  0.0533 -0.1428
31819W        W35039   6.026   2.445   2.714 -0.0683 -0.2719  0.1612
31820W        W35040  13.102   4.035   3.842 -0.0538 -0.2535 -0.0737
31821W        W35041  15.903   6.976  18.249  0.2339 -0.1063  0.0062
31822W        W35042   0.433   8.318  16.366  0.0329 -0.1760 -0.3476
31823W        W35043  17.092  15.880   4.199 -0.1028 -0.1908  0.2891
31824W        W35044  13.645   4.846  14.397  0.0013 -0.0462 -0.0136
31825W        W35045  13.801   8.568  12.965 -0.5173 -0.0216 -0.1676
31826W        W35046  13.188   8.479   3.540  0.3306  0.2291  0.2219
31827W        W35047  15.155   7.048   1.397 -0.0714  0.0931 -0.0309
31828W        W35048  17.938   6.460   8.561  0.2054 -0.0437  0.1489
31829W        W35049   6.576   6.722   3.611  0.0499  0.1751 -0.3851
31830W        W35050  15.550   7.444   8.091  0.0232  0.2765  0.1172
31831W        W35051  14.772   2.464   5.460  0.2120  0.3149  0.1017
31832W        W35052  16.416   5.708   7.034  0.0131 -0.1892  0.0074
31833W        W35053  10.157   7.432   0.797 -0.2469  0.1277 -0.1595
31834W        W35054   8.644   4.129   0.289 -0.1407  0.1421  0.3201
31835W        W35055  15.469   8.394   2.735 -0.1129  0.0259  0.0745
31836W        W35056  12.891  13.258  13.448  0.1113 -0.0208  0.0527
31837W        W35057  17.261   4.694   9.677 -0.1111  0.0622 -0.0504
31838W        W35058  11.577  15.093   7.209  0.4000 -0.3890 -0.2193
31839W        W35059   5.260   4.256   2.102  0.1821  0.0099 -0.0174
31840W        W35060  16.194   8.725   0.160 -0.2179 -0.0460  0.1405
31841W        W35061  13.916   4.713  15.517 -0.1990 -0.2078  0.3657
31842W        W35062  10.973   2.517   5.896 -0.2117 -0.1676  0.2314
31843W        W35063   9.014   0.865   5.573 -0.3253 -0.1884 -0.0130
31844W        W35064  13.734   4.893  15.080  0.3381  0.0331  0.2068
31845W        W35065   8.026   9.248   5.828  0.0588  0.2037  0.0511
31846W        W35066   5.267   8.559   4.105 -0.1280  0.1550  0.2140
31847W        W35067   8.815  10.952  15.494  0.0679  0.0030 -0.3271
31848W        W35068   9.451   1.487   6.528  0.3402  0.2709  0.0097
31849W        W35069  14.689   3.655  10.023 -0.2775  0.1389  0.2053
31850W        W35070  14.392   1.460   2.731  0.4245 -0.1001 -0.2307
31851W        W35071   7.041  13.044   2.528  0.0224  0.0334  0.0313
31852W        W35072  13.533   5.409   6.769 -0.1032 -0.1369  0.1253
31853W        W35073  17.607   6.662   1.277 -0.0342 -0.0057  0.2183
31854W        W35074   6.614   4.530  16.040 -0.2278  0.1429 -0.2120
31855W        W35075   6.623   3.292   6.904  0.0750  0.0549 -0.2049
31856W        W35076  13.389   6.530  12.415 -0.0829  0.0126 -0.0197
31857W        W35077   0.968   4.869   0.302  0.0359  0.0320  0.1724
31858W        W35078  14.077   6.981   2.528  0.1803  0.0633 -0.0941
31859W        W35079   1.667   3.873  12.506  0.1157 -0.0396 -0.1270
31860W        W35080  10.709  10.564  16.112 -0.0844  0.0591  0.0165
31861W        W35081  13.691   1.770   4.261  0.4053  0.2784  0.0603
31862W        W35082  14.122   9.523   3.661 -0.0290 -0.0009 -0.2913
31863W        W35083   9.963   4.336  12.271  0.0770  0.1542  0.0927
31864W        W35084  12.104   2.699  16.586 -0.0938  0.0817 -0.0372
31865W        W35085  15.615   9.727  13.958 -0.2037  0.0742 -0.2846
31866W        W35086  11.211   1.522   7.738 -0.1908  0.2213  0.1044
31867W        W35087  13.115  17.495  14.586 -0.1731  0.2028 -0.1271
31868W        W35088  12.577  10.979   2.686 -0.0919 -0.3150 -0.0672
31869W        W35089   9.385   5.707  10.552  0.1164  0.1939  0.1334
31870W        W35090  12.969   3.982   5.253 -0.0434 -0.1528 -0.0750
31871W        W35091   4.815   3.031   3.286 -0.1781  0.0125 -0.0683
31872W        W35092  13.242   4.982   5.435  0.2312 -0.0815 -0.1303
31873W        W35093  17.028  16.612   0.011  0.1844  0.0758 -0.0535
31874W        W35094  11.068   2.380   5.011  0.0415  0.0324  0.0129
31875W        W35095  13.865   4.942   2.054 -0.1965  0.2526  0.0526
31876W        W35096  11.223   4.864   5.470  0.0255 -0.3801 -0.2192
31877W        W35097   0.330   1.176   1.311 -0.2965 -0.2691 -0.0926
31878W        W35098   6.605   8.156   0.833 -0.2568 -0.1269 -0.0112
31879W        W35099   4.175   0.905   7.844  0.0695  0.0255  0.4232
31880W        W35100   3.084   2.772   5.118  0.0861  0.3034  0.0662
31881W        W35101  12.778   9.569   4.143  0.0829 -0.1015 -0.1209
31882W        W35102  14.452   5.904   5.886 -0.1752 -0.1432  0.2606
31883W        W35103  16.172  11.271   5.007 -0.1498  0.3046 -0.0893
31884W        W35104  15.073   4.804   0.398  0.0311 -0.0174  0.0911
31885W        W35105   9.322   6.028   6.439  0.0390 -0.2331 -0.0113
31886W        W35106  16.127  15.548   7.929 -0.2206  0.1721  0.1520
31887W        W35107  16.625   6.866   1.706  0.0318  0.4541 -0.0471
31888W        W35108  12.096   6.962   8.849  0.2796  0.0338 -0.1542
31889W        W35109   8.159   9.793  16.668 -0.2400 -0.0071 -0.1333
31890W        W35110  14.144  13.812  12.605 -0.5349  0.0451 -0.2936
31891W        W35111   3.247  11.653  17.822 -0.0530  0.0195  0.0556
31892W        W35112  10.302   4.523   6.918 -0.0135 -0.4160  0.2953
31893W        W35113  12.156   7.212  11.807 -0.0921  0.0736  0.3274
31894W        W35114  15.935   7.298   7.798  0.0192 -0.2038 -0.0250
31895W        W35115  10.722   3.943   2.083 -0.0724 -0.2501  0.2458
31896W        W35116   9.659   2.340   3.980 -0.2348  0.0419  0.0366
31897W        W35117  10.492   8.656  17.313 -0.0325 -0.1403 -0.1215
31898W        W35118   8.081   3.582   4.176  0.0707 -0.1407  0.2791
31899W        W35119   9.072  12.938  13.799  0.0220 -0.0473  0.0035
31900W        W35120   9.259  12.864   8.318  0.3312 -0.0923  0.0247
31901W        W35121  14.442   3.098   8.822 -0.2841 -0.0879 -0.0961
31902W        W35122   8.049   4.859   5.968  0.1220  0.2028 -0.2194
31903W        W35123  11.558  10.324   8.697  0.0492  0.2814 -0.1183
31904W        W35124   3.944  12.821  16.323  0.1403 -0.0088  0.0167
31905W        W35125  15.089   4.036  16.156 -0.1935  0.0766  0.1119
31906W        W35126  14.863   6.280  10.971  0.0526  0.1349 -0.0680
31907W        W35127  15.478   2.728   9.049 -0.1507  0.0450  0.0774
31908W        W35128  15.555   5.339   9.391 -0.3524  0.0498  0.2446
31909W        W35129   3.034   5.008   6.482 -0.0161  0.0287 -0.1049
31910W        W35130  14.915   5.037   3.061  0.1218  0.0979  0.0721
31911W        W35131   1.806  13.236  16.433 -0.1599  0.1141  0.1789
31912W        W35132   0.763   5.466  11.694 -0.0783 -0.1698  0.1928
31913W        W35133   2.062  14.619  13.372 -0.1623  0.1470  0.1461
31914W        W35134  13.916   0.485   7.940 -0.2930 -0.2085  0.2225
31915W        W35135  11.841   1.887   0.618  0.0103  0.1793  0.1141
31916W        W35136   6.872   5.942   3.955  0.2570 -0.2744  0.2331
31917W        W35137  12.025   7.524   4.174  0.1124  0.3116  0.1038
31918W        W35138  12.485   6.789   8.359  0.1880 -0.1802 -0.0962
31919W        W35139   0.063   8.387   1.352 -0.1008 -0.1562 -0.1962
31920W        W35140  12.881   6.891   4.725 -0.4052  0.2914  0.1707
31921W        W35141  14.050   8.934  14.512  0.2013  0.0612 -0.0923
31922W        W35142  16.452   5.600  15.352  0.2222  0.0549  0.2907
31923W        W35143   9.621   7.849   0.477  0.1375 -0.0568  0.3065
31924W        W35144  12.845  10.883   4.712 -0.1562  0.0968 -0.0294
31925W        W35145  12.473   2.308   8.794  0.1628 -0.1628  0.0225
31926W        W35146  15.155   0.368   1.995  0.1058 -0.2081 -0.2505
31927W        W35147   5.497   9.055   0.748  0.2251  0.1810  0.1774
31928W        W35148  14.300   6.109  10.822  0.0338 -0.0494 -0.0248
31929W        W35149  16.957   6.108   6.533 -0.2750 -0.0856  0.2197
31930W        W35150  14.168   8.545  14.905  0.1019  0.0092 -0.1617
31931W        W35151   0.402   7.718   6.327 -0.0621  0.2240  0.2004
31932W        W35152  17.108   4.525  12.105  0.1585  0.0874  0.1584
31933W        W35153   9.672   5.140  11.327  0.0330 -0.0971 -0.0162
31934W        W35154  17.463   9.867   0.820  0.2971 -0.0145  0.0888
31935W        W35155   7.185  10.611   4.022  0.1292 -0.0155  0.2081
31936W        W35156  12.803   8.120  10.097 -0.0034 -0.1326 -0.1021
31937W        W35157   9.517   5.108   6.763 -0.1863  0.1014 -0.2043
31938W        W35158  16.518   5.062   3.041  0.4545 -0.0160  0.2382
31939W        W35159  16.242   2.006   1.955  0.0000 -0.0170  0.2585
31940W        W35160   4.004   7.326   8.027  0.3547 -0.0140 -0.0715
31941W        W35161  13.172   5.153   9.768  0.0961 -0.2915 -0.0396
31942W        W35162  14.984   8.383   7.621 -0.1313 -0.2365 -0.3724
31943W        W35163   7.752  15.424   2.569 -0.3065  0.0145 -0.1169
31944W        W35164   2.840   6.935   2.137  0.1212  0.1037 -0.5249
31945W        W35165  13.762  15.943   2.362  0.1679  0.0497 -0.1890
31946W        W35166  16.331   7.607   4.841  0.3398  0.0648  0.0430
31947W        W35167  14.304   6.143  15.821 -0.3169 -0.0772  0.1688
31948W        W35168  11.012   4.283   4.597 -0.0498 -0.0904 -0.3037
31949W        W35169  17.567   3.594  11.799 -0.0435  0.1671  0.0379
31950W        W35170  14.065   6.675   6.328 -0.0053  0.3313 -0.0341
31951W        W35171  17.715   8.271   9.245  0.2634 -0.0489 -0.2372
31952W        W35172   7.715   6.211   6.642 -0.3240 -0.0131  0.4262
31953W        W35173  16.169   5.532   2.831 -0.2142 -0.4574  0.0506
31954W        W35174   8.705  13.704   1.833 -0.1925  0.0371 -0.0194
31955W        W35175   1.602   8.075  17.787  0.0030 -0.2005  0.1555
31956W        W35176  15.227  13.632   9.342  0.1576 -0.0405  0.1888
31957W        W35177   4.106   8.123   6.214  0.2032 -0.0923 -0.0171
31958W        W35178  13.153   9.040   7.806  0.1399  0.2000 -0.0674
31959W        W35179  13.097  11.372  10.165 -0.1125 -0.0024  0.1353
31960W        W35180  16.564   9.706   1.819  0.2631 -0.0975  0.1499
31961W        W35181  16.473   8.849   5.878 -0.0540 -0.0152  0.0015
31962W        W35182   9.917  13.622   5.926 -0.1204 -0.2952  0.1184
31963W        W35183  13.167   1.150   6.666 -0.1361 -0.0979  0.1166
31964W        W35184  16.722   3.564   9.589  0.2279  0.0013 -0.1016
31965W        W35185  14.985  10.346   9.819 -0.1215 -0.1844 -0.0314
31966W        W35186  15.129   6.735   3.432 -0.1414 -0.2648 -0.1512
31967W        W35187  16.596   0.258   8.481 -0.1242  0.0390 -0.0339
31968W        W35188  17.554   6.851   9.502  0.1479 -0.1815  0.1671
31969W        W35189   9.535  17.297   1.382 -0.1908  0.1332 -0.0699
31970W        W35190  10.097   1.515   5.792 -0.1117  0.0235  0.3535
31971W        W35191  17.387   3.054   4.139  0.1914  0.1339 -0.1280
31972W        W35192   3.165   5.079   1.200 -0.3851 -0.0645 -0.0390
31973W        W35193   0.610   8.533   3.766 -0.1276  0.2317  0.0023
31974W        W35194   8.805  17.411   6.222 -0.0507  0.0771 -0.0035
31975W        W35195  13.442   5.779   4.380  0.1208  0.1119 -0.0198
31976W        W35196  13.482   3.959   8.539  0.0801  0.0818  0.0348
31977W        W35197  10.712   7.837  12.827  0.1327 -0.0535  0.0699
31978W        W35198  15.155   6.454   9.991  0.2455 -0.2298  0.2019
31979W        W35199  16.524   8.110  14.831 -0.1161  0.2240 -0.0853
31980W        W35200  18.129   4.254   5.520 -0.0319  0.0360 -0.0299
31981W        W35201  16.440  12.874   4.472 -0.0931  0.1607  0.1765
31982W        W35202  15.367   5.935  16.918 -0.0189  0.1299  0.1008
31983W        W35203  10.326   2.533   9.634 -0.1804 -0.2194  0.1674
31984W        W35204  15.208  10.719  16.328 -0.1716  0.2624 -0.3332
31985W        W35205  12.103   2.012   9.642  0.0949  0.1160 -0.0506
31986W        W35206  16.388   0.574   1.141  0.0414  0.0710  0.0829
31987W        W35207   0.016  12.908  16.422  0.1324 -0.5521  0.1406
31988W        W35208   5.635   3.642   6.035  0.0111 -0.0397  0.1116
31989W        W35209   1.026   7.139  12.649 -0.3303 -0.2657  0.2352
31990W        W35210  11.515   2.847   4.260 -0.1538  0.3789  0.0303
31991W        W35211   0.850   4.878   5.448 -0.0607  0.3612 -0.1429
31992W        W35212   9.638   7.340   2.067 -0.0652 -0.0826 -0.3132
31993W        W35213  13.705   4.254   8.162  0.0580 -0.4085  0.0559
31994W        W35214  17.778   6.514  14.829  0.1874  0.3212 -0.4274
31995W        W35215  14.922  12.773   8.423 -0.1543 -0.0782  0.2330
31996W        W35216  16.198   8.587   4.117  0.1247  0.0852 -0.3038
31997W        W35217  16.375   3.291   5.213  0.0415 -0.0396 -0.0534
31998W        W35218  16.804   0.111  12.672 -0.0190  0.2053  0.1168
31999W        W35219  16.509  11.868   6.129  0.1630  0.2482  0.0796
32000W        W35220   2.114   8.768   2.308  0.0166  0.3096  0.0016
32001W        W35221  10.756   5.647   7.870  0.1901  0.2419  0.0627
32002W        W35222  13.612   1.347   7.976 -0.1680 -0.1375 -0.2362
32003W        W35223  15.693   8.190   5.615  0.1439 -0.2360 -0.2121
32004W        W35224   1.385   5.770  11.428 -0.1239  0.0612 -0.1273
32005W        W35225   6.958   8.775   4.675 -0.1268 -0.1375  0.2202
32006W        W35226  15.192   6.806  17.195 -0.1219 -0.0325  0.1787
32007W        W35227  13.912  10.106   9.760 -0.2107  0.0297 -0.0023
32008W        W35228  11.890   9.055   7.083  0.0416  0.1988 -0.2798
32009W        W35229  10.798  17.444   4.676 -0.1637  0.1078  0.0627
32010W        W35230  11.801   5.492   4.833 -0.2473 -0.0530  0.2678
32011W        W35231   3.297   0.387   9.342  0.1018 -0.0048  0.3620
32012W        W35232  11.514   3.220  16.960 -0.0001 -0.1674 -0.1216
32013W        W35233  15.737   8.416   8.960  0.0533 -0.1097 -0.2769
32014W        W35234   7.943   6.143  12.780  0.2789  0.3637 -0.2024
32015W        W35235   9.794  14.866   3.914  0.0985 -0.0888 -0.2235
32016W        W35236  17.945  17.718   0.427  0.2892  0.2026 -0.0584
32017W        W35237   0.479   3.741  14.504 -0.2525  0.1838 -0.2157
32018W        W35238  15.241  16.278  17.469  0.0749 -0.0587  0.0827
32019W        W35239  17.663   1.309   4.681  0.1003  0.0464 -0.0650
32020W        W35240  11.721   7.388   8.829 -0.2316  0.1333  0.1290
32021W        W35241  17.732  13.433   1.756 -0.0838  0.0639  0.2280
32022W        W35242  13.616  11.303  12.821  0.2192 -0.0736 -0.2017
32023W        W35243  13.189   2.198  13.148  0.2006  0.2963  0.0827
32024W        W35244   8.353   9.301   7.576  0.2511  0.0269  0.2859
32025W        W35245  15.947   3.056   7.794  0.0440 -0.1050 -0.0774
32026W        W35246   2.524   7.358   0.870  0.0288  0.0329 -0.2987
32027W        W35247  12.677   4.832   3.684  0.0279  0.0121 -0.2137
32028W        W35248  13.126   0.844   5.497  0.0724 -0.1648  0.3659
32029W        W35249   7.970   8.750   5.439 -0.1191  0.1946  0.0056
32030W        W35250  15.064   7.313  11.374 -0.1262  0.1345  0.2401
32031W        W35251  14.734   3.698   2.988 -0.0332  0.1471 -0.0475
32032W        W35252  13.174   2.421   4.822  0.0840 -0.1715  0.1943
32033W        W35253   2.222  15.468  17.580 -0.2262 -0.0701 -0.0234
32034W        W35254  14.325   5.074   7.256  0.1226  0.1309 -0.1419
32035W        W35255  13.379   5.297  15.679  0.1025 -0.2469  0.0897
32036W        W35256   4.317   2.893   6.591 -0.0212  0.4239  0.0432
32037W        W35257  13.451   8.544   9.195 -0.1015 -0.0111 -0.0127
32038W        W35258  17.126   5.094   5.810 -0.0764 -0.0886  0.1464
32039W        W35259  11.654   5.174  16.036  0.0150  0.1783 -0.0495
32040W        W35260  13.604   2.265  12.258  0.0678 -0.0289  0.0460
32041W        W35261   2.270   7.237   4.715 -0.0459  0.0140  0.1830
32042W        W35262  12.536   3.737   5.367  0.0006 -0.1238 -0.0003
32043W        W35263   9.734  11.129   7.467 -0.2043 -0.1154  0.0791
32044W        W35264  13.971   0.820   5.519  0.2897 -0.1472 -0.0226
32045W        W35265  13.815   7.465  10.347  0.3706 -0.0655  0.2098
32046W        W35266  15.536   9.978  12.995 -0.0380 -0.1038 -0.2145
32047W        W35267   8.842  17.977   0.399  0.3140 -0.0930  0.1533
32048W        W35268   0.770   8.330   9.075 -0.0292 -0.1186  0.0393
32049W        W35269  15.348  16.210   5.978 -0.0807  0.1625 -0.6013
32050W        W35270   8.499  10.888   5.067 -0.0460  0.1040  0.0424
32051W        W35271   3.838   4.726   7.777 -0.1676  0.4470 -0.1679
32052W        W35272  14.230   2.100   6.847  0.2130 -0.0361 -0.0163
32053W        W35273  16.902   1.904   5.467  0.2013 -0.3928  0.1984
32054W        W35274   2.642   5.167   6.239 -0.3781 -0.1803 -0.1158
32055W        W35275  17.212   0.928   2.503  0.1652 -0.0517  0.1493
32056W        W35276   4.569   3.575   6.218 -0.0121  0.0589  0.4620
32057W        W35277  16.996   2.452  16.816 -0.1148 -0.0029 -0.1458
32058W        W35278   5.363   3.780   9.570  0.1114 -0.0612  0.1432
32059W        W35279   0.437   7.608   2.675 -0.3395 -0.0071  0.1332
32060W        W35280   3.602   8.637   4.683  0.0044 -0.2554  0.2830
32061W        W35281  14.559   4.824   7.983 -0.0780 -0.1279 -0.3140
32062W        W35282  16.411   3.406  10.906  0.3684  0.3173  0.0407
32063W        W35283  11.553   4.747   6.794  0.0116 -0.0394  0.4032
32064W        W35284   0.896   7.557   3.913 -0.3153  0.3475 -0.0016
32065W        W35285  10.152   9.084  13.011 -0.2161 -0.2157  0.1637
32066W        W35286  18.112   4.475   6.598  0.0325 -0.0569 -0.0343
32067W        W35287  11.941   6.909  11.246 -0.1528 -0.0502  0.0341
32068W        W35288   0.455   4.654   8.071  0.0620  0.1862 -0.0141
32069W        W35289  17.618   9.591  11.440  0.0180 -0.2084  0.2451
32070W        W35290   9.179  10.017   0.638  0.0048  0.0747 -0.3296
32071W        W35291   0.315   8.460   6.067  0.0770  0.0245 -0.3506
32072W        W35292  16.900   2.778   8.780 -0.0920 -0.0718 -0.0483
32073W        W35293  13.187   2.636  10.288 -0.0281 -0.2694  0.0191
32074W        W35294  14.271   0.992   6.067 -0.0306  0.0429  0.2076
32075W        W35295   5.840   5.436   5.321 -0.0764  0.0356  0.0953
32076W        W35296  11.674   6.082  17.771  0.0654  0.0359 -0.0651
32077W        W35297  13.693   6.717   4.756 -0.0191  0.1733  0.2062
32078W        W35298  16.129   5.819   4.472 -0.2103  0.0389  0.0246
32079W        W35299  15.866  11.349   6.655  0.0631  0.0713 -0.1638
32080W        W35300  15.215  12.693   9.513 -0.1737 -0.0290  0.2870
32081W        W35301   2.029  17.273   3.321  0.3027 -0.2032  0.0742
32082W        W35302   1.746   2.710   6.641 -0.1052 -0.2453 -0.0105
32083W        W35303   1.154   9.356   7.485  0.0758  0.3525 -0.0797
32084W        W35304  12.354   2.023   6.040 -0.2376  0.0283  0.1232
32085W        W35305   0.672   8.469   4.285 -0.3000  0.0344 -0.0429
32086W        W35306  13.757   9.195  16.147  0.5062  0.0126 -0.1114
32087W        W35307  14.580   7.543   3.209 -0.1020  0.0013 -0.2816
32088W        W35308   1.016   3.124  14.157 -0.0004 -0.2105 -0.1738
32089W        W35309  14.543  10.230   2.796 -0.0943  0.2830 -0.3076
32090W        W35310   3.462   5.232   6.466 -0.1419  0.1984  0.1352
32091W        W35311   0.905   3.059   9.122 -0.2004  0.1913 -0.0849
32092W        W35312  14.896   0.314   6.078 -0.2220  0.0503  0.1078
32093W        W35313   1.000   6.630   5.920 -0.1960 -0.1404  0.2004
32094W        W35314  14.699   6.412  10.514  0.0476 -0.0325  0.1169
32095W        W35315  16.883   7.622  11.829 -0.0355  0.1302 -0.0125
32096W        W35316  12.156   7.688  13.727  0.0595 -0.0398 -0.2222
32097W        W35317   7.817   0.561   6.576  0.1797  0.1948  0.1539
32098W        W35318  11.470   4.850   7.856  0.1226 -0.1268 -0.2607
32099W        W35319  10.189  10.127   4.808  0.0251  0.0132  0.1640
32100W        W35320  13.904   4.761   4.219  0.0688  0.0969  0.0777
32101W        W35321   9.795   6.594  18.091 -0.0101 -0.0820  0.0716
32102W        W35322  16.706   5.899  15.013  0.1801 -0.0664  0.1019
32103W        W35323  12.620  14.251   8.162 -0.2207 -0.1481  0.4440
32104W        W35324  14.554   3.011   5.766 -0.1768 -0.3226 -0.0050
32105W        W35325   7.781  12.344   9.487 -0.0976 -0.0396  0.0517
32106W        W35326   1.037   6.982   5.374  0.1100  0.1027 -0.2397
32107W        W35327  16.930   1.448   5.422  0.0851 -0.0784 -0.1231
32108W        W35328   7.859  11.794   3.493  0.3207 -0.2308  0.1153
32109W        W35329   0.747   8.735   7.817 -0.1346 -0.0108 -0.0156
32110W        W35330  12.156  10.557   2.578  0.1350  0.2025  0.3020
32111W        W35331  12.766  15.140   9.631 -0.0899  0.0253  0.1393
32112W        W35332  14.108   0.738   7.082  0.0654 -0.0963  0.0613
32113W        W35333   1.097  11.649   3.661  0.0559  0.1522  0.0265
32114W        W35334  14.925   5.330   7.919 -0.1994 -0.1335 -0.1031
32115W        W35335   7.011  14.043  17.291  0.3065 -0.1252 -0.0463
32116W        W35336   0.679   2.870  13.864 -0.1617 -0.0053  0.1977
32117W        W35337  14.785  10.270   0.483 -0.0329 -0.1060 -0.1666
32118W        W35338   9.418  16.367   1.662  0.1491  0.3478  0.3412
32119W        W35339   1.398   5.616   3.158  0.0011 -0.3057 -0.0173
32120W        W35340  13.269  11.795  17.841 -0.4732  0.1565  0.0501
32121W        W35341  16.526   3.770  11.794 -0.5520 -0.0787 -0.0917
32122W        W35342  12.520   8.625   6.604  0.0888  0.0095  0.3432
32123W        W35343  13.110   2.542   1.050  0.1681 -0.2846  0.3695
32124W        W35344  10.039   5.474   4.204  0.1330  0.1549  0.5536
32125W        W35345   7.978   3.433   5.431  0.0277  0.0053 -0.0754
32126W        W35346  16.620   9.283   7.748 -0.0803 -0.1289 -0.2347
32127W        W35347  16.349   8.049  12.849  0.2267 -0.0229  0.1243
32128W        W35348  18.017   3.130   4.549 -0.0580 -0.0822  0.0143
32129W        W35349  10.605  17.972  12.918 -0.1774  0.1308  0.0583
32130W        W35350  12.048   8.380   8.552 -0.0942 -0.1705 -0.0110
32131W        W35351  12.012  11.821   3.848 -0.0357 -0.2181  0.0182
32132W        W35352   9.230  15.671  15.278  0.1768 -0.2919 -0.1279
32133W        W35353   7.475   3.342   5.675 -0.1143  0.0248  0.2865
32134W        W35354   0.332   7.797  14.815 -0.1049  0.1679  0.0145
32135W        W35355  12.834   5.576  13.686  0.3615  0.0189 -0.0588
32136W        W35356  10.617   3.328   6.232 -0.2806  0.1459 -0.1568
32137W        W35357  12.437   5.085   8.858  0.1504  0.0406  0.0084
32138W        W35358   1.699  11.001   3.646 -0.0225  0.1052  0.3314
32139W        W35359   0.119   9.737  17.149  0.2421 -0.1853  0.0628
32140W        W35360  10.456   8.877   4.801 -0.2733  0.0755  0.1312
32141W        W35361  11.109   6.020   4.097 -0.0293 -0.1210  0.0453
32142W        W35362   7.681   6.302   7.321  0.1638  0.3868 -0.0931
32143W        W35363   8.000  16.741   2.943 -0.1971 -0.3151  0.1495
32144W        W35364  16.222   4.901   6.666  0.0432 -0.1791  0.1042
32145W        W35365  13.965   2.677  12.056  0.0364  0.0754 -0.3925
32146W        W35366  10.707   3.935   4.952 -0.1358 -0.2942  0.1147
32147W        W35367   1.322   6.150  12.672 -0.0175  0.2369  0.0583
32148W        W35368   8.859  12.627   0.333 -0.1614 -0.1614  0.1340
32149W        W35369  14.506   4.055   1.164  0.1621 -0.0881 -0.2118
32150W        W35370  17.099   7.775  15.896 -0.1315  0.1207  0.3257
32151W        W35371  14.306   4.161   8.475  0.0767  0.0953  0.1588
32152W        W35372  16.504   9.085  11.891 -0.1324 -0.0538  0.0214
32153W        W35373  10.591  16.091  10.751  0.4455  0.1481  0.1073
32154W        W35374   0.230   6.767   2.204  0.0587 -0.1049 -0.1689
32155W        W35375  14.220  12.127   6.645 -0.0295  0.1298 -0.0992
32156W        W35376  13.591   9.538   2.184  0.3747  0.2190 -0.1308
32157W        W35377  14.762   5.991   4.596  0.1656  0.0759  0.1867
32158W        W35378  12.736   3.839   4.205 -0.2371  0.4056 -0.0319
32159W        W35379  14.222   4.367   6.038 -0.0847  0.1096 -0.1491
32160W        W35380  11.206  17.901   5.819  0.1696  0.3414  0.4633
32161W        W35381  14.315   5.755   2.998 -0.1413 -0.0305 -0.0542
32162W        W35382   2.605   6.144   5.909  0.4409 -0.1113 -0.4817
32163W        W35383  10.029   5.205  15.358 -0.6936  0.1315 -0.1995
32164W        W35384  13.036   9.264   0.225  0.2046  0.1293 -0.1890
32165W        W35385  11.131   4.570  11.173 -0.0132  0.3745 -0.0673
32166W        W35386  14.900   7.642   3.940 -0.4934 -0.3298 -0.0144
32167W        W35387  13.910   3.503   3.439 -0.0148 -0.0385 -0.0854
32168W        W35388   1.264   3.716   4.428 -0.0053 -0.1442 -0.3429
32169W        W35389  14.044  15.639   7.407 -0.1656  0.0949  0.1521
32170W        W35390  13.277  10.869   3.712  0.2582 -0.2529 -0.0347
32171W        W35391  17.641   7.522  16.745 -0.2009  0.3946 -0.1105
32172W        W35392  17.838  10.098   2.813 -0.1419  0.2486  0.1069
32173W        W35393  12.918  17.504   8.252  0.2206 -0.2190  0.3292
32174W        W35394   7.210   1.801   4.245 -0.2434  0.1807 -0.1204
32175W        W35395  14.693  16.844   3.629  0.1993 -0.1828 -0.1073
32176W        W35396   9.386   0.380   2.411  0.1896 -0.1510 -0.0745
32177W        W35397  10.765  12.922  17.286 -0.3224  0.2069 -0.1597
32178W        W35398   8.264  10.311  15.672 -0.0354  0.0988  0.0099
32179W        W35399  11.831  12.957   7.043 -0.0818 -0.1934 -0.0036
32180W        W35400  14.339   3.187   9.981 -0.2076  0.0714  0.1631
32181W        W35401  12.388   8.007   8.513 -0.1498 -0.0545 -0.0601
32182W        W35402  10.520  10.865  15.537 -0.0944 -0.4490 -0.0228
32183W        W35403   2.086   8.186   8.703 -0.5548  0.3325 -0.0369
32184W        W35404   0.611  11.241   1.978 -0.1983 -0.0997  0.0156
32185W        W35405   6.877   4.284   7.852 -0.0437 -0.1527  0.1331
32186W        W35406  17.214   4.799   7.202 -0.1294  0.3500  0.2119
32187W        W35407  15.482   4.850   9.377 -0.1890 -0.0990 -0.0804
32188W        W35408  15.232  18.200   7.258  0.2678  0.1835 -0.3716
32189W        W35409   1.301   8.673   6.201  0.0715  0.5013  0.1766
32190W        W35410  16.113   2.661   9.895 -0.2402  0.1757 -0.0876
32191W        W35411  16.114   6.428  10.981 -0.0943  0.1282  0.0809
32192W        W35412   6.407   8.095   3.735 -0.1916 -0.1123  0.1386
32193W        W35413   1.530   8.531   5.800 -0.2598 -0.1315 -0.2532
32194W        W35414   9.403   0.256   0.800  0.0153  0.0614  0.0816
32195W        W35415   9.023  12.404  11.327 -0.0802 -0.0097 -0.0763
32196W        W35416  17.919   1.999   9.216 -0.1404  0.1945  0.1831
32197W        W35417   6.527   3.261   1.304 -0.0652 -0.1119 -0.2218
32198W        W35418  17.048   9.116   0.512 -0.0313  0.0803  0.1261
32199W        W35419  14.151   4.728   2.491  0.1456  0.0454 -0.3519
32200W        W35420  13.176   1.135   4.586 -0.0772 -0.2392  0.3595
32201W        W35421  11.056   3.639   7.061  0.2194  0.1218 -0.0960
32202W        W35422  10.938  15.890   8.830  0.0545  0.0248 -0.0913
32203W        W35423  18.037  10.581   1.798  0.3532  0.4436  0.1211
32204W        W35424   7.108   1.310   7.096  0.3235  0.4093 -0.0116
32205W        W35425   1.608   9.983   6.819 -0.0907 -0.1601 -0.0316
32206W        W35426   8.113  17.180   7.038  0.0746  0.0081 -0.0702
32207W        W35427  11.178  16.627   3.654  0.4334  0.1559 -0.1437
32208W        W35428  10.377   7.623   6.707  0.1490  0.1703  0.0472
32209W        W35429   2.413   5.614   5.131  0.2441 -0.2764  0.0474
32210W        W35430  16.340  11.778   3.800 -0.0207 -0.1867  0.0819
32211W        W35431  13.414   8.854  12.916 -0.2442  0.0862  0.1547
32212W        W35432   7.812   8.545   3.153  0.0198  0.3938  0.1364
32213W        W35433  15.310   0.657   3.491 -0.2626  0.0368 -0.0656
32214W        W35434   0.029   4.769   7.066 -0.1533 -0.2035 -0.3299
32215W        W35435   0.917   0.873   8.138  0.0117 -0.3372  0.0205
32216W        W35436  11.508  18.059   5.257 -0.2346  0.1471  0.1739
32217W        W35437  12.871   7.710  16.934 -0.2278  0.0458 -0.2095
32218W        W35438   4.704  10.622   2.148 -0.1680 -0.0497  0.0870
32219W        W35439  10.104   4.790   3.753  0.1309  0.0384  0.0159
32220W        W35440   0.588  16.853   8.403 -0.2066 -0.0108 -0.0439
32221W        W35441  12.905   5.745   4.420 -0.2740 -0.2193  0.0465
32222W        W35442   3.822  11.684   8.927  0.0044  0.1791 -0.1728
32223W        W35443  12.099  14.670   5.904 -0.1548  0.0679  0.0765
32224W        W35444  13.773   3.800   7.314 -0.3274  0.1441 -0.1195
32225W        W35445  14.060   3.203   0.792  0.0192 -0.1555 -0.3330
32226W        W35446   4.967  10.352   9.557 -0.0711  0.2515  0.1117
32227W        W35447   2.014  11.682  16.614  0.2621  0.0619 -0.0026
32228W        W35448   1.886   6.877   8.131 -0.1496  0.1631  0.3657
32229W        W35449  17.585   1.495  18.213 -0.2071 -0.0638 -0.2660
32230W        W35450  10.275   5.868   9.668  0.6925  0.1318 -0.1946
32231W        W35451  12.027   7.613  12.303  0.1855  0.1387  0.0055
32232W        W35452  12.057   5.132  12.692 -0.2348  0.0382 -0.1169
32233W        W35453   1.615   2.809   5.606  0.0335 -0.0357 -0.0592
32234W        W35454  17.815  12.585   4.496 -0.2024  0.1122 -0.0310
32235W        W35455   9.033  11.823   2.246 -0.1077 -0.1681  0.0535
32236W        W35456  14.971  11.448  10.595  0.0665  0.2070 -0.3657
32237W        W35457  10.176  17.679   5.852 -0.3726 -0.0619  0.0084
32238W        W35458  12.991   1.938  15.314 -0.1291 -0.0510 -0.3773
32239W        W35459  16.530   8.350  10.380  0.0368 -0.0051  0.1830
32240W        W35460   9.693   1.863   1.139  0.2998 -0.1499  0.1967
32241W        W35461  14.019   2.665  10.776  0.1442 -0.3279 -0.0654
32242W        W35462  10.884   7.703  10.335  0.0317 -0.2020  0.0989
32243W        W35463   2.029   9.419   1.018 -0.1936  0.0168 -0.0027
32244W        W35464   7.977  11.051   8.824 -0.2434 -0.1289  0.3997
32245W        W35465  15.676   8.971  10.058  0.3351  0.1001  0.0842
32246W        W35466   8.391   4.475   2.962  0.0008 -0.3463  0.1215
32247W        W35467  13.247   3.408   6.016 -0.2050 -0.0574  0.2413
32248W        W35468  12.354   7.773   5.065 -0.0249 -0.1007 -0.0876
32249W        W35469   9.485   6.891   6.659 -0.0755  0.2421 -0.1735
32250W        W35470  13.313   8.423   2.259  0.1942 -0.2036 -0.0971
32251W        W35471  11.173   2.234  12.509  0.2655 -0.0906 -0.1609
32252W        W35472  16.861   9.634   3.642 -0.3304 -0.1924  0.0978
32253W        W35473  14.691   6.599   1.637  0.0927  0.1278  0.0057
32254W        W35474   1.225   6.087   7.894  0.1088 -0.1010  0.1149
32255W        W35475   9.954   8.777   3.892 -0.2785 -0.1397 -0.1674
32256W        W35476   7.612   6.042   3.297  0.0381  0.2006  0.2630
32257W        W35477   9.745   7.374   0.423  0.3857  0.1860  0.0012
32258W        W35478   4.945  16.645   8.262 -0.1687  0.2769 -0.0226
32259W        W35479  14.050   8.630   5.083  0.0336  0.0689 -0.1152
32260W        W35480  17.921  14.995   5.300  0.0941 -0.1139 -0.1706
32261W        W35481  12.490   1.933  11.026 -0.0760 -0.0637 -0.0841
32262W        W35482   2.152  11.069   9.345 -0.0732 -0.0557  0.0655
32263W        W35483  14.417   6.854  12.195  0.0326 -0.3811 -0.1634
32264W        W35484  11.361   9.903   8.878 -0.1954 -0.1882 -0.2188
32265W        W35485   4.845   6.308  16.827 -0.0258  0.0111  0.1746
32266W        W35486  17.515  16.287   7.954 -0.0063 -0.0724 -0.0267
32267W        W35487   4.508   4.370   9.072  0.1646  0.1064  0.0943
32268W        W35488  14.701   3.040   9.385  0.0686  0.1382  0.2289
32269W        W35489   9.224   1.170  16.757  0.2711  0.0953  0.0302
32270W        W35490   5.811   4.679   6.376  0.2605 -0.2167 -0.1602
32271W        W35491  11.986   5.877   1.163  0.1882 -0.0310  0.0842
32272W        W35492  11.182  17.878   7.713 -0.1606  0.0928 -0.1307
32273W        W35493   5.573  16.153   6.653  0.1718 -0.2683  0.5294
32274W        W35494   0.825   6.472  11.097  0.1386 -0.1599 -0.2613
32275W        W35495   8.828   7.721   0.441  0.2151  0.0575  0.0242
32276W        W35496   6.301   0.986  15.895 -0.1297 -0.3458 -0.0107
32277W        W35497  14.490   5.100  18.214 -0.0432  0.0756  0.0823
32278W        W35498   9.063  17.436  17.734 -0.0570 -0.3237 -0.0059
32279W        W35499   0.066   3.405   4.911  0.1263 -0.1537  0.3692
32280W        W35500  18.247   3.497   3.006 -0.0470  0.1194 -0.0191
32281W        W35501  15.289  14.065   6.831 -0.0610  0.1363 -0.5197
32282W        W35502  13.823  11.127   9.998 -0.1601 -0.1640 -0.0564
32283W        W35503  10.127  10.567   2.745  0.0528  0.3120 -0.2852
32284W        W35504  11.271   0.124   3.068  0.2585  0.1456  0.1198
32285W        W35505  14.120   9.412   2.224 -0.1419  0.0568 -0.1186
32286W        W35506  10.638   7.268   4.720  0.1032  0.0439 -0.0184
32287W        W35507  12.223   5.341   7.160 -0.2009  0.1648  0.2343
32288W        W35508  15.837   4.111  12.387  0.1823 -0.5434 -0.0135
32289W        W35509  16.449   4.125   1.996 -0.1051  0.1493 -0.0155
32290W        W35510  14.685  13.186   2.836 -0.2220  0.3449  0.4334
32291W        W35511  17.680  11.052  12.511  0.0379 -0.1499  0.0366
32292W        W35512  17.211   6.065   8.000 -0.0701 -0.1885  0.0316
32293W        W35513  14.934  10.348   2.373  0.0351 -0.0347  0.0163
32294W        W35514  17.508   4.737   4.236 -0.0269  0.3536  0.2281
32295W        W35515  13.648   6.626   3.907 -0.0643 -0.0510  0.0164
32296W        W35516  14.113  12.375   2.544  0.0168 -0.0089  0.4689
32297W        W35517  15.763   9.981  14.408  0.0837 -0.0669  0.0604
32298W        W35518  10.722   1.761   6.998 -0.2383  0.2823 -0.0598
32299W        W35519   4.827   3.253  10.210  0.1669  0.0641  0.3065
32300W        W35520  16.799   4.800   2.481  0.0052 -0.0889  0.2384
32301W        W35521  15.987   1.010   8.185 -0.4713  0.0186  0.2962
32302W        W35522  13.382   6.151   7.588 -0.0334  0.0787 -0.0442
32303W        W35523   0.811   8.631   8.546  0.2409  0.0746 -0.0034
32304W        W35524  12.181  18.146   7.665  0.1346  0.3178 -0.0382
32305W        W35525  12.297   3.535  11.324  0.1140  0.1801 -0.2361
32306W        W35526  12.536   9.777   8.080 -0.1230  0.0641  0.0789
32307W        W35527  10.512   8.234  13.953 -0.1390  0.1189  0.1141
32308W        W35528  13.959   4.747   7.256  0.0983 -0.4367 -0.2179
32309W        W35529  10.543   6.053   5.422  0.0560  0.0182 -0.0291
32310W        W35530   9.205   6.073   3.899 -0.0342 -0.1206  0.1974
32311W        W35531  13.810  14.313   6.230 -0.3788 -0.0171 -0.1017
32312W        W35532  11.566  16.615   5.392 -0.4126 -0.1368  0.1279
32313W        W35533   8.453  11.259  14.568 -0.3786 -0.0569  0.1027
32314W        W35534  10.287   7.341  11.613 -0.0745 -0.1114 -0.2267
32315W        W35535  10.762   7.985   6.882  0.0942 -0.1028  0.0246
32316W        W35536  15.401   4.579  10.265 -0.1553 -0.0434 -0.1595
32317W        W35537  13.595   4.376  12.173 -0.2623 -0.0090 -0.1821
32318W        W35538  17.105  10.735  17.583  0.0793 -0.1712  0.0663
32319W        W35539   2.261   8.923   8.192 -0.1487 -0.1858 -0.2721
32320W        W35540  10.959   5.510  13.375  0.0056 -0.0995 -0.0385
32321W        W35541  17.571  17.335  14.723  0.0505  0.0728 -0.0290
32322W        W35542  15.742   6.915   9.591 -0.2338  0.0906 -0.4350
32323W        W35543   7.902   7.139   4.537  0.3686 -0.0102 -0.3281
32324W        W35544  11.447   6.689   2.512 -0.1328  0.1906  0.4829
32325W        W35545  13.636   7.301  13.620  0.1111  0.2514 -0.0002
32326W        W35546   4.178   2.906  14.534 -0.2786  0.3834  0.4695
32327W        W35547  10.823   9.624   7.588  0.0998  0.1997  0.0391
32328W        W35548  16.842   1.702  11.729 -0.2552  0.3726 -0.2097
32329W        W35549   0.538  12.334  14.765 -0.0248 -0.1776 -0.0922
32330W        W35550   4.412   5.873   6.464 -0.0253 -0.1799 -0.3814
32331W        W35551  16.471   5.179  16.712  0.2867  0.0939  0.0683
32332W        W35552   8.979   6.846  16.070 -0.1677 -0.0034 -0.0899
32333W        W35553  15.717   9.480  10.418 -0.1434  0.0962  0.1543
32334W        W35554  11.854   6.152  15.861  0.1001 -0.1649 -0.1797
32335W        W35555   1.305   8.208  14.830 -0.2150 -0.0782 -0.0700
32336W        W35556   6.625  14.640   6.794  0.1186  0.0066 -0.2018
32337W        W35557   3.137   7.906  15.325  0.1000 -0.1208 -0.1575
32338W        W35558   9.794   4.548  11.756  0.0275 -0.5900  0.1164
32339W        W35559   2.319   5.610  13.119  0.2124 -0.0097  0.2260
32340W        W35560  11.460   8.595   5.846  0.0637 -0.0702  0.0512
32341W        W35561  17.481   6.495  11.282  0.0784  0.0477 -0.2943
32342W        W35562  16.141   1.757  14.963 -0.2107 -0.0037  0.2000
32343W        W35563  14.603   8.944  12.565 -0.4446  0.4767  0.0069
32344W        W35564  12.785   6.995   4.216  0.4431 -0.0581 -0.0363
32345W        W35565   1.979   7.043   9.081  0.0256 -0.0920 -0.0427
32346W        W35566   9.484   7.279   6.980 -0.0895  0.1164 -0.1728
32347W        W35567   9.343   2.763  13.219 -0.0649  0.0002  0.0271
32348W        W35568  11.704  11.128  12.715  0.1020 -0.0725  0.1248
32349W        W35569  15.198   4.200   8.244 -0.0740 -0.0047  0.1774
32350W        W35570  13.044   8.751   5.292 -0.1532  0.0698 -0.1107
32351W        W35571  14.985   5.391  12.212  0.1465  0.0542  0.1255
32352W        W35572  17.108  11.285  12.794 -0.2686 -0.0957  0.4092
32353W        W35573  14.849   8.192   5.247 -0.1482  0.2304 -0.0224
32354W        W35574  13.129   3.109  16.860 -0.0854 -0.1562 -0.0410
32355W        W35575  10.699   4.369  14.582 -0.0718 -0.0130 -0.0015
32356W        W35576   1.969   6.623   6.425  0.1260 -0.0868  0.3369
32357W        W35577   7.949   0.460  12.014  0.1099  0.1170  0.0515
32358W        W35578  16.456   4.783  11.641 -0.1159 -0.0097  0.1064
32359W        W35579   9.438  12.089   3.239 -0.2912 -0.1766 -0.0521
32360W        W35580  17.626   7.345   6.915  0.0830 -0.2743  0.0770
32361W        W35581  17.755   8.889  15.185  0.2167 -0.1466 -0.1193
32362W        W35582   3.616   1.226   7.022  0.2633 -0.1334  0.2053
32363W        W35583  16.232   5.043  12.042 -0.0327 -0.2347 -0.1292
32364W        W35584  17.629   3.139   6.448 -0.3161 -0.0085 -0.1314
32365W        W35585  14.141   1.550  15.086  0.2503  0.0995 -0.2285
32366W        W35586  16.907   2.221   5.831  0.2125  0.2088  0.0959
32367W        W35587  17.382  10.974  13.749 -0.1530 -0.1120  0.2168
32368W        W35588  10.474   3.577  12.194  0.4199 -0.2611 -0.1526
32369W        W35589  11.716  15.942   1.266 -0.1020  0.1051 -0.0905
32370W        W35590  11.013  14.081  11.804 -0.3345  0.0070 -0.1258
32371W        W35591   0.159   2.062   3.110  0.0326 -0.0734 -0.2083
32372W        W35592  15.967  10.030   7.941 -0.0967 -0.0858 -0.1852
32373W        W35593  13.755   2.014  16.900 -0.0228  0.2013  0.0803
32374W        W35594   8.419   7.117  15.147  0.2373 -0.1724 -0.3161
32375W        W35595   1.627   7.370  11.749  0.1826 -0.4286  0.1551
32376W        W35596  15.574  18.043  13.337 -0.0319 -0.0582 -0.0585
32377W        W35597  11.146   4.582  12.253 -0.2013  0.1068 -0.0052
32378W        W35598  12.008   2.271   0.403  0.2681 -0.1514  0.1350
32379W        W35599  11.031   3.768  10.624 -0.0741  0.0676  0.1064
32380W        W35600   9.782   6.121   9.668  0.2128  0.2646 -0.2273
32381W        W35601  13.609  15.462   7.323  0.1941 -0.1453 -0.3128
32382W        W35602  11.446  10.476   6.188 -0.0148  0.2372 -0.0361
32383W        W35603   6.093   1.809   3.683  0.0127  0.0412  0.1922
32384W        W35604   4.793   3.200   2.488 -0.0657  0.1385  0.0030
32385W        W35605   0.003   7.568   8.236  0.3336 -0.1773  0.0008
32386W        W35606  14.766   8.903   5.634 -0.1359  0.0133 -0.1003
32387W        W35607  12.419   3.354   7.694  0.1937 -0.1095 -0.2572
32388W        W35608  18.081   1.856  10.997  0.3382 -0.1426 -0.1952
32389W        W35609  12.693   1.744   8.916 -0.1965  0.2318 -0.4209
32390W        W35610   0.468   6.250  11.527  0.0577  0.2101  0.4372
32391W        W35611   0.402   8.414  10.495  0.2583 -0.0045  0.2376
32392W        W35612  16.372   7.206   5.874  0.0981  0.0206 -0.4585
32393W        W35613  13.828   7.470  10.848 -0.1534 -0.2861  0.2254
32394W        W35614  13.466   2.608  14.474 -0.0644 -0.2791 -0.1720
32395W        W35615  15.075   9.845   9.015 -0.0876 -0.2523  0.1072
32396W        W35616  15.723   9.238  12.683  0.0395 -0.0168  0.0709
32397W        W35617   5.456   6.834   6.455 -0.1834 -0.2030 -0.1795
32398W        W35618  10.301   6.794  16.275 -0.0233  0.0459 -0.0366
32399W        W35619  14.960   6.677  13.538 -0.1047  0.0609 -0.1943
32400W        W35620  18.084   9.360  10.152  0.1805  0.0983  0.3238
32401W        W35621   5.361   3.855   7.002 -0.0893 -0.0555  0.0583
32402W        W35622  10.130  15.742  10.746 -0.2583 -0.1063 -0.0924
32403W        W35623  15.917  12.012   5.663 -0.1762  0.0710  0.0899
32404W        W35624  10.025  17.602   7.141  0.1344 -0.2352 -0.1657
32405W        W35625  14.399   1.695   9.399  0.0272 -0.0471 -0.0982
32406W        W35626  14.944   7.535  13.247 -0.1458 -0.1405 -0.2839
32407W        W35627  12.727   5.429  12.383  0.0241  0.0760  0.1967
32408W        W35628  10.759   1.914  12.734 -0.0875 -0.0949  0.0664
32409W        W35629  16.023   6.087  10.591 -0.0758 -0.1122 -0.0226
32410W        W35630  16.880   6.428  17.002  0.1522  0.1644 -0.1584
32411W        W35631   7.739  12.765   9.148  0.2184  0.0120 -0.2109
32412W        W35632  12.108   6.145   2.659  0.1122  0.1035  0.3313
32413W        W35633  14.278   5.945   9.865  0.0277  0.1075  0.0575
32414W        W35634  15.738   7.577   9.403  0.0103  0.3281 -0.0888
32415W        W35635  12.461   8.188   1.933 -0.1616  0.0370  0.0166
32416W        W35636  17.634   3.646   6.276 -0.1110  0.0106 -0.1762
32417W        W35637  15.356   7.792  14.592 -0.2581  0.0075 -0.0873
32418W        W35638   9.529  11.208  11.888  0.3553  0.1846 -0.1159
32419W        W35639  17.728   1.510  13.607 -0.2364 -0.2609 -0.1631
32420W        W35640   9.198   0.595  15.258 -0.2772  0.0889 -0.0428
32421W        W35641   4.480   5.961   7.062  0.0310 -0.1341 -0.0582
32422W        W35642   0.121   1.088   3.503  0.2387 -0.1603 -0.1942
32423W        W35643   1.407  10.408   9.270 -0.2308  0.0061  0.2107
32424W        W35644  11.287   3.180   9.493  0.0743  0.0449 -0.1796
32425W        W35645  17.614   3.955   1.096 -0.0405 -0.3265  0.0346
32426W        W35646  14.876   7.755  15.733 -0.0497 -0.0915 -0.0311
32427W        W35647  11.789  18.107  11.766 -0.0474 -0.1254 -0.5680
32428W        W35648  11.912   3.180  12.463 -0.1567 -0.2289 -0.0107
32429W        W35649   8.043   9.521  11.462  0.1403  0.1589  0.0872
32430W        W35650  15.929  15.958   3.437 -0.1731  0.1468  0.0274
32431W        W35651   6.374   2.060   8.171 -0.0020 -0.2636 -0.1766
32432W        W35652  17.932   7.268   9.079  0.0306 -0.3605  0.1469
32433W        W35653   8.722   4.679   4.286 -0.2657  0.0008  0.0640
32434W        W35654  10.466   1.224   2.217  0.0308 -0.0830 -0.1730
32435W        W35655  14.262   0.113  11.611 -0.1034  0.2968 -0.0688
32436W        W35656  17.353   1.115   7.289 -0.3541  0.0941  0.0916
32437W        W35657  13.760   0.015   9.080  0.0115  0.4087  0.1733
32438W        W35658   1.880   5.743   8.168 -0.1490 -0.2334 -0.1849
32439W        W35659   9.199   2.111  18.147 -0.0088  0.3418  0.0025
32440W        W35660  13.710   9.397  10.762 -0.1121 -0.0884  0.1404
32441W        W35661  16.675   9.918   3.277 -0.2495  0.1759  0.1563
32442W        W35662  17.115   3.058   6.003  0.3678 -0.0334 -0.1111
32443W        W35663  14.083   5.894   9.348  0.0962 -0.2078  0.1626
32444W        W35664  10.817   6.123  12.676 -0.5230 -0.0558 -0.2480
32445W        W35665   9.184   2.205   7.007 -0.0408  0.1188  0.0895
32446W        W35666  16.138  17.221   4.206 -0.1315 -0.0562 -0.0060
32447W        W35667  17.103   5.090  11.761 -0.1129  0.0388  0.2064
32448W        W35668   6.613   5.403   5.624 -0.2581 -0.0852  0.0376
32449W        W35669  15.034  10.382  11.314 -0.0148 -0.1481  0.1300
32450W        W35670   1.724  11.158  12.875 -0.1956 -0.2702  0.1530
32451W        W35671  14.402   5.305  16.426 -0.5202  0.1587  0.1092
32452W        W35672  15.457  10.037  11.708  0.0037 -0.0534 -0.0693
32453W        W35673  10.940  17.082   3.715  0.0487 -0.1871 -0.1423
32454W        W35674  12.305   4.683  10.018 -0.1989 -0.1495  0.2445
32455W        W35675  11.981   9.666  10.611  0.4478 -0.0721 -0.0092
32456W        W35676  17.864   6.213   7.492 -0.2220  0.0580  0.3080
32457W        W35677  11.334   4.889  10.820  0.4219  0.1800 -0.1346
32458W        W35678   9.586   2.616  15.141 -0.2538 -0.0917  0.1026
32459W        W35679  12.855  10.070  16.189  0.0995 -0.1529 -0.1457
32460W        W35680  17.833  12.647   1.165 -0.2899 -0.1181 -0.1386
32461W        W35681  16.516  10.462  17.914 -0.3110  0.1193  0.1615
32462W        W35682  14.955   7.375   8.741 -0.2918  0.1343  0.0269
32463W        W35683   4.449   1.956  11.007 -0.2006  0.0043 -0.3483
32464W        W35684  14.890   0.047  10.471 -0.0142 -0.2314 -0.1020
32465W        W35685  17.787  11.482   2.478  0.0256 -0.0462 -0.0766
32466W        W35686   9.627  17.485   8.647 -0.2424 -0.1624  0.0771
32467W        W35687  15.790   9.610   3.412  0.1100  0.1956 -0.0115
32468W        W35688   2.582   2.315   9.589  0.0509 -0.1235 -0.3656
32469W        W35689  17.548   9.211  11.068  0.0948 -0.0823 -0.4321
32470W        W35690  18.177  18.058  14.404  0.0202  0.1750  0.1799
32471W        W35691  13.790  10.283   5.110  0.0401  0.0083 -0.1088
32472W        W35692  10.454  11.601   8.813  0.2762 -0.0644  0.0162
32473W        W35693  13.944   6.419   3.512  0.0762  0.0552  0.0997
32474W        W35694  12.838   2.323  12.290 -0.0271  0.0242 -0.0294
32475W        W35695  18.008   9.874  11.277  0.1462  0.1225 -0.0501
32476W        W35696   9.455   3.820   9.379 -0.0995  0.3853 -0.1994
32477W        W35697   8.644   6.941   3.014  0.2094  0.4177 -0.2865
32478W        W35698   1.807  10.065  14.373  0.1545 -0.0863  0.1204
32479W        W35699   2.741   5.906   4.827 -0.0499  0.1400  0.1720
32480W        W35700  13.076   3.223   4.959 -0.0634 -0.1130  0.0387
32481W        W35701  12.420   3.808   8.596  0.0154 -0.0678  0.0835
32482W        W35702  11.668   2.656  10.253  0.1240  0.1292 -0.0017
32483W        W35703  11.119   3.607  14.963  0.0022 -0.1319 -0.4540
32484W        W35704  10.584   5.888  10.068  0.1066  0.1106 -0.2583
32485W        W35705  15.115   2.207  16.866  0.1205  0.0834 -0.3247
32486W        W35706   1.449   4.038  14.780 -0.1383 -0.4158  0.0430
32487W        W35707  14.299   1.215  15.685  0.2071  0.2877 -0.0718
32488W        W35708   3.198   9.691  14.541  0.3823  0.2279 -0.0247
32489W        W35709  15.444   0.548  15.185 -0.1070 -0.4066 -0.0550
32490W        W35710  17.068   9.444  10.769  0.1097 -0.2059 -0.0611
32491W        W35711  13.931   5.508   8.402  0.0138  0.2683  0.2843
32492W        W35712  13.724   4.796   8.444  0.3090  0.1977  0.3632
32493W        W35713  11.676   9.120   2.181  0.0056 -0.1738 -0.2999
32494W        W35714   1.047  17.019   8.313 -0.1397  0.1048  0.1450
32495W        W35715  12.872  17.326   2.659 -0.2281  0.0717  0.2204
32496W        W35716  14.999  17.191   2.802 -0.1528 -0.2747  0.0739
32497W        W35717  14.440  10.201   2.306 -0.2440 -0.3717  0.1118
32498W        W35718  12.792   7.063  17.475  0.0828  0.2978 -0.1081
32499W        W35719  12.171   2.133   6.670  0.2073  0.1343  0.1385
32500W        W35720  11.209   4.005   5.992 -0.0710 -0.1749 -0.1997
32501W        W35721  10.389   6.169   7.285  0.3675 -0.0344 -0.2291
32502W        W35722  12.336   7.776   7.218  0.1019  0.1681 -0.1047
32503W        W35723   7.300   7.972  10.192  0.1743  0.0280  0.0889
32504W        W35724  14.326   5.972   4.836 -0.2597 -0.0974 -0.0445
32505W        W35725  13.655   8.057   9.058  0.0310  0.2135 -0.0016
32506W        W35726  14.534   4.729   3.297  0.2289 -0.0681 -0.0159
32507W        W35727  15.956   5.483   4.174  0.4084 -0.0548 -0.0299
32508W        W35728   7.737   7.640   1.696 -0.3594  0.2132 -0.1436
32509W        W35729   2.029  11.562  15.695  0.1028  0.1047 -0.0797
32510W        W35730   7.265   7.155   3.279 -0.1311  0.0187  0.2474
32511W        W35731  12.395   0.508   4.341  0.0580 -0.2457  0.1708
32512W        W35732  13.979   5.579   9.741  0.0712  0.2199 -0.3168
32513W        W35733  11.633   3.644   6.153 -0.2512 -0.2304 -0.1356
32514W        W35734  16.782  11.439  10.541  0.2675 -0.0748 -0.0226
32515W        W35735  11.128   1.562   6.242  0.3661  0.2659  0.1131
32516W        W35736  11.191   7.567   9.586  0.3291 -0.0485  0.0652
32517W        W35737  14.268   1.170  12.921 -0.1995 -0.1463 -0.1710
32518W        W35738   4.745   6.352  14.553 -0.1001  0.1390  0.3897
32519W        W35739  14.266   5.146   4.259  0.1445 -0.0206 -0.1553
32520W        W35740   2.835  18.067  17.966 -0.3554 -0.1528 -0.0004
32521W        W35741  13.537   2.645  16.298 -0.1008  0.2596  0.0856
32522W        W35742   7.698  17.305  14.622  0.1296  0.0240 -0.0122
32523W        W35743  16.262   8.860  15.886  0.1549 -0.1428  0.0354
32524W        W35744  12.011   5.871   4.512  0.3540  0.2369  0.4932
32525W        W35745  14.044   8.819  17.914  0.2930  0.0249  0.0267
32526W        W35746  16.289   5.290   9.031  0.0308 -0.0192  0.1279
32527W        W35747   1.738   8.308   8.326 -0.1477  0.2965 -0.0687
32528W        W35748  15.898   7.911  11.173  0.1989  0.3120  0.0935
32529W        W35749   0.715   2.128   9.817  0.1430 -0.3323 -0.1066
32530W        W35750   9.995   7.901  14.508  0.1724 -0.1215 -0.0552
32531W        W35751  16.093   2.067  13.803 -0.0279 -0.2630  0.0261
32532W        W35752   6.855   9.561  11.161  0.1742 -0.1465 -0.2114
32533W        W35753  13.223   7.671   8.971 -0.0427  0.0907 -0.0232
32534W        W35754  17.538  10.660   1.986 -0.0197 -0.1603  0.1948
32535W        W35755  11.500  10.937   9.689  0.0263 -0.0506  0.0056
32536W        W35756  10.236   2.263   8.097 -0.0163 -0.1729  0.0828
32537W        W35757   7.883   7.055  10.650 -0.1937  0.0252 -0.2531
32538W        W35758   8.562   1.185   3.159  0.2627 -0.0526  0.2076
32539W        W35759  14.591   0.867  12.287 -0.2278  0.0098 -0.1179
32540W        W35760   8.190  10.313  18.187  0.1066  0.3932  0.0817
32541W        W35761  10.475  16.971   6.463  0.0237 -0.0090 -0.4181
32542W        W35762  13.613  11.518   8.378  0.2457 -0.0723  0.2179
32543W        W35763  10.423   2.605   7.141  0.0426 -0.1194  0.3540
32544W        W35764  10.360   1.943   8.453 -0.1973  0.0601  0.2044
32545W        W35765  17.976  12.476   8.511  0.1180 -0.2335  0.0424
32546W        W35766  12.443  12.115  13.288 -0.1280 -0.2090 -0.0709
32547W        W35767  14.948   8.655   8.270  0.0770  0.1003  0.0205
32548W        W35768   9.525  15.372  15.080  0.2527  0.1609 -0.0560
32549W        W35769   4.059  16.101   6.840 -0.2669  0.3956 -0.0496
32550W        W35770  12.506   9.201  12.762  0.0053 -0.1054 -0.2795
32551W        W35771  12.651   6.126   9.430 -0.5976  0.1296  0.0207
32552W        W35772  12.252   5.027  14.282 -0.0390  0.0026  0.0060
32553W        W35773  12.659  10.953   4.226  0.0890 -0.3664  0.0680
32554W        W35774  12.809   1.795  14.808 -0.0455 -0.1744  0.1520
32555W        W35775  17.237  11.304  10.313 -0.0941 -0.0467  0.3371
32556W        W35776   1.776   6.125  12.365 -0.0907 -0.1550 -0.3904
32557W        W35777  16.554   9.274  13.037 -0.1916 -0.1850 -0.1160
32558W        W35778  13.790  12.689   7.713 -0.2511 -0.1928  0.1592
32559W        W35779  12.467   8.310   4.122  0.1176  0.0286  0.1648
32560W        W35780   7.894   6.803  13.615 -0.0010  0.1336  0.1246
32561W        W35781  16.122   3.900  11.238  0.0008  0.0387  0.0081
32562W        W35782  14.363  15.125   6.808 -0.0664 -0.3204 -0.3105
32563W        W35783   9.825   8.796   8.447  0.0006 -0.1375 -0.0626
32564W        W35784  14.544   1.719   9.864 -0.1318 -0.5105  0.1659
32565W        W35785  10.676  14.995  18.035 -0.0388 -0.2289  0.1722
32566W        W35786  16.704  13.248  16.514  0.1304 -0.0566 -0.2491
32567W        W35787  14.415   7.446  15.418 -0.1512  0.1605  0.3183
32568W        W35788  14.837   2.406   2.225 -0.2405 -0.2837  0.1226
32569W        W35789   8.980   4.410  12.802  0.1457 -0.3527 -0.0149
32570W        W35790  17.510   6.333  16.691 -0.1660  0.2503  0.3027
32571W        W35791   4.056   1.809  14.181  0.1848 -0.0013 -0.1289
32572W        W35792  14.293   8.504  14.369  0.0050 -0.1455  0.3515
32573W        W35793  14.036   6.615   9.293 -0.2001 -0.2602 -0.1522
32574W        W35794  12.297   1.549   8.272 -0.2110 -0.0314 -0.0543
32575W        W35795  11.738  14.976   5.530 -0.0692 -0.0876 -0.1047
32576W        W35796  14.763  14.855   9.698  0.3071 -0.1296 -0.0231
32577W        W35797  13.927  12.648  11.338  0.1538  0.0049 -0.2219
32578W        W35798  13.515   3.003  17.624 -0.1747 -0.0973 -0.1661
32579W        W35799  13.918  10.905   2.234  0.3690  0.1470  0.0569
32580W        W35800   5.883   2.068  13.912 -0.0612  0.0534  0.1302
32581W        W35801  11.654   4.077   1.870  0.0269  0.0991 -0.1138
32582W        W35802   9.749   8.248   5.695 -0.3999  0.1574 -0.0243
32583W        W35803   4.866   7.470  10.011  0.1608  0.1493  0.0339
32584W        W35804  10.414   6.353  13.560 -0.2204 -0.0207 -0.1705
32585W        W35805   0.778   6.143  11.936  0.3856  0.2664 -0.0616
32586W        W35806  13.962   3.787   9.471  0.1174  0.2437  0.1549
32587W        W35807  10.342   4.679  15.210  0.0390 -0.3996  0.1133
32588W        W35808  15.245   2.668   7.612  0.1281 -0.1422 -0.1385
32589W        W35809  11.540   5.835   7.994 -0.3111  0.1035  0.1551
32590W        W35810   0.186   3.334  16.332 -0.2218 -0.0426  0.2929
32591W        W35811  11.498  11.796  10.331  0.3143  0.1124 -0.2414
32592W        W35812  14.121   6.613   7.468 -0.4518  0.0124  0.2732
32593W        W35813  13.392   1.628  10.305 -0.1603  0.1684 -0.1839
32594W        W35814   9.155   0.733   1.651  0.1437  0.1554  0.3254
32595W        W35815  12.275   7.033   3.885  0.0168  0.2835 -0.1738
32596W        W35816  16.650   8.457  14.480 -0.0356 -0.1466  0.2317
32597W        W35817   6.124   9.986   9.076 -0.5324 -0.2531 -0.0259
32598W        W35818  15.474  11.057  14.063  0.0487 -0.1328 -0.2847
32599W        W35819  12.441   3.653   8.130  0.2203 -0.0723  0.1582
32600W        W35820   4.398  18.243   4.776  0.2195  0.4035  0.2503
32601W        W35821  11.648   9.405   3.939 -0.0793 -0.0147  0.2507
32602W        W35822   1.188  13.244   4.290 -0.0201  0.3054  0.0937
32603W        W35823  17.646   4.406  14.588 -0.0338  0.1507 -0.0622
32604W        W35824  12.598  18.009   0.883 -0.0221  0.0297  0.0460
32605W        W35825   5.399   5.897   2.846 -0.2394 -0.0166  0.0012
32606W        W35826   9.355  12.180   8.984 -0.0470  0.0438 -0.1583
32607W        W35827   3.374   4.659   3.416  0.2148  0.1522 -0.0472
32608W        W35828   7.669   3.650  11.702 -0.2075 -0.2385 -0.0917
32609W        W35829  11.953   3.698   4.460 -0.1201  0.1131 -0.0038
32610W        W35830  16.364  13.428  13.243 -0.1832  0.1066 -0.0303
32611W        W35831   3.905   6.899   8.401  0.1250  0.1251  0.0362
32612W        W35832   8.716   6.432  14.483  0.2714 -0.0175 -0.0949
32613W        W35833  14.164   6.893  15.180 -0.1281 -0.0985  0.1518
32614W        W35834   1.339   5.835   9.877 -0.0296 -0.1974  0.1898
32615W        W35835   9.721   4.715   6.982  0.1325 -0.0856  0.0385
32616W        W35836  12.761   5.099  13.802  0.0588 -0.0178  0.0103
32617W        W35837  11.150   5.964   6.209  0.2703 -0.1604 -0.2466
32618W        W35838   1.281   8.713   6.777  0.2432 -0.5337  0.2231
32619W        W35839  14.223   6.796  11.681  0.4630 -0.1778 -0.4950
32620W        W35840   1.579   8.678   9.606 -0.2605  0.0986  0.0288
32621W        W35841   7.239   3.125  17.575  0.0276 -0.0465 -0.2101
32622W        W35842  16.055   8.855  14.772 -0.2260 -0.0141  0.2903
32623W        W35843  13.808  18.128  12.602  0.0535  0.0973 -0.0509
32624W        W35844   1.625   2.709   8.530  0.2325  0.0017  0.1485
32625W        W35845   9.619   0.568   9.090  0.2424 -0.2281  0.0858
32626W        W35846  14.556   3.685   7.764  0.2832 -0.0251 -0.0221
32627W        W35847  14.959   6.795  11.468  0.0550  0.2737 -0.0200
32628W        W35848  11.972   2.455   5.276  0.1732 -0.0848  0.2458
32629W        W35849   7.265  14.878   8.203  0.0738  0.1666  0.0354
32630W        W35850   6.466   8.743  15.585 -0.0344  0.2919  0.2065
32631W        W35851  16.605   7.043  16.376 -0.0554  0.0725 -0.0237
32632W        W35852  14.467   2.877   6.418 -0.1252 -0.1019  0.4412
32633W        W35853   4.879   1.822  15.659  0.0857 -0.0336 -0.3154
32634W        W35854  13.822   3.292  16.158  0.0134  0.0291 -0.2700
32635W        W35855  11.693   4.578  13.077  0.2171  0.2046  0.0665
32636W        W35856   1.867   5.590  13.896 -0.3433  0.0764  0.4039
32637W        W35857  18.131   8.142   5.190 -0.2177 -0.0726  0.0732
32638W        W35858   9.397   5.314   8.419  0.0727 -0.1554 -0.2184
32639W        W35859  14.464   6.124   7.582  0.0077  0.2190 -0.2604
32640W        W35860  15.035   7.838   4.427 -0.2064  0.0406 -0.1407
32641W        W35861   9.485   6.522  13.388 -0.0588 -0.2469  0.2478
32642W        W35862   8.029   5.934  16.030  0.2296 -0.3185 -0.3267
32643W        W35863  13.461   3.040   8.311 -0.2364 -0.0267  0.0861
32644W        W35864  14.232   4.733   9.580  0.1266  0.0971 -0.1959
32645W        W35865  11.119   5.847  11.765  0.1087 -0.1985 -0.3795
32646W        W35866   9.802   6.814  12.546  0.0606 -0.0145  0.0025
32647W        W35867  10.423  18.058  14.260  0.1996  0.0352 -0.0363
32648W        W35868   1.168   1.142   3.667 -0.0827 -0.0113 -0.1321
32649W        W35869   1.287   8.798   8.685  0.0037  0.2860 -0.0699
32650W        W35870   2.392   9.246  11.953 -0.1407  0.1212  0.1813
32651W        W35871  12.835   9.384  11.066  0.0181 -0.0992  0.2421
32652W        W35872  17.677   5.343   7.800  0.0541 -0.1492  0.4680
32653W        W35873  15.520   8.438   7.469 -0.0995  0.0452 -0.1273
32654W        W35874   5.996   8.028   5.261  0.0228 -0.0823  0.4959
32655W        W35875  15.979   5.035   9.296 -0.4398 -0.1654  0.1990
32656W        W35876  10.557   8.768   2.750 -0.1578 -0.0865 -0.0413
32657W        W35877  12.344   6.416   8.695 -0.0832  0.1923 -0.0006
32658W        W35878  12.651   7.898  10.573  0.2159  0.3720 -0.2871
32659W        W35879  13.159  14.061   7.518  0.3002 -0.1826 -0.1358
32660W        W35880  15.826   6.310   8.794  0.1189 -0.1022 -0.0055
32661W        W35881  14.144   5.097   9.939 -0.0914 -0.0237  0.1694
32662W        W35882  14.029   4.321  13.906  0.1861  0.1494  0.2474
32663W        W35883  13.429   1.167  10.578  0.3360  0.0119  0.0245
32664W        W35884  12.500   1.744   9.825 -0.0794 -0.4172  0.0255
32665W        W35885  10.545   7.613   7.233 -0.0394 -0.0056 -0.1082
32666W        W35886   4.189   5.864  10.880  0.0498  0.0060  0.2139
32667W        W35887  17.154   2.026  10.519  0.2185 -0.3264 -0.1886
32668W        W35888  18.039   3.520   6.014  0.3650 -0.0375 -0.0710
32669W        W35889  13.699   0.359   8.413  0.2919 -0.0724 -0.1075
32670W        W35890  12.333   6.739   9.580 -0.0639  0.0992  0.1333
32671W        W35891   6.741   5.319  11.311 -0.1641  0.5829  0.1043
32672W        W35892   8.711   0.981  15.132  0.2163  0.3600 -0.2658
32673W        W35893  13.308   8.639  14.435 -0.0979  0.1122 -0.1172
32674W        W35894   8.063   3.137   3.961 -0.0940 -0.3142 -0.0630
32675W        W35895   9.537   2.621  15.658 -0.0370  0.0984 -0.0297
32676W        W35896  14.517   2.985  13.126 -0.2492  0.0874  0.0249
32677W        W35897  10.187   8.348  15.802  0.0263  0.1246 -0.2197
32678W        W35898  13.431  14.068  10.163 -0.0750  0.1370  0.0028
32679W        W35899  12.212   2.698   2.934  0.2325 -0.0228 -0.0525
32680W        W35900   8.507   5.866   6.579 -0.2400 -0.1657  0.1589
32681W        W35901  11.440   5.156   3.790  0.1404 -0.3564  0.1643
32682W        W35902  17.404   3.838   9.247 -0.0557 -0.1051 -0.1162
32683W        W35903  14.876   5.297  10.024  0.0934 -0.0676 -0.1260
32684W        W35904  11.295   2.680   4.687 -0.2836  0.3145 -0.2723
32685W        W35905   4.365   1.148   3.376 -0.0368 -0.2554  0.2243
32686W        W35906  13.488   8.496   7.437 -0.1146  0.2603 -0.1380
32687W        W35907  12.236  11.697  14.511 -0.0287  0.1416  0.1175
32688W        W35908   2.834   7.189  15.107  0.2155  0.3665 -0.0790
32689W        W35909  16.245   7.703  17.511 -0.1985  0.2666 -0.2358
32690W        W35910  15.044  17.560   3.170  0.0886 -0.0124 -0.1339
32691W        W35911  11.107   4.635  11.738  0.0647  0.5203 -0.0162
32692W        W35912  14.563   0.395  10.237 -0.0775 -0.3309  0.0504
32693W        W35913  13.754   3.539   7.748 -0.0074 -0.4956  0.0142
32694W        W35914  11.579   6.737  12.805  0.0162  0.2451  0.1763
32695W        W35915  12.391   1.453  10.769 -0.3576  0.1232  0.0309
32696W        W35916   9.195   5.857  16.851 -0.3314 -0.2555  0.0643
32697W        W35917   7.709   4.585  10.582  0.0188 -0.0160 -0.0114
32698W        W35918  14.128   8.309  11.645 -0.3169  0.2599  0.1414
32699W        W35919  12.773  17.215  11.955 -0.1706 -0.1099  0.2693
32700W        W35920  14.362   1.722  11.138 -0.1640 -0.0784 -0.0167
32701W        W35921  13.336  13.457   7.405  0.0690  0.1447 -0.0782
32702W        W35922  17.093  11.948  12.069  0.0527  0.0436  0.1145
32703W        W35923   1.039   7.639  10.412 -0.0888 -0.1407  0.2271
32704W        W35924  17.397   7.074  13.463  0.2405  0.2803 -0.0827
32705W        W35925  12.551   4.081  15.344  0.2899 -0.2302 -0.0448
32706W        W35926  18.121   5.336   9.166 -0.0524 -0.0145  0.1394
32707W        W35927  16.035   2.551   4.016  0.0661 -0.2912  0.1349
32708W        W35928   6.204  13.813  11.080 -0.2702  0.1193 -0.1441
32709W        W35929  11.979   4.747   9.678 -0.3176  0.1475  0.1956
32710W        W35930   1.387   5.272   2.543  0.1259  0.2641 -0.0831
32711W        W35931  10.748  10.196  13.764  0.1136  0.0670 -0.0629
32712W        W35932  10.245   2.670  17.807 -0.1171 -0.0678 -0.1616
32713W        W35933  15.498   1.891   3.945 -0.0566  0.0787 -0.0620
32714W        W35934   7.732  11.544  11.558  0.0682  0.1629 -0.1666
32715W        W35935   5.498   2.232   1.403 -0.1786 -0.0237 -0.1683
32716W        W35936  17.039   7.179  10.785  0.2873 -0.1064 -0.2234
32717W        W35937  11.156   4.261  17.743  0.2011  0.4238  0.2016
32718W        W35938  17.438   8.364  13.914 -0.0654 -0.1330 -0.1292
32719W        W35939  16.392   8.474  13.518 -0.1408  0.2270  0.3130
32720W        W35940  11.828   1.249   2.012 -0.1368  0.1663  0.1575
32721W        W35941  10.828   4.941   8.751  0.1792 -0.1012  0.1052
32722W        W35942  14.100  12.836  13.825 -0.2598 -0.0249 -0.3514
32723W        W35943  12.967  17.633   0.622 -0.2360 -0.0406 -0.3835
32724W        W35944   8.804   4.838  12.116 -0.1508 -0.2356 -0.2671
32725W        W35945  12.222   6.665  14.173  0.0861  0.0518  0.2255
32726W        W35946   2.695   9.698  16.832  0.0554  0.2533 -0.0012
32727W        W35947  14.911   6.065   9.041  0.3285  0.1533 -0.0839
32728W        W35948   8.131  17.502   6.630  0.2567 -0.0751 -0.1049
32729W        W35949   6.899  11.344  12.626  0.0023  0.0180 -0.3385
32730W        W35950  13.784   8.122  15.019  0.1313 -0.0476  0.0362
32731W        W35951  12.766   7.272  14.793  0.1550 -0.1259 -0.1453
32732W        W35952  11.683   6.394  14.213  0.0659 -0.3278  0.0753
32733W        W35953   2.752   9.468  11.252 -0.0703 -0.1406  0.0073
32734W        W35954  14.877   0.598  13.922 -0.0181 -0.0966  0.0213
32735W        W35955  13.228   3.670  10.863  0.1320  0.1510  0.0430
32736W        W35956   9.511   3.837  16.840  0.0631 -0.3136 -0.1624
32737W        W35957  14.356   6.276  14.011  0.1256  0.0655  0.2965
32738W        W35958  15.620   3.668  15.872  0.1503 -0.0471  0.0693
32739W        W35959   8.085   1.305   4.857  0.2361  0.2054 -0.0127
32740W        W35960   0.638   2.803  12.736  0.0120 -0.1642  0.2040
32741W        W35961   6.815   7.706  15.254  0.2083 -0.0250 -0.0258
32742W        W35962  14.371  11.600  14.978  0.0820  0.0432  0.0177
32743W        W35963  11.266   4.179  13.324 -0.2385  0.0900 -0.3255
32744W        W35964   8.607   5.768   7.040 -0.1984  0.1665 -0.1194
32745W        W35965  15.075   6.594  13.028  0.0740  0.2259  0.1484
32746W        W35966  17.323   2.142  15.702  0.1559  0.1352 -0.0047
32747W        W35967  14.486   8.230  10.045 -0.2025  0.2070 -0.1666
32748W        W35968   4.179   7.924   4.836  0.1762  0.2297  0.0396
32749W        W35969  11.649  10.469   6.735  0.1461 -0.2433  0.0309
32750W        W35970  16.105   8.806   9.132 -0.0776  0.1477 -0.2735
32751W        W35971  13.284   0.355  16.246 -0.0297  0.2379  0.0492
32752W        W35972   2.940   4.474   4.943  0.0016  0.3795 -0.0059
32753W        W35973   4.139  16.145   0.499  0.0442  0.1284 -0.3476
32754W        W35974  12.289  17.312  10.245 -0.1865  0.1970  0.1692
32755W        W35975   8.536   9.355   8.160 -0.0049  0.0728  0.2193
32756W        W35976   8.538   4.856   5.861  0.1832 -0.3246  0.1043
32757W        W35977  14.461   4.106  17.124 -0.0850 -0.0555 -0.0257
32758W        W35978   1.274   7.897   4.628 -0.0136  0.3308  0.2123
32759W        W35979   4.147   9.815   9.921  0.0290 -0.1602 -0.0646
32760W        W35980  12.634   1.427   0.417  0.3952 -0.0877 -0.1428
32761W        W35981  12.796   9.157   0.837  0.1516  0.1621 -0.0296
32762W        W35982  16.376   1.237   8.798  0.0459  0.4027 -0.1328
32763W        W35983   2.764   6.152  12.029 -0.1257  0.0225 -0.0704
32764W        W35984   8.205   0.320  12.893 -0.3127  0.2204  0.2412
32765W        W35985  11.255   2.540  14.198  0.1088  0.0101 -0.1455
32766W        W35986  17.116   5.444   1.252  0.0109 -0.0152  0.1179
32767W        W35987   8.589   7.231  14.612  0.4344 -0.1662 -0.1981
32768W        W35988  12.252   3.716   9.129 -0.0396  0.1007 -0.1463
32769W        W35989  12.062  10.536   3.550  0.4892 -0.3355  0.0496
32770W        W35990   7.090  15.935  10.809 -0.0119 -0.0350 -0.1935
32771W        W35991  13.861   8.386  16.034 -0.0259 -0.2049 -0.1147
32772W        W35992   7.583   6.909  16.724  0.0937 -0.1146  0.1117
32773W        W35993   5.452   8.033  17.198 -0.3771  0.0315 -0.0434
32774W        W35994  11.011   3.077  15.061 -0.1215 -0.3332  0.0722
32775W        W35995   3.062  12.948   8.703 -0.0918  0.0924 -0.0127
32776W        W35996  16.130  11.583  17.297  0.2008 -0.2682 -0.3072
32777W        W35997  14.744  12.480   9.845 -0.1052 -0.0262  0.0717
32778W        W35998  13.301   9.835  16.910  0.3573 -0.3119 -0.0672
32779W        W35999   0.232   5.240   9.733  0.0426  0.2078 -0.0438
32780W        W36000   9.712  10.674  10.682 -0.3152  0.1289 -0.2183
32781W        W36001   4.760   9.785   9.692 -0.1600  0.1547 -0.3777
32782W        W36002   7.325  11.141  18.170  0.0668  0.1198  0.1702
32783W        W36003   3.398   9.806   8.869 -0.0559 -0.0865 -0.0436
32784W        W36004  13.319   1.585  11.881  0.0035 -0.0231  0.2225
32785W        W36005   5.892   4.409   4.636  0.0896 -0.1494  0.2625
32786W        W36006   2.135   7.924  15.224  0.0581 -0.2507 -0.1201
32787W        W36007  15.084   0.829  13.537  0.4034  0.1175  0.3691
32788W        W36008  15.706   4.703   7.575 -0.0202  0.1292  0.3649
32789W        W36009  10.398   5.586  15.282 -0.2091 -0.0579 -0.1350
32790W        W36010  17.504   7.181  15.434 -0.0236  0.1693  0.2592
32791W        W36011   3.968   5.064  15.064  0.0675  0.0599 -0.0090
32792W        W36012   8.196   5.032  13.281  0.1453  0.0516 -0.2087
32793W        W36013  14.017   1.449   9.033 -0.0935  0.3111  0.0534
32794W        W36014  16.789   4.047  15.202  0.1051 -0.3093 -0.0523
32795W        W36015  14.817  16.646   2.872  0.0096 -0.0466  0.1125
32796W        W36016  12.350   0.155   1.024  0.2000 -0.1943  0.0715
32797W        W36017   0.049   4.079  11.778  0.1575 -0.2870 -0.2232
32798W        W36018  15.167   3.545  10.172 -0.0436  0.1240 -0.0475
32799W        W36019  15.546   1.837   7.171  0.0767 -0.1422 -0.0991
32800W        W36020   8.892   3.980   3.227 -0.0736  0.1695 -0.3598
32801W        W36021   7.921   2.915  12.915  0.1467 -0.0077  0.0152
32802W        W36022   9.062  14.717  11.114 -0.5293 -0.4531 -0.0808
32803W        W36023  15.653   1.178   7.018  0.4110  0.0602 -0.4201
32804W        W36024  14.856   5.776   9.942  0.4040 -0.3372  0.1297
32805W        W36025  17.207   9.288   1.003  0.0606  0.4544  0.0738
32806W        W36026   9.607   1.075  11.462 -0.2856  0.0077  0.2024
32807W        W36027  15.173   8.093   0.560  0.0866 -0.1159 -0.0017
32808W        W36028  13.615   8.221   9.678  0.2374  0.3718  0.1750
32809W        W36029   9.927   3.471  11.726 -0.0943  0.1418 -0.0250
32810W        W36030  16.556  10.365  11.564 -0.0738  0.1176  0.0664
32811W        W36031   5.453   9.121   8.722  0.2508  0.1852  0.1998
32812W        W36032  17.390   5.619   8.509 -0.0184  0.3416  0.1022
32813W        W36033   7.764  16.290  11.253  0.1358 -0.0114 -0.2521
32814W        W36034  13.118   2.599  18.235  0.2451 -0.0154  0.2514
32815W        W36035   8.220   7.765  14.815 -0.2265  0.1783 -0.1758
32816W        W36036   1.620   8.396   8.801  0.0510 -0.0977  0.1968
32817W        W36037   0.563   8.838  10.215  0.0519  0.4146 -0.1437
32818W        W36038  14.735   2.446   6.881  0.0724 -0.2820  0.0279
32819W        W36039   9.145   5.429   0.566  0.0878 -0.1873  0.2454
32820W        W36040  10.591   2.836  13.788  0.0796  0.1798  0.4461
32821W        W36041  13.041   7.286  15.740  0.1747  0.0525  0.2580
32822W        W36042  17.078  14.658  14.868  0.0941 -0.1251  0.2863
32823W        W36043  17.037   8.274  15.687 -0.3401 -0.0799  0.1505
32824W        W36044  13.999   4.265   9.592  0.0763  0.0633 -0.0933
32825W        W36045   0.971   9.450  13.462  0.1345  0.0523 -0.0163
32826W        W36046  18.068   4.487  14.833  0.0401 -0.2109  0.0911
32827W        W36047  10.205   5.226  16.542  0.1587  0.0378 -0.0088
32828W        W36048  15.285   1.154  14.654  0.3162 -0.0115 -0.3465
32829W        W36049   7.394   1.431  10.127 -0.0277 -0.2851 -0.2132
32830W        W36050  12.475   0.223   9.007  0.1098  0.1313 -0.0763
32831W        W36051   9.580  11.157  13.932 -0.0753 -0.0260 -0.2803
32832W        W36052   8.069  16.977   8.274  0.0235 -0.0227 -0.0186
32833W        W36053   0.567   9.311  10.699  0.0121 -0.1721  0.0967
32834W        W36054  12.165   6.608  13.644  0.0516  0.3277  0.1672
32835W        W36055   2.815   7.417  10.200 -0.0675  0.0163  0.1867
32836W        W36056  15.711  13.654  16.480  0.2828  0.0216 -0.0190
32837W        W36057  17.652   4.495  16.185  0.0722  0.0633 -0.0675
32838W        W36058   9.590   6.416  14.702 -0.1540  0.0028 -0.1793
32839W        W36059   6.719   6.796  13.426 -0.0706 -0.1936 -0.0272
32840W        W36060  17.167  11.494  13.592 -0.0982  0.3475  0.1732
32841W        W36061  16.852   6.600  13.207  0.0299 -0.2362  0.0691
32842W        W36062  10.952  10.052  16.421  0.2256  0.2000  0.2505
32843W        W36063   6.627   6.494  11.391 -0.0589  0.1623 -0.2694
32844W        W36064  15.952   5.827  14.212  0.0291 -0.1313  0.0472
32845W        W36065  12.167   4.251  12.878 -0.0440 -0.4377 -0.1752
32846W        W36066  11.277   2.507   2.215 -0.0995 -0.2087  0.2064
32847W        W36067  10.577   5.288  17.330  0.1235 -0.0680 -0.0761
32848W        W36068  15.413   6.241  13.176  0.2302 -0.1812 -0.1450
32849W        W36069   3.573  16.908  15.062  0.0773  0.0299  0.3850
32850W        W36070  14.170   5.588  13.328 -0.0405  0.0534 -0.2972
32851W        W36071   4.875   6.891  14.586 -0.0094  0.0466  0.0657
32852W        W36072   3.005   0.214   7.868 -0.1096 -0.0756 -0.1871
32853W        W36073  11.581   2.462  12.967  0.2020  0.0085 -0.1285
32854W        W36074  14.473   2.465  12.001  0.2921 -0.1440 -0.0015
32855W        W36075   7.946   3.519  15.925  0.3013  0.2449 -0.0300
32856W        W36076   9.378   2.281  13.426 -0.0330 -0.2233 -0.0367
32857W        W36077  12.592   1.658  14.415 -0.0350  0.1981  0.0608
32858W        W36078  15.110   6.601  14.052  0.1429  0.1415  0.0928
32859W        W36079  12.745   7.071  15.326 -0.1336 -0.1829 -0.0627
32860W        W36080  16.059   0.963   1.506 -0.1251  0.3665  0.0204
32861W        W36081   8.827   5.592  16.596 -0.0257 -0.2399  0.1676
32862W        W36082  16.803   8.149   1.121  0.0664  0.3498  0.0748
32863W        W36083  15.763  17.946  16.448  0.0029 -0.1910  0.0058
32864W        W36084  10.968   4.947   1.019 -0.1311 -0.2505  0.1175
32865W        W36085  10.267   7.679   5.603  0.1441 -0.1088 -0.1286
32866W        W36086   8.010   2.416  18.193  0.2434  0.0045  0.0049
32867W        W36087  13.082  15.187   6.179  0.4059 -0.0963  0.3480
32868W        W36088   9.390   3.398  13.659  0.2598  0.0436 -0.0766
32869W        W36089   8.280  15.761   8.111 -0.1272  0.0147  0.0400
32870W        W36090  15.088   2.217   3.161  0.0947  0.1698  0.2097
32871W        W36091  12.102   9.349  13.231 -0.0860 -0.1118 -0.1507
32872W        W36092  11.962   1.214   9.940  0.2033 -0.1737 -0.2750
32873W        W36093  16.831   7.908   5.063  0.0792  0.4517 -0.1045
32874W        W36094  10.894  18.186  14.436  0.3243  0.1706 -0.0532
32875W        W36095  16.287   2.874  14.956  0.0079  0.1249 -0.0341
32876W        W36096  18.151  12.695  11.450 -0.1656  0.1438  0.1019
32877W        W36097  16.913  13.210  11.148  0.0667  0.0916 -0.2354
32878W        W36098  12.511  15.530  10.955 -0.2816  0.2212 -0.2528
32879W        W36099   7.222   0.310   7.708 -0.5138 -0.1921  0.1710
32880W        W36100  12.325   1.945  13.327  0.0148  0.0936  0.0589
32881W        W36101  13.493   8.876  10.851  0.1115 -0.1375 -0.0177
32882W        W36102  11.994   9.768   0.642 -0.2350 -0.4528  0.3716
32883W        W36103  16.353   8.719   3.343 -0.3471  0.2261  0.1954
32884W        W36104  14.908   5.610  15.263  0.0335 -0.0813  0.0381
32885W        W36105  17.771   3.961  12.121 -0.5470  0.1192  0.1907
32886W        W36106   7.002   3.811  17.428 -0.0501 -0.0870 -0.0983
32887W        W36107  16.034   3.192   9.836  0.0636 -0.0137  0.1428
32888W        W36108  12.839   9.566  12.617  0.2288 -0.0865  0.0392
32889W        W36109   1.873   5.767   9.053  0.0113  0.1329  0.1188
32890W        W36110   7.272   4.627  10.242  0.0756  0.0259  0.0627
32891W        W36111  13.319  18.042  14.417 -0.2595  0.4129 -0.0820
32892W        W36112  12.501  18.112   4.027 -0.1008 -0.1364  0.1248
32893W        W36113   8.087   6.983   9.918  0.0479  0.0962  0.0310
32894W        W36114   7.835   2.819  11.933  0.3671 -0.0851  0.1636
32895W        W36115  17.820   4.960  15.235 -0.1881  0.1795 -0.1192
32896W        W36116  13.062  16.081   6.460 -0.0374  0.0854 -0.1781
32897W        W36117  13.597   7.854  14.489 -0.1157 -0.1319  0.0824
32898W        W36118   7.182   8.411  15.006  0.0664 -0.0333 -0.1911
32899W        W36119  12.957   4.811   6.501 -0.2759  0.3942  0.1587
32900W        W36120  15.654   3.642   2.316  0.3023 -0.0086 -0.0274
32901W        W36121   0.316   7.780   8.600 -0.0912  0.3284 -0.2064
32902W        W36122  16.975   5.128  17.339  0.0451  0.0893  0.0971
32903W        W36123  14.994   8.905   0.181  0.0178 -0.3201 -0.2131
32904W        W36124  12.985   6.704  12.118  0.0445 -0.0968  0.2472
32905W        W36125  14.657   1.686  10.452 -0.0022 -0.1643 -0.1533
32906W        W36126  10.584   6.902  15.886 -0.0501  0.0227  0.1705
32907W        W36127  16.450  12.371  14.837  0.0907 -0.1000 -0.0834
32908W        W36128  13.359   9.241  15.771  0.0668  0.1420  0.1716
32909W        W36129  17.338  15.254  12.392 -0.1096  0.1305 -0.1627
32910W        W36130   3.350   2.640   5.675 -0.0074  0.1407  0.2792
32911W        W36131  17.044  16.556  16.463  0.3188 -0.2709  0.0223
32912W        W36132  14.812   1.784  12.447 -0.1582 -0.2553  0.0928
32913W        W36133  12.648   0.390   6.405  0.0895  0.1223 -0.2730
32914W        W36134  12.149   3.637  12.540 -0.3687  0.2755 -0.1348
32915W        W36135  11.984   1.083  13.153  0.1153 -0.2599  0.0305
32916W        W36136  15.475   9.842  17.055 -0.3745 -0.2697  0.4098
32917W        W36137   9.833   0.143  10.645 -0.1298 -0.2256  0.4026
32918W        W36138   4.854   2.552   7.955 -0.1259  0.1136  0.1204
32919W        W36139   8.629   5.701  14.021 -0.2982 -0.1097  0.1048
32920W        W36140  15.878   0.432  12.379 -0.2119 -0.1514  0.2064
32921W        W36141   7.346   4.113   7.891 -0.2278 -0.1641 -0.2144
32922W        W36142   0.071   9.045  11.568 -0.0269 -0.0087  0.0007
32923W        W36143   8.400   8.017  17.434 -0.0034 -0.3534 -0.0735
32924W        W36144  18.040  12.545  18.212  0.0994 -0.2014  0.0952
32925W        W36145  14.153   6.272  11.781 -0.2010  0.1203  0.0073
32926W        W36146  16.528   2.328   9.950 -0.3063  0.0053  0.0070
32927W        W36147  16.195   5.239  13.425  0.1893 -0.2154 -0.1625
32928W        W36148   4.677   2.563   9.984 -0.0364  0.0181  0.2793
32929W        W36149  14.616   6.496   4.518  0.1569  0.4389 -0.0245
32930W        W36150  16.778   3.105   2.062 -0.0286  0.0413  0.0309
32931W        W36151   7.509   3.803  15.211 -0.0788 -0.1367  0.0691
32932W        W36152   9.148   5.686   4.241  0.2456 -0.5117 -0.3001
32933W        W36153   0.649  16.599  15.578 -0.4564  0.2261 -0.2405
32934W        W36154   1.724   3.166   8.691 -0.3026  0.2600 -0.0829
32935W        W36155   2.736  18.036   2.147 -0.0721  0.1866 -0.0453
32936W        W36156  13.548   5.458   9.940  0.1805 -0.1629  0.1747
32937W        W36157   9.333   4.772  14.102 -0.1784 -0.1993  0.2329
32938W        W36158  13.912   7.576   9.764 -0.2082 -0.2258  0.0152
32939W        W36159  14.598   6.624  12.998 -0.1607 -0.0977  0.1233
32940W        W36160  13.574  16.025  16.058  0.0480  0.2981  0.0534
32941W        W36161  13.146  10.735  11.772 -0.1706  0.0191  0.0671
32942W        W36162  11.768  10.602  10.646  0.1506  0.1800  0.2410
32943W        W36163   9.517   3.925   0.413  0.2318 -0.0071  0.0066
32944W        W36164  10.534  10.608  11.774 -0.0309  0.3012  0.0353
32945W        W36165  16.021  10.358  16.970 -0.0905  0.1301  0.0673
32946W        W36166   6.903  17.374  13.610 -0.1399 -0.3858  0.3784
32947W        W36167   2.152   2.806  15.048 -0.0564  0.0176 -0.2077
32948W        W36168  12.173   3.263  14.108 -0.1952  0.0699  0.1461
32949W        W36169  13.530   7.241   9.613 -0.1386  0.1383  0.1688
32950W        W36170  13.673   8.778  13.522  0.0986  0.1116 -0.0559
32951W        W36171  11.923   2.794  14.142  0.0608 -0.3358  0.0909
32952W        W36172  11.241   1.548  16.074  0.3069  0.0558  0.3884
32953W        W36173   8.443   2.233  13.557  0.3474  0.1447 -0.0522
32954W        W36174  12.827   8.234  16.614  0.1774 -0.0440 -0.0756
32955W        W36175   4.556   4.863  10.609 -0.2677  0.0012 -0.1621
32956W        W36176   3.859  15.076  13.891 -0.0634 -0.1261 -0.1464
32957W        W36177  12.525  15.174  14.541  0.1426 -0.0614 -0.1474
32958W        W36178  12.783  13.463  12.902  0.0819  0.2337 -0.3348
32959W        W36179  11.057   2.052  11.892 -0.2906 -0.1109  0.1513
32960W        W36180  11.493  10.796  17.069 -0.0064  0.0943 -0.0844
32961W        W36181   0.123   5.004  11.718 -0.2335 -0.0203 -0.0922
32962W        W36182   4.596  18.209  12.749 -0.1973 -0.0289  0.0424
32963W        W36183  15.672   7.802   9.868  0.0638 -0.0122  0.0531
32964W        W36184   7.376  14.542   9.439  0.1474 -0.3546  0.1781
32965W        W36185  11.485  10.336  15.524  0.5582 -0.1877  0.0943
32966W        W36186  17.079   6.254  17.425  0.0509 -0.1704 -0.1124
32967W        W36187   6.413   7.622   5.262 -0.1071 -0.0760 -0.0780
32968W        W36188  17.670   6.654  13.420 -0.3903  0.0058  0.1240
32969W        W36189   7.403   2.752   9.605 -0.0896 -0.2409  0.2229
32970W        W36190  12.816   5.183   7.949 -0.2166 -0.1183 -0.1548
32971W        W36191   6.829   1.101   9.289  0.1958 -0.0679 -0.2119
32972W        W36192  15.694   5.900  15.755 -0.1451  0.0211 -0.1021
32973W        W36193  14.214   9.355  15.167  0.1121  0.1034 -0.1183
32974W        W36194   9.689   5.683  18.148  0.1269 -0.0007 -0.1595
32975W        W36195   7.360   6.681  11.921 -0.0827  0.2040 -0.0340
32976W        W36196  12.674  17.728  13.656 -0.1017  0.0739 -0.1484
32977W        W36197   8.155   4.920   6.893 -0.1344  0.1032  0.0625
32978W        W36198   8.870   8.229   0.154 -0.2542 -0.0323 -0.1141
32979W        W36199  10.106   7.248   5.388  0.0523  0.0162  0.0971
32980W        W36200  14.650  16.739   8.141 -0.0766 -0.2580  0.1445
32981W        W36201   9.740  10.063  12.084  0.3183  0.2089  0.1674
32982W        W36202  16.970   7.921  12.277  0.1814  0.2755  0.1717
32983W        W36203   9.642   7.743   9.194 -0.0136 -0.1501 -0.2367
32984W        W36204   7.072   3.037   9.423 -0.1328 -0.2877  0.1365
32985W        W36205  12.714   9.119   9.284 -0.1236 -0.2618 -0.2748
32986W        W36206  11.225  11.310  12.207 -0.0438 -0.1199  0.0177
32987W        W36207  13.020   3.804  18.094 -0.1944  0.1716  0.1104
32988W        W36208  10.837   4.083  13.638  0.0403  0.0063  0.0208
32989W        W36209   9.716  12.316  10.174  0.0297  0.0477  0.2409
32990W        W36210   6.545   4.091   7.479 -0.1239 -0.0618 -0.3123
32991W        W36211  12.237   9.290  11.697 -0.2343 -0.0983 -0.1872
32992W        W36212  11.048   9.273  14.870 -0.3215 -0.1370 -0.0691
32993W        W36213   1.010   7.180   5.841 -0.1796 -0.2465  0.2814
32994W        W36214  16.032   7.593   7.232 -0.0093 -0.0506  0.0767
32995W        W36215  16.471   0.663  10.324  0.0285 -0.0100  0.1802
32996W        W36216   4.797   7.576  14.630  0.1075 -0.1179  0.0283
32997W        W36217   7.718  10.701  10.613  0.1495 -0.3460 -0.2808
32998W        W36218  10.698   7.828   1.110 -0.2616  0.2099  0.1561
32999W        W36219  11.044   8.339  16.818 -0.2578  0.4126 -0.2958
33000W        W36220   6.230   8.471  14.007  0.2700  0.1203  0.1723
33001W        W36221  14.425   6.999   9.223 -0.3302  0.1589  0.2336
33002W        W36222  11.907  11.144  15.597  0.4062  0.2629 -0.0429
33003W        W36223  12.307   2.185  12.309  0.0621  0.0171  0.0158
33004W        W36224  14.157   6.665  17.299 -0.2224  0.1905 -0.2828
33005W        W36225   8.127   2.001  16.987 -0.2310 -0.0206  0.1282
33006W        W36226  13.158   4.551  12.264  0.2389  0.1730  0.2685
33007W        W36227  14.394   2.895  12.270  0.0222  0.1045  0.1816
33008W        W36228   2.836   2.200  12.283  0.0337 -0.0730 -0.0764
33009W        W36229  11.779   7.470  11.474 -0.0031 -0.0756 -0.0875
33010W        W36230  13.415   3.681  13.570 -0.1205  0.2875 -0.3832
33011W        W36231  14.869   2.724   9.070  0.1660  0.2051 -0.0093
33012W        W36232  11.853   7.332  13.490  0.3543  0.0079  0.0740
33013W        W36233  10.944   5.077  18.261 -0.0819 -0.1281  0.3036
33014W        W36234   9.695   7.746  13.848 -0.3017  0.2015 -0.1793
33015W        W36235  14.124   2.358  13.424 -0.4049  0.1521  0.2025
33016W        W36236  11.825   7.800   9.775  0.1340  0.2541 -0.1916
33017W        W36237  12.158   7.671  17.561  0.2501 -0.2254 -0.0413
33018W        W36238  18.207   5.630  12.732  0.0083  0.0606  0.2013
33019W        W36239   4.162  15.463  15.200  0.0958 -0.0347 -0.1121
33020W        W36240  15.961   1.737   5.554  0.0013 -0.0087 -0.1931
33021W        W36241  10.567  17.962  16.512 -0.1147  0.0777 -0.0419
33022W        W36242  14.465   6.951  16.258  0.2116 -0.2122  0.0468
33023W        W36243   7.469   4.675  12.607 -0.2652 -0.0259 -0.3456
33024W        W36244   2.881   7.401  18.208  0.0319  0.3225  0.2148
33025W        W36245  12.053   8.128  17.881 -0.0309 -0.2148  0.2178
33026W        W36246  14.585   5.619  11.957  0.0965 -0.0964  0.2449
33027W        W36247  12.290   1.960  14.151 -0.0762  0.2375 -0.0824
33028W        W36248  14.718   4.856  12.234  0.0844  0.1119 -0.0865
33029W        W36249  16.059  12.108  17.238  0.0148 -0.0078  0.1073
33030W        W36250   7.052  10.488  17.632  0.3080 -0.3840 -0.3264
33031W        W36251  11.761   5.046  14.138  0.0472 -0.0541  0.2399
33032W        W36252  18.199   8.195  13.538  0.2460 -0.1287 -0.3077
33033W        W36253  11.729  18.137  15.681  0.1725 -0.0845  0.0142
33034W        W36254  14.431   9.027  14.805  0.1459  0.0014  0.1147
33035W        W36255   5.343   6.589   9.671  0.2293 -0.0158  0.1622
33036W        W36256  16.595  11.191  12.249 -0.1681  0.1966 -0.1372
33037W        W36257   8.504   6.376  11.670  0.0493 -0.0682 -0.2129
33038W        W36258  15.313   5.352  10.707  0.2005 -0.0783  0.1509
33039W        W36259  13.126   8.141   9.272 -0.0591 -0.0846  0.0593
33040W        W36260  11.420   2.377  11.960 -0.0136  0.0171  0.0966
33041W        W36261   0.491   6.649   7.473  0.0425  0.2149  0.1600
33042W        W36262  14.402   3.383  12.101 -0.2998 -0.3093  0.2410
33043W        W36263  12.368   6.589   6.692 -0.1236  0.0817 -0.1081
33044W        W36264  14.308   9.135  18.175 -0.2664  0.0043 -0.3334
33045W        W36265   2.018   4.986   9.854  0.1351 -0.0630 -0.1226
33046W        W36266  10.441   2.196  15.263 -0.0744 -0.1170  0.0198
33047W        W36267   1.485  12.901   1.496  0.1414 -0.0597 -0.0242
33048W        W36268   1.831   0.231  15.827 -0.2922  0.1592  0.1438
33049W        W36269  13.477   9.097  14.601  0.0634 -0.0270 -0.0897
33050W        W36270  13.432   5.236  11.090 -0.2739 -0.1151  0.2942
33051W        W36271   8.813  11.098   8.502 -0.1058  0.0052 -0.2408
33052W        W36272  10.913   7.861   0.308 -0.0315 -0.4579 -0.0208
33053W        W36273  10.519   6.995  12.854  0.1793  0.0670 -0.1229
33054W        W36274   7.257   0.274   8.188 -0.2687 -0.2833  0.1538
33055W        W36275  10.608   8.579  16.097  0.1462 -0.0209  0.4519
33056W        W36276  16.658   3.795  12.752  0.1656 -0.0012 -0.0504
33057W        W36277  12.006   2.689  14.831 -0.0674  0.0876  0.0126
33058W        W36278  11.710   2.161  17.344 -0.1616  0.0859  0.0656
33059W        W36279   7.185   4.645   3.030 -0.0983  0.0232  0.1997
33060W        W36280   6.441   9.216  14.267 -0.1024  0.0079 -0.1166
33061W        W36281   4.586   3.948  12.944  0.1648 -0.1986 -0.2576
33062W        W36282  11.627  11.752   1.536  0.0560 -0.4277  0.4809
33063W        W36283  10.016  10.172  11.388 -0.0234  0.1413  0.3147
33064W        W36284   9.074   8.129  13.390 -0.0279  0.2214  0.1688
33065W        W36285  16.299   2.920  11.737  0.0725 -0.1566  0.1150
33066W        W36286  11.665   0.923  13.530  0.1970 -0.0591 -0.3119
33067W        W36287  12.079   3.759   3.563 -0.1141  0.1857  0.2407
33068W        W36288   8.480   1.078   7.192 -0.0015  0.0983  0.0549
33069W        W36289  10.996  16.576   9.993 -0.1102  0.0616  0.1909
33070W        W36290   7.214   0.438  13.143 -0.0658  0.2300  0.4586
33071W        W36291  15.088  11.906   4.745 -0.1318  0.0339 -0.2816
33072W        W36292  10.192   6.609  10.849 -0.3067  0.3559  0.1647
33073W        W36293  12.786   8.631   7.988  0.3295  0.0676 -0.3001
33074W        W36294   2.444   4.307   9.517 -0.1441  0.1280  0.2197
33075W        W36295  14.111  10.864   7.976  0.1064  0.2960 -0.1715
33076W        W36296  13.001   6.411   7.343  0.1403 -0.0456  0.2177
33077W        W36297  15.321   4.466   9.124  0.1471 -0.0865 -0.0161
33078W        W36298  14.438  10.987  10.628 -0.1712 -0.2439 -0.0962
33079W        W36299   8.294   4.922   6.403 -0.1073  0.2602 -0.3078
33080W        W36300   0.208   0.683  17.370 -0.1498 -0.2897  0.2501
33081W        W36301  12.686   5.832   3.944  0.2404 -0.1646 -0.2830
33082W        W36302  14.754   1.472  15.879  0.0536  0.0056 -0.1106
33083W        W36303  13.564   6.515   2.935  0.1462  0.2188  0.1599
33084W        W36304  17.017   4.063  18.229 -0.4164 -0.0311  0.1580
33085W        W36305   5.845   6.643  11.254  0.4159 -0.0118 -0.2452
33086W        W36306  17.626  10.539  12.389  0.1815  0.0825  0.1553
33087W        W36307  15.990   6.289  15.480 -0.0973  0.0868  0.0073
33088W        W36308   0.279   4.374  17.105  0.2631 -0.0809  0.2915
33089W        W36309   9.544   8.787   0.480 -0.0174 -0.0492  0.1697
33090W        W36310  11.243  10.975  15.325  0.0593  0.0992  0.0134
33091W        W36311   6.531   6.702  15.949 -0.0332  0.0760 -0.2160
33092W        W36312  10.024   9.329  16.520  0.1251 -0.0198 -0.0866
33093W        W36313  15.836   7.671  17.817  0.2883 -0.2579 -0.0464
33094W        W36314  18.257   2.714  11.968 -0.0227  0.0197  0.4502
33095W        W36315  11.254   0.680   1.134  0.0860 -0.1763 -0.3170
33096W        W36316   1.815  13.887  10.667  0.2890 -0.0636  0.2832
33097W        W36317  13.711   6.989  15.807 -0.0000  0.0249  0.1322
33098W        W36318  16.397  10.337   7.975  0.0406  0.1693 -0.1018
33099W        W36319   9.314  11.535  14.265  0.0487 -0.0697  0.1248
33100W        W36320   5.042   6.319   7.696 -0.1142 -0.0110 -0.0555
33101W        W36321  11.725  14.671   7.040 -0.0119  0.1184 -0.1082
33102W        W36322  13.239   7.205  15.002 -0.1238  0.0122 -0.0479
33103W        W36323   8.563   0.990  12.086 -0.2261  0.0947 -0.0915
33104W        W36324  11.638   1.465  13.534 -0.0975 -0.3231  0.1968
33105W        W36325  15.146   3.168  17.168 -0.0582  0.0330  0.0152
33106W        W36326   6.604   5.797   2.489 -0.0138 -0.0889 -0.0768
33107W        W36327   5.311  14.225  15.787  0.0425  0.1916  0.1146
33108W        W36328   8.395   6.293   8.388  0.1052 -0.0824  0.2106
33109W        W36329  11.468  15.590   7.133 -0.0100 -0.0820 -0.0491
33110W        W36330   2.652   1.664   3.545 -0.1139 -0.0301 -0.0494
33111W        W36331  17.009   0.840  15.968 -0.4782  0.0423  0.2534
33112W        W36332   3.714  11.354   6.506 -0.0268 -0.1160 -0.3109
33113W        W36333  16.700   5.196  10.625  0.1631  0.3555 -0.0965
33114W        W36334  17.706   8.243  11.100 -0.0025 -0.0038  0.3162
33115W        W36335  16.711  11.681   8.530  0.4238 -0.0051  0.2681
33116W        W36336  12.460   7.551  16.549  0.2264 -0.1364  0.1001
33117W        W36337  11.826   3.266   6.481 -0.1395 -0.0709 -0.1253
33118W        W36338  17.492   2.166   6.454  0.3264  0.0610 -0.2273
33119W        W36339   0.458   7.935  15.997  0.2830  0.1390  0.2044
33120W        W36340  15.818  17.568  13.181 -0.3033 -0.2095  0.2741
33121W        W36341   9.334  10.208  14.611 -0.2415 -0.1589 -0.1586
33122W        W36342  17.255   2.689  16.394 -0.0945  0.0311  0.2646
33123W        W36343  10.180   0.066  17.813  0.3947  0.1926  0.0794
33124W        W36344  16.185   9.036   3.828 -0.4649  0.2847 -0.3184
33125W        W36345  13.996  10.383  15.656  0.1994  0.0715 -0.1699
33126W        W36346  10.911   2.376   7.390 -0.1711 -0.0990  0.1519
33127W        W36347   5.343   7.032  14.546 -0.0701 -0.0879  0.1110
33128W        W36348   0.154   8.596   9.695 -0.1127  0.3124  0.2164
33129W        W36349  15.175   1.214  16.834 -0.2372 -0.2142 -0.3939
33130W        W36350   9.401  10.143   3.079 -0.1371  0.1878  0.2979
33131W        W36351  11.264  11.433   0.693  0.0355  0.0563  0.0827
33132W        W36352  11.652   2.807  15.342 -0.5499 -0.0733 -0.2688
33133W        W36353   6.385   8.010  15.072 -0.0641  0.0597  0.0366
33134W        W36354  11.786   6.260  17.240  0.0336 -0.0412  0.1008
33135W        W36355  15.421   5.139  16.873 -0.1645  0.0036  0.0146
33136W        W36356   9.591  10.603   3.166  0.3705  0.2313  0.1996
33137W        W36357  17.114   5.517  14.913  0.0841  0.0570 -0.0185
33138W        W36358   4.880   8.002  15.424  0.0921  0.1484  0.3046
33139W        W36359   9.775   3.880  12.548  0.1241  0.0598 -0.0771
33140W        W36360   3.654   7.233   0.473  0.1573 -0.0301  0.4251
33141W        W36361   7.320  10.100   3.438  0.3399  0.1660  0.2706
33142W        W36362  14.119  17.769  17.908 -0.2256  0.1528  0.1038
33143W        W36363  13.052   3.986   8.830  0.0018 -0.4431 -0.3696
33144W        W36364   5.341  10.421   9.116  0.1906  0.1121  0.3214
33145W        W36365  11.466   9.682   1.250 -0.2013  0.1106 -0.1740
33146W        W36366   8.028   3.452   9.955 -0.1337  0.0540  0.0671
33147W        W36367  15.993   1.233   2.524 -0.1461  0.0492 -0.3257
33148W        W36368   7.829  10.958  16.421  0.2018  0.0478 -0.2217
33149W        W36369  18.047  12.520  16.843 -0.0158  0.0483 -0.1222
33150W        W36370  14.462   3.889   2.600 -0.0033 -0.1550  0.1427
33151W        W36371  10.860   2.672   1.246  0.0996 -0.1015 -0.2586
33152W        W36372   4.476   3.613   7.463 -0.3618  0.1653  0.0488
33153W        W36373   5.011   7.099  15.013 -0.1170  0.0183 -0.1806
33154W        W36374   9.069   7.215  17.514 -0.0651  0.3273 -0.1451
33155W        W36375  16.424   8.499  17.264 -0.1975 -0.0877 -0.1379
33156W        W36376   9.750   1.815   2.021  0.2113 -0.0324 -0.0437
33157W        W36377   1.148   2.772   8.277 -0.0597  0.2149  0.1144
33158W        W36378  14.554   2.761  11.256  0.1390  0.2539  0.0230
33159W        W36379  11.325   1.113  13.879 -0.0857  0.0860 -0.0239
33160W        W36380   5.823   5.286   3.947 -0.0452 -0.1987  0.3702
33161W        W36381   0.737   6.058   9.970 -0.1609  0.3844 -0.0389
33162W        W36382  17.993  11.098  15.935 -0.0586 -0.0203 -0.1188
33163W        W36383  12.978   7.196  12.124  0.3368 -0.0524 -0.1419
33164W        W36384  10.485   9.207  11.484  0.0012 -0.1220 -0.0564
33165W        W36385  12.906   3.622  15.340 -0.1489  0.0468  0.1100
33166W        W36386  10.996   8.531  17.316 -0.0254 -0.3031 -0.1549
33167W        W36387   6.748   4.159  16.406  0.3432 -0.0570 -0.0207
33168W        W36388   8.856   5.106   0.357 -0.1702  0.0937  0.0145
33169W        W36389   5.477   4.727  13.628 -0.1475 -0.1789  0.1553
33170W        W36390  10.583   3.567   2.812  0.1218 -0.0028  0.1339
33171W        W36391  13.595  15.635  13.938 -0.1883  0.3750  0.1007
33172W        W36392   9.364   5.212  11.792 -0.0120  0.1582 -0.1011
33173W        W36393  13.032   3.021  10.629 -0.0906 -0.0882 -0.2653
33174W        W36394  11.690   6.093  16.736 -0.0989 -0.0822 -0.0280
33175W        W36395  15.357   4.440  16.303  0.0601 -0.1256  0.1634
33176W        W36396  14.509  10.818  13.080 -0.1483 -0.1600 -0.0183
33177W        W36397  18.087  10.652  17.748 -0.3892 -0.0039 -0.4509
33178W        W36398  13.353   4.018   7.209  0.0179 -0.1681 -0.2151
33179W        W36399   9.864   9.713  18.169  0.3497 -0.2749 -0.0188
33180W        W36400   4.921   2.865   5.876  0.2496  0.1164 -0.1629
33181W        W36401   0.348   5.771  18.125  0.1479 -0.0402 -0.2697
33182W        W36402  18.205   8.483  10.702 -0.0604  0.0400 -0.2549
33183W        W36403  17.097   7.521  17.825 -0.0789 -0.1388  0.2232
33184W        W36404  16.215   5.638  17.725 -0.0199  0.1854  0.0986
33185W        W36405   3.518   3.766  10.762 -0.1120 -0.1553 -0.1499
33186W        W36406   8.090   9.537  13.911 -0.1980  0.3588  0.0395
33187W        W36407  12.347   8.032   9.870 -0.2798  0.2444  0.1381
33188W        W36408  12.941   7.991  17.411  0.3110  0.0630  0.3954
33189W        W36409   7.591   0.555   8.444 -0.0720  0.1334  0.0242
33190W        W36410  11.999  15.548  17.210  0.1567  0.2439 -0.0922
33191W        W36411  11.697   9.122  11.792  0.0269  0.1509 -0.3090
33192W        W36412   6.454   2.089  14.282  0.1436  0.0206 -0.1635
33193W        W36413   0.072  13.015  15.931 -0.0230 -0.0548  0.1071
33194W        W36414   9.169   8.456  14.221 -0.1175  0.4116  0.0928
33195W        W36415   6.642   0.650   1.677 -0.1768 -0.0840 -0.0232
33196W        W36416  14.382   3.185   5.299 -0.2019  0.3017 -0.0026
33197W        W36417  11.268  15.470  14.785 -0.1948  0.1012 -0.1653
33198W        W36418  14.695   9.464   1.762  0.1612 -0.0352  0.2082
33199W        W36419  10.374  13.015  17.009 -0.0350 -0.0286 -0.0780
33200W        W36420  12.472  11.515   7.824 -0.2144  0.1492  0.1282
33201W        W36421  15.395   0.370   4.857 -0.3348  0.2961 -0.1958
33202W        W36422   4.769   8.879  11.349 -0.1611  0.3208 -0.0165
33203W        W36423  15.797  14.465  14.199  0.0598  0.0473 -0.1685
33204W        W36424   5.033  10.179   0.539 -0.0795 -0.0819  0.1844
33205W        W36425   6.427  16.324  16.264  0.0710  0.0235 -0.0645
33206W        W36426  18.025   4.264  16.898  0.0784 -0.0946 -0.2400
33207W        W36427  13.544   6.908  10.855  0.1408 -0.3052 -0.2510
33208W        W36428  12.114   6.191  13.991  0.1789  0.1916  0.0744
33209W        W36429   2.106  18.176  13.966  0.0850 -0.0653 -0.1585
33210W        W36430   0.286   7.911  16.715 -0.1884  0.1877 -0.0130
33211W        W36431   9.522   2.011   0.713 -0.0073 -0.1297  0.0122
33212W        W36432  12.708   5.649   6.200 -0.2206 -0.2266  0.3112
33213W        W36433  12.226   4.873   2.022 -0.1280  0.1024 -0.0844
33214W        W36434  13.546  16.767   2.492  0.1667 -0.0471  0.0459
33215W        W36435   6.824   1.287  15.839 -0.1194  0.0694  0.1542
33216W        W36436  10.645   8.574  18.196 -0.1767 -0.1345  0.1006
33217W        W36437  17.771  17.045  17.828  0.2043  0.1485  0.3080
33218W        W36438   9.774   0.754  18.067  0.2411 -0.2106  0.2230
33219W        W36439  11.925   5.070  13.648  0.1116  0.3017  0.0908
33220W        W36440  13.681  11.149  16.429 -0.0329  0.1749 -0.1567
33221W        W36441   2.692   5.964  11.509 -0.0644 -0.0320  0.4191
33222W        W36442   5.807   5.138   9.936 -0.1832 -0.0460 -0.3201
33223W        W36443  16.672   2.485  17.979  0.1381 -0.1073  0.2071
33224W        W36444   8.801   8.560  15.345 -0.0999 -0.2726 -0.0711
33225W        W36445  17.835  10.360   7.472 -0.2230  0.3615  0.2954
33226W        W36446  12.572   6.372  14.023 -0.0989 -0.1110 -0.0935
33227W        W36447   2.335   7.588  14.860 -0.3057  0.0451 -0.1172
33228W        W36448  16.938   9.313   7.320 -0.2081  0.1305  0.1108
33229W        W36449  17.124  10.230  15.289  0.1570  0.2397 -0.2513
33230W        W36450   8.659   6.543   0.251  0.2366  0.2971  0.1876
33231W        W36451  10.695   0.342  10.925  0.0231  0.5139  0.0879
33232W        W36452  17.276   0.662   9.685  0.0810  0.1602 -0.0918
33233W        W36453  11.042  10.026  14.161 -0.3446  0.1119 -0.1679
33234W        W36454   9.698   8.419   3.545 -0.0805 -0.1799 -0.1760
33235W        W36455  12.269   6.514  15.828 -0.1354  0.0582 -0.0575
33236W        W36456   9.934   9.166  12.149 -0.1329 -0.2698 -0.2271
33237W        W36457   8.899   5.428  18.065  0.0732 -0.2540 -0.2821
33238W        W36458   8.915   6.156  15.510  0.3827 -0.0220 -0.1677
33239W        W36459  16.401  11.885  15.140  0.0942  0.0199 -0.1147
33240W        W36460  13.405   1.575  11.409  0.0207  0.0716  0.0952
33241W        W36461   0.873  12.990  12.112 -0.0500  0.4982  0.3881
33242W        W36462   7.442  12.558  17.684 -0.0049  0.0031 -0.1719
33243W        W36463  17.299   6.064  17.014 -0.1114  0.0222  0.1338
33244W        W36464  14.680   1.028   1.367  0.0703 -0.2756  0.1904
33245W        W36465  10.330   6.366   1.143 -0.1591  0.2079  0.2536
33246W        W36466  13.480   5.020  12.368 -0.0862  0.0479  0.3590
33247W        W36467  13.979  17.486  14.742 -0.0856  0.2787  0.1190
33248W        W36468  15.101   3.252   4.825  0.1845  0.4356  0.1956
33249W        W36469  10.461   8.697  12.658  0.0620 -0.2209  0.0766
33250W        W36470   6.961   4.040  13.061 -0.0740 -0.2146  0.3371
33251W        W36471  15.496   7.281  11.018  0.2178 -0.0764 -0.0434
33252W        W36472  14.061   4.432  14.421  0.0112  0.1302  0.0737
33253W        W36473  12.818   0.543  13.127 -0.0052  0.3343 -0.1219
33254W        W36474   9.252   1.072  10.245 -0.0987  0.1525  0.0634
33255W        W36475   2.661  10.546  16.169  0.2973 -0.1782 -0.1913
33256W        W36476  13.306   4.468   1.012  0.2219  0.1812  0.3908
33257W        W36477  13.439   3.321  15.868  0.1728 -0.0498  0.0142
33258W        W36478  10.241   3.819  11.253 -0.0089 -0.0037  0.1390
33259W        W36479  16.740   4.796  15.739 -0.2383 -0.1390  0.0297
33260W        W36480  15.449   3.171   9.845 -0.2120  0.2211  0.3672
33261W        W36481   9.828   0.052   0.489 -0.0526 -0.1272 -0.0046
33262W        W36482   0.629   4.619  14.543 -0.1665 -0.3255 -0.1490
33263W        W36483   9.901  10.656  10.157 -0.2016  0.1478 -0.0585
33264W        W36484  12.902   9.256  14.903 -0.0509 -0.0425  0.0976
33265W        W36485  17.616   6.385   1.796 -0.0525 -0.2280  0.1059
33266W        W36486   1.694   3.645  14.725  0.1389  0.1688  0.0878
33267W        W36487  16.230   4.531  16.172  0.1762 -0.0488 -0.1002
33268W        W36488   9.161   8.342   5.605  0.0242  0.0088  0.1579
33269W        W36489  17.264  10.993  16.272 -0.3361 -0.1396 -0.2319
33270W        W36490  13.982   2.368  17.718 -0.0283 -0.2379  0.4199
33271W        W36491   9.632   2.117   2.478 -0.1342 -0.0173  0.0280
33272W        W36492  15.172  13.194  16.670  0.0901 -0.0569  0.1831
33273W        W36493  10.358  12.207  17.531 -0.1941 -0.2395 -0.2586
33274W        W36494   8.438  16.253   7.008 -0.1938 -0.1237 -0.2697
33275W        W36495   3.844   7.184  15.444  0.1878 -0.1887  0.3310
33276W        W36496   8.292  11.640  15.711  0.0209  0.0299  0.1801
33277W        W36497  12.297   5.225   5.095  0.1636  0.0400 -0.2067
33278W        W36498  10.196  14.711  15.531  0.1350 -0.0736  0.1538
33279W        W36499   9.006   1.784   5.475  0.1285  0.1276 -0.0648
33280W        W36500  18.029   4.428  12.056  0.0162  0.1484 -0.0337
33281W        W36501  14.202   3.912   2.990 -0.4617 -0.1148  0.0774
33282W        W36502   5.009  11.291  14.620 -0.0840 -0.0656  0.1768
33283W        W36503  11.990   3.437  15.424  0.1329 -0.0980  0.2449
33284W        W36504   6.499   0.803  15.421 -0.0250  0.1361  0.1730
33285W        W36505  13.519   5.189  13.955  0.0739 -0.0210  0.0035
33286W        W36506  15.180   5.916  15.891 -0.0013 -0.0938 -0.1761
33287W        W36507  11.668  14.861  13.819  0.1448 -0.2252  0.2284
33288W        W36508  10.774   1.706  13.230  0.0289  0.2550  0.0560
33289W        W36509  10.775   2.820  15.562 -0.2280 -0.1011  0.1059
33290W        W36510  17.493  10.686  16.604 -0.1701  0.1034 -0.1928
33291W        W36511  16.179  17.182   0.561 -0.0881  0.0178 -0.2789
33292W        W36512  14.155   4.264  17.630 -0.2795  0.1601 -0.0494
33293W        W36513   9.005  17.137  13.894 -0.0895 -0.0191  0.0311
33294W        W36514  13.514   4.047   0.935  0.2991  0.1082 -0.2272
33295W        W36515   7.861   5.471  15.894 -0.2051  0.3204 -0.1221
33296W        W36516  10.582   9.904  14.140 -0.2704  0.3547 -0.1963
33297W        W36517  14.798   9.331  16.029  0.2976  0.1214  0.4035
33298W        W36518  11.722   4.375  15.330  0.4183  0.1930 -0.0188
33299W        W36519  14.312   2.000   0.412 -0.0383 -0.0337  0.1867
33300W        W36520  14.860   8.690   4.505 -0.0786 -0.1799 -0.0922
33301W        W36521   0.117   5.535  16.292 -0.0757 -0.0288  0.0194
33302W        W36522  12.044   9.761  15.194  0.2490 -0.2447 -0.1456
33303W        W36523  14.085   5.940  12.939  0.1797 -0.2127  0.0046
33304W        W36524  12.071   4.260  16.609 -0.1696 -0.0588  0.0531
33305W        W36525   1.946   8.092   5.090  0.1320  0.0149 -0.1937
33306W        W36526   9.683   6.040  11.941 -0.3159  0.0490 -0.1399
33307W        W36527   6.873   5.712   5.118 -0.1480  0.1361 -0.2325
33308W        W36528   0.019  15.183   9.968  0.3397 -0.0156  0.0209
33309W        W36529  15.354   7.536   4.150 -0.0495 -0.1152 -0.3046
33310W        W36530  12.323   8.649   2.145 -0.0143 -0.0552  0.1747
33311W        W36531  13.437  11.876   1.463 -0.0329  0.3576 -0.1381
33312W        W36532  10.889  15.229  13.388  0.0225 -0.1456 -0.2751
33313W        W36533  10.184   7.947  17.875  0.2351  0.0195 -0.0258
33314W        W36534  10.212   7.669  14.107  0.3469  0.0457  0.0011
33315W        W36535  13.079   6.631  17.433  0.3786 -0.2910 -0.0957
33316W        W36536   8.631   4.690   0.235 -0.2418  0.1868  0.0113
33317W        W36537   6.629   5.802  16.747 -0.1118 -0.0122 -0.2519
33318W        W36538  14.972  11.034  17.637  0.2702  0.1320 -0.0576
33319W        W36539   0.229   3.534   0.163 -0.0804  0.0397  0.1517
33320W        W36540  18.177   2.050   2.506 -0.0432  0.1971 -0.0973
33321W        W36541   9.234   7.930  12.788  0.0224  0.2835  0.0102
33322W        W36542  13.255   1.290  17.073 -0.0685  0.1869  0.1499
33323W        W36543  15.877   6.388  14.986  0.0819  0.0502 -0.1284
33324W        W36544   6.761   9.666  18.247  0.2899 -0.0569 -0.0940
33325W        W36545  18.060   7.197  14.145 -0.3347  0.0364  0.0385
33326W        W36546  16.902   8.298  18.171 -0.1085 -0.1905  0.0832
33327W        W36547  11.945   2.527  11.166  0.2908  0.2313  0.1472
33328W        W36548  18.071   8.741   3.700 -0.1750  0.1918 -0.0152
33329W        W36549  14.447  18.036  15.776 -0.1310  0.2590  0.3062
33330W        W36550  15.361   8.547   0.924  0.0734  0.0082 -0.0355
33331W        W36551  16.896  13.390   0.155  0.2273 -0.1239  0.1403
33332W        W36552  16.754   1.791   0.266 -0.0056 -0.2766 -0.1525
33333W        W36553   2.495  11.623  15.374  0.1273  0.1053  0.1274
33334W        W36554  18.122   4.725  17.894  0.0632  0.0791  0.4472
33335W        W36555  11.687   4.476  16.820 -0.1182  0.1617 -0.0587
33336W        W36556   8.206   0.116   0.871 -0.1421  0.0494 -0.0796
33337W        W36557   8.682   0.058  16.005  0.0199 -0.0370  0.2742
33338W        W36558  11.450   0.985  14.488 -0.2233  0.1965 -0.0378
33339W        W36559   0.432   3.163  10.906 -0.0258 -0.0070  0.0423
33340W        W36560   7.477   6.447  15.296 -0.0630 -0.3157 -0.2755
33341W        W36561  13.875   8.743  16.415 -0.2205 -0.1783 -0.1551
33342W        W36562  15.068   3.004   0.442  0.0775  0.0559  0.0368
33343W        W36563  10.384   9.406  17.494 -0.0784 -0.3287  0.2607
33344W        W36564   9.875   2.093   4.398  0.2686 -0.1701 -0.1182
33345W        W36565  11.630   0.442  13.312 -0.1104  0.0590 -0.0681
33346W        W36566   7.146   7.584  14.537 -0.0033 -0.0334 -0.0071
33347W        W36567  11.086  13.084  14.624  0.5081  0.1165  0.2748
33348W        W36568   7.824   6.615   0.159  0.2490 -0.0578  0.0550
33349W        W36569   6.122  15.939  17.067  0.0254 -0.1102  0.1153
33350W        W36570  11.515  16.629  16.432  0.0191 -0.0276 -0.0867
33351W        W36571   1.657   6.035   3.145 -0.0993 -0.1445  0.1862
33352W        W36572  10.575  13.617  13.468  0.3119  0.3597  0.1764
33353W        W36573  13.893   2.401   9.345  0.1751 -0.2242  0.1395
33354W        W36574  17.070  11.255  14.041  0.1262  0.0167  0.3488
33355W        W36575  12.101   4.840  16.698 -0.3574  0.0281 -0.2309
33356W        W36576  10.873   2.623  17.415  0.0563 -0.2009  0.1620
33357W        W36577   1.857   7.015  13.557 -0.1060  0.1022  0.0766
33358W        W36578   0.300   9.097   0.336  0.1776  0.0013 -0.0561
33359W        W36579  13.802   7.178   3.808 -0.0614 -0.5373  0.0822
33360W        W36580   0.122   2.498   2.843  0.1610  0.3965 -0.0309
33361W        W36581   6.770   6.785   8.472  0.1921 -0.0373  0.0844
33362W        W36582  11.833  17.170   9.809  0.2315  0.4362  0.3930
33363W        W36583   9.044   1.953  13.247  0.0556 -0.2568  0.1715
33364W        W36584  11.650  17.402  15.870  0.0960 -0.0592  0.1781
33365W        W36585  14.129  17.711  12.626  0.0912 -0.0531 -0.0158
33366W        W36586   2.372  13.525  15.580 -0.0514 -0.0350  0.4335
33367W        W36587   9.969  15.536  13.617  0.1355  0.0632 -0.2753
33368W        W36588  16.788   6.716  10.727 -0.0382 -0.1605 -0.1718
33369W        W36589  12.982   0.394  12.592  0.0894 -0.0530 -0.2801
33370W        W36590   8.323   2.420  16.775  0.3850 -0.2233  0.1173
33371W        W36591  10.803   4.777   1.877  0.0855 -0.0943 -0.2365
33372W        W36592   9.213   8.966  15.047  0.0851 -0.0082 -0.1455
33373W        W36593  14.726  17.747   1.884 -0.1841 -0.2487 -0.0016
33374W        W36594  10.880   3.946  15.224 -0.1219  0.0593  0.1875
33375W        W36595  10.796   3.205  17.633  0.0342 -0.0037  0.2968
33376W        W36596   4.928   2.719   2.481 -0.5226  0.2608  0.0812
33377W        W36597   1.024  11.414  13.451 -0.0515  0.1108  0.0417
33378W        W36598   9.745   6.418  10.703  0.0065 -0.1912  0.0005
33379W        W36599  13.664  10.021  17.234 -0.1364 -0.1081 -0.0410
33380W        W36600   5.325   8.512   0.135 -0.1419 -0.2196  0.1177
33381W        W36601  12.096   5.036  16.024  0.3141  0.2212 -0.0729
33382W        W36602  12.304  15.896  11.694 -0.2681  0.2562 -0.3796
33383W        W36603  16.486   7.259   2.574  0.1310  0.4468 -0.4199
33384W        W36604  14.419   4.412   2.872 -0.2033 -0.2037 -0.1258
33385W        W36605   7.348   7.498  16.645  0.0730  0.0759  0.3923
33386W        W36606  17.026  16.317  11.518 -0.0088 -0.2272 -0.2548
33387W        W36607  13.001   4.680  17.525  0.0433 -0.1695 -0.0938
33388W        W36608  10.274   2.455  16.826 -0.0312 -0.1893  0.0486
33389W        W36609  10.276   9.521   7.642 -0.1727  0.2701 -0.2295
33390W        W36610  16.114   1.633   7.805  0.1962 -0.2325  0.3281
33391W        W36611   0.596  17.942   3.588  0.3831  0.1959  0.0846
33392W        W36612  14.239   6.969  15.836  0.0588  0.0146 -0.0104
33393W        W36613   1.020   5.028   4.238  0.0373 -0.1488 -0.0121
33394W        W36614  15.646   2.337   9.465  0.1057  0.2301  0.0065
33395W        W36615  13.131   4.182  15.904  0.0130  0.0406 -0.4180
33396W        W36616  15.651   1.750  10.886  0.0921 -0.3783  0.0252
33397W        W36617  14.229  17.103  15.285 -0.5197  0.0676  0.1104
33398W        W36618  14.569   7.927   1.046 -0.0253 -0.2138 -0.2097
33399W        W36619   9.409   5.205  14.369 -0.0505  0.1563  0.3935
33400W        W36620  10.233  13.877  15.197  0.1186 -0.2709 -0.0162
33401W        W36621  17.425   7.585  10.604 -0.0777 -0.1835 -0.1187
33402W        W36622  11.954   1.711   2.221 -0.1614  0.0768  0.1536
33403W        W36623  14.703   4.011   2.122  0.0586  0.1104  0.0970
33404W        W36624  14.717   6.835   1.204 -0.0356 -0.2454 -0.2453
33405W        W36625   7.565  11.443  14.591  0.1231  0.1876 -0.2526
33406W        W36626  10.942   4.835  15.543 -0.3058  0.0025  0.2607
33407W        W36627   2.159   8.717   0.276  0.0098 -0.0998  0.0151
33408W        W36628   8.420   6.913  15.994 -0.0846 -0.3648  0.0253
33409W        W36629  14.886   1.541  11.971 -0.1817  0.3005  0.1577
33410W        W36630   9.589  12.291  14.444 -0.1906  0.0935 -0.1022
33411W        W36631  13.276   5.258  17.173 -0.4397  0.0574  0.0989
33412W        W36632   4.333   0.968  12.031 -0.0532 -0.1465  0.2559
33413W        W36633   9.217  15.689   3.560 -0.2075 -0.2312 -0.0130
33414W        W36634   7.016   2.669   2.646 -0.2301 -0.2915  0.2202
33415W        W36635   8.183   0.720   2.015 -0.2757  0.0644 -0.0919
33416W        W36636  13.867  14.611  11.608 -0.0490  0.2176 -0.1815
33417W        W36637  12.163   5.848   6.397 -0.0535  0.2098 -0.2599
33418W        W36638  11.642   2.787   5.612  0.4479 -0.3970 -0.1147
33419W        W36639  13.717   2.785   1.588 -0.2714 -0.4215 -0.0810
33420W        W36640   9.727   4.545   3.558  0.0201  0.1445  0.0306
33421W        W36641  11.942   6.133   0.054  0.1543 -0.4068  0.0227
33422W        W36642  13.961   4.992  17.095  0.1992  0.1723  0.0072
33423W        W36643  11.381   2.355  17.034 -0.0631  0.0800 -0.1953
33424W        W36644   4.629   5.511  17.677  0.3321 -0.2686 -0.0615
33425W        W36645   6.510  12.478  14.302  0.0767  0.0392 -0.1530
33426W        W36646  15.784  15.070  17.011 -0.1067  0.0617 -0.1519
33427W        W36647  13.242   6.200  15.453  0.1433 -0.1193 -0.0859
33428W        W36648  13.426   9.784  17.913  0.2593  0.2189  0.0665
33429W        W36649  10.793  17.584  16.136 -0.0637 -0.0606  0.2678
33430W        W36650  15.338   7.111   3.045 -0.1516  0.0324  0.0138
33431W        W36651  13.174   8.689  15.756  0.0212  0.2867  0.2573
33432W        W36652   8.224   9.129  15.464  0.3337 -0.1153  0.0062
33433W        W36653  15.816   8.224   3.136 -0.3992  0.0952 -0.1203
33434W        W36654  15.584   1.454   2.740 -0.1079  0.0182 -0.2402
33435W        W36655   0.681   5.640   5.062  0.1354 -0.1388  0.0289
33436W        W36656  13.052   7.839  15.614  0.1194  0.1784  0.1316
33437W        W36657  12.003   9.117   3.206  0.0240  0.2207 -0.0452
33438W        W36658  16.267   1.124   7.675 -0.2468  0.2879 -0.3798
33439W        W36659  14.696   5.229  13.893  0.1539  0.2826 -0.1053
33440W        W36660  11.467   7.928   1.613 -0.3101  0.1183  0.0709
33441W        W36661  11.734   4.366   5.468 -0.0536 -0.1876 -0.1819
33442W        W36662   2.478   1.226  12.604 -0.1532  0.0243 -0.1116
33443W        W36663  14.352   5.758   8.671  0.0626 -0.1185  0.2704
33444W        W36664  12.727   3.935  14.439 -0.0876  0.0843  0.2918
33445W        W36665  17.730   0.889  14.705  0.3462 -0.1623  0.1326
33446W        W36666   9.310  16.535   8.670  0.4399  0.0939  0.1080
33447W        W36667   9.958   1.058  10.714  0.1065  0.0468 -0.0510
33448W        W36668   5.692   3.832  14.728  0.2506  0.2206  0.0485
33449W        W36669   9.946   5.563  15.000  0.1154  0.0374  0.1258
33450W        W36670   9.587   6.441  17.611 -0.1426 -0.0691 -0.0355
33451W        W36671  12.478   3.449  15.188  0.0136 -0.2128 -0.0282
33452W        W36672  11.911   4.723  17.227  0.1381 -0.0954 -0.1452
33453W        W36673   5.204  14.407  10.107 -0.0456 -0.2568 -0.0743
33454W        W36674  15.750  16.005   4.887  0.1599  0.0068  0.3537
33455W        W36675   1.569  12.996  11.309 -0.4573 -0.1096  0.0873
33456W        W36676  15.494  11.610  15.763  0.5366 -0.1726 -0.1752
33457W        W36677  14.313  17.894  16.607  0.0851 -0.1348  0.3107
33458W        W36678  13.878  11.505   4.361 -0.1488 -0.1570 -0.2047
33459W        W36679   0.682   5.278  12.463  0.0564  0.2696  0.2005
33460W        W36680  14.761  12.527   3.194  0.2272 -0.0265 -0.1504
33461W        W36681  15.100   4.913   1.359  0.0594  0.0592 -0.0177
33462W        W36682  16.373  17.548  15.820  0.1173  0.2364  0.0035
33463W        W36683   8.141  11.595  13.604  0.1955 -0.0627 -0.1377
33464W        W36684  16.256   5.832  15.847  0.0450  0.0853 -0.1190
33465W        W36685  15.211   7.647   6.173  0.1884  0.0674  0.0179
33466W        W36686  11.819   3.360  13.442  0.1760  0.0267 -0.3702
33467W        W36687  15.117   3.842  17.855 -0.2672  0.1090  0.3326
33468W        W36688  16.900   4.821  12.652 -0.0626 -0.1231  0.1518
33469W        W36689   8.461   8.434  16.579 -0.0407 -0.0217 -0.0950
33470W        W36690  12.308  12.404  17.592 -0.0866  0.0755  0.1159
33471W        W36691  14.503   4.867   1.691  0.0342 -0.0642 -0.0113
33472W        W36692   7.094  11.416  12.141 -0.0012 -0.1009 -0.2091
33473W        W36693  14.444  16.734  14.980  0.2598  0.2839 -0.0344
33474W        W36694   5.118  12.661   8.628  0.1293 -0.2510 -0.1723
33475W        W36695   1.209   4.566  11.943  0.0049 -0.2830  0.0550
33476W        W36696   1.600   6.658  13.359 -0.2028 -0.2270  0.2042
33477W        W36697  15.443   8.613  17.571 -0.2268 -0.0353 -0.1131
33478W        W36698  15.981   5.077   2.928 -0.1325  0.0814 -0.4134
33479W        W36699   8.930   5.287  15.259  0.1453 -0.5067  0.0442
33480W        W36700   8.465   8.324  14.932  0.0143  0.1205  0.2399
33481W        W36701  11.508   5.200   1.708 -0.0467  0.1467  0.0010
33482W        W36702   8.793   9.325  14.795 -0.1093 -0.2080 -0.0394
33483W        W36703  12.383  13.732  12.181  0.0336 -0.0326 -0.0258
33484W        W36704  11.688   9.161  18.223  0.1328  0.1727 -0.3387
33485W        W36705  12.363   5.822  15.759 -0.0720  0.1310 -0.2746
33486W        W36706  12.969   3.309  11.187  0.1813  0.3610  0.0310
33487W        W36707  14.015   9.621  12.628  0.2707  0.1386  0.2864
33488W        W36708   1.362   7.720  13.405 -0.0746  0.1488 -0.0104
33489W        W36709   7.611   5.726   1.573 -0.0735  0.3030 -0.0010
33490W        W36710  15.884   2.372   1.101 -0.1398 -0.0890 -0.1448
33491W        W36711   9.665  10.802  15.687 -0.0945 -0.1587 -0.1206
33492W        W36712   5.212   8.483  16.561 -0.0235 -0.3789 -0.2104
33493W        W36713  12.616   1.749   2.202 -0.5166  0.2124  0.2368
33494W        W36714   8.290   9.012   0.003  0.1743  0.0450  0.2433
33495W        W36715   3.575   4.340  14.365  0.0951 -0.1306 -0.1690
33496W        W36716   4.862   9.239  11.751 -0.2793  0.2194 -0.2241
33497W        W36717   6.953  14.206  14.899 -0.1495 -0.2079  0.1613
33498W        W36718  11.737   7.822  16.362 -0.1603  0.2957  0.3171
33499W        W36719  12.091  14.769   2.538 -0.3768  0.2179 -0.0384
33500W        W36720  13.738   8.095  17.384 -0.1365  0.0670  0.2919
33501W        W36721  10.320  12.289  16.174  0.2044 -0.1201  0.1955
33502W        W36722   9.111   3.734  14.806  0.0060  0.1747 -0.0161
33503W        W36723   6.911   8.528  14.632  0.0376  0.0113  0.2345
33504W        W36724   8.197  10.441   1.768  0.0645  0.3946  0.1065
33505W        W36725  11.862   5.865   0.627 -0.2121  0.2507  0.2277
33506W        W36726  12.463   9.191   4.168  0.2386  0.1264  0.0998
33507W        W36727  12.212  14.367   3.239  0.4450 -0.1630  0.0065
33508W        W36728  10.142   7.067   8.802 -0.0835  0.1674 -0.3034
33509W        W36729   4.682  11.577   6.417  0.3198  0.0635  0.1270
33510W        W36730   7.154  16.234  13.384  0.1737  0.4880  0.1740
33511W        W36731   6.919  13.440   1.040 -0.2131 -0.0177  0.0537
33512W        W36732   3.916  14.207   0.786 -0.3279 -0.0464  0.1828
33513W        W36733  18.152   7.618  17.024  0.0859  0.1388  0.1112
33514W        W36734  15.505   9.127   0.222 -0.0329 -0.0072  0.1408
33515W        W36735   9.020  13.128   0.524  0.0688  0.1407  0.1878
33516W        W36736  12.069  11.604   4.486  0.1290  0.0623  0.0387
33517W        W36737  13.129   7.597   8.463  0.0326  0.0656  0.0121
33518W        W36738  10.425   9.017   5.345 -0.4355  0.1879 -0.4507
33519W        W36739   9.622  10.660  12.013  0.0334  0.2540 -0.0223
33520W        W36740   8.476   8.153   1.170 -0.1927  0.0760  0.0393
33521W        W36741  12.584  14.058  17.419 -0.1254 -0.1025  0.1598
33522W        W36742  12.789   9.920  17.114  0.1787  0.2324 -0.1985
33523W        W36743  16.604  10.503   3.719 -0.0140  0.0819  0.1213
33524W        W36744   1.281   6.137  15.665  0.0411 -0.1884 -0.0766
33525W        W36745  15.372   7.326   5.202  0.4192  0.1170  0.1876
33526W        W36746  15.442  11.941   8.725 -0.0264 -0.0767  0.0181
33527W        W36747   8.760   7.020   4.516 -0.1365  0.0612 -0.2130
33528W        W36748   5.827   8.344   3.177 -0.4489 -0.1182  0.0855
33529W        W36749   0.606  11.556   7.671 -0.1947 -0.0316  0.0486
33530W        W36750  13.904   7.111   1.728  0.0913 -0.0232 -0.3109
33531W        W36751  13.402  11.219   1.542 -0.0747 -0.1457  0.1005
33532W        W36752  11.536   6.711   5.676 -0.3272 -0.3092 -0.3729
33533W        W36753  11.108  11.560   2.157  0.0573 -0.3054  0.0328
33534W        W36754   0.535  18.239   4.516  0.1982 -0.2500  0.1123
33535W        W36755  11.836   9.928  10.086 -0.0563  0.2631  0.1835
33536W        W36756  14.734   2.781   7.642 -0.0897 -0.0210  0.0795
33537W        W36757  10.929  13.901   6.329 -0.0837  0.2002  0.0486
33538W        W36758   9.392  10.366   0.209 -0.0878 -0.0640  0.0711
33539W        W36759  17.876   6.223   3.991 -0.3029  0.0507 -0.0077
33540W        W36760   5.251  12.396   2.161  0.0930  0.0807 -0.1087
33541W        W36761  16.985  11.905  17.048  0.0335  0.3093  0.0747
33542W        W36762  15.983   4.411   2.002  0.1546 -0.1312  0.2127
33543W        W36763  14.945   3.600   3.434 -0.1179  0.1552 -0.3307
33544W        W36764   7.302   9.133  16.346 -0.1242 -0.0037 -0.0378
33545W        W36765  11.051  10.272   2.172 -0.0517 -0.2656  0.2833
33546W        W36766   3.802  12.518  13.832  0.4179  0.1304  0.0425
33547W        W36767  13.419   1.499   6.947  0.0384 -0.1276 -0.1963
33548W        W36768   1.336   8.344   2.468  0.1453  0.1740 -0.2872
33549W        W36769  12.043   7.351  10.967 -0.1651  0.3093 -0.3682
33550W        W36770  12.416   7.482   2.660  0.2890  0.1767 -0.1371
33551W        W36771  13.103   9.113   4.904  0.0797  0.2056 -0.1029
33552W        W36772   9.203  11.619   4.341 -0.2868 -0.1734  0.0802
33553W        W36773  12.608   4.606   1.502  0.1652 -0.3914  0.2078
33554W        W36774  12.787  12.348   1.580 -0.1368 -0.3820 -0.1308
33555W        W36775  10.837   8.964   2.416  0.1121 -0.0197 -0.2276
33556W        W36776   2.140   9.157  14.743  0.0730 -0.4030  0.0270
33557W        W36777  16.000   9.634  18.131  0.0932  0.1890  0.5079
33558W        W36778   7.347   6.865  12.846 -0.1263 -0.2268 -0.1831
33559W        W36779   0.162  10.340   4.306 -0.0679  0.3125  0.0642
33560W        W36780  11.875   8.168   9.004 -0.2588 -0.1910 -0.0360
33561W        W36781   0.268  12.467  16.581  0.0157 -0.0253  0.2802
33562W        W36782   6.679  10.737  16.641 -0.0051 -0.0892  0.3602
33563W        W36783  11.238   7.927  16.524 -0.0526 -0.2502 -0.1088
33564W        W36784   9.327   8.749   8.261 -0.1623 -0.2362 -0.0316
33565W        W36785  13.005  11.619   0.255 -0.3584  0.2017 -0.2186
33566W        W36786  16.385  10.056  10.700  0.0236  0.1679 -0.1922
33567W        W36787  15.035  14.043  17.791 -0.0004 -0.1465 -0.0984
33568W        W36788  17.385  11.197  17.567  0.2183  0.2616 -0.3373
33569W        W36789  11.749   6.478  11.461  0.0474  0.2449  0.2298
33570W        W36790  16.608  13.519  16.927 -0.0843 -0.1480  0.2558
33571W        W36791   8.967   8.175  17.554  0.1614 -0.1587 -0.0536
33572W        W36792  14.253  14.079   4.200 -0.1703  0.4290 -0.1820
33573W        W36793  10.030  13.100  14.612  0.2378 -0.0571  0.0004
33574W        W36794  13.500   2.115   6.388  0.3972  0.2273 -0.2119
33575W        W36795  16.933  14.307   5.645 -0.1321 -0.1372  0.0768
33576W        W36796  12.428  12.469  16.900  0.3502 -0.0088  0.1929
33577W        W36797   0.581  14.079   0.101  0.2565  0.0850  0.4749
33578W        W36798   4.707  13.076  12.735  0.0105 -0.0496  0.0974
33579W        W36799   9.110   3.315  17.636 -0.1092  0.2601 -0.0553
33580W        W36800   7.357  11.991  15.303 -0.0372 -0.1472  0.1096
33581W        W36801   0.929  13.896   2.292 -0.2559 -0.0463 -0.0619
33582W        W36802   8.978   7.957   8.461  0.1821  0.2782 -0.2816
33583W        W36803  15.420   5.177   1.038  0.2438 -0.3486  0.0299
33584W        W36804  13.234  15.671  15.411  0.3270  0.1432  0.1478
33585W        W36805  17.927   9.600   3.823 -0.3159  0.2788 -0.1110
33586W        W36806  11.251   8.324   2.380 -0.1196 -0.0512  0.0312
33587W        W36807  12.793   9.490   2.786 -0.3073  0.0293  0.1871
33588W        W36808  18.097   1.499   6.201  0.0538  0.0395 -0.0012
33589W        W36809   7.433   6.159  11.616 -0.1043 -0.3045  0.0135
33590W        W36810  11.572   2.758   0.896 -0.1988  0.2326  0.0712
33591W        W36811   5.425   6.893   0.417 -0.0647  0.1777  0.1939
33592W        W36812   2.437  18.225   3.154  0.2069 -0.0194 -0.2226
33593W        W36813   6.736  10.146   2.766 -0.1894 -0.2531  0.1041
33594W        W36814  13.591   8.357   2.654 -0.1088  0.3671 -0.0878
33595W        W36815   6.245   8.104   4.849  0.0489  0.2139 -0.0779
33596W        W36816  11.506  13.287   4.130  0.4036  0.1417  0.1849
33597W        W36817  10.264  11.184   0.152  0.2426  0.0630  0.0697
33598W        W36818   5.814   7.438  15.493 -0.1317  0.0716  0.3471
33599W        W36819  16.458   0.755  18.145  0.1522  0.2341  0.2419
33600W        W36820   9.819   7.537  14.805 -0.2720 -0.0820  0.1089
33601W        W36821  13.306  14.434   0.084  0.0494 -0.2851  0.1673
33602W        W36822  13.735   6.996   2.924  0.4249 -0.2482 -0.0204
33603W        W36823  11.458  10.094  16.380  0.3594 -0.1844 -0.0157
33604W        W36824  14.266  15.807   1.080 -0.2902 -0.0008 -0.0405
33605W        W36825  13.534   4.719   4.504  0.2621  0.1235  0.1427
33606W        W36826   1.744   9.983  14.957  0.0010  0.2000 -0.2049
33607W        W36827  13.503  16.611   0.242  0.0305  0.2424 -0.1162
33608W        W36828   3.977   7.496   6.564 -0.1900  0.1684  0.2867
33609W        W36829   0.837  10.911   5.026 -0.1087  0.1892  0.1279
33610W        W36830  16.046   3.993  15.581  0.0430  0.0538  0.0387
33611W        W36831  18.057  10.509  15.210 -0.0019 -0.0090  0.0756
33612W        W36832  15.929  11.875  10.754 -0.0694  0.0343  0.2619
33613W        W36833   1.681   3.206   6.317 -0.0388 -0.1513 -0.2342
33614W        W36834   9.461  13.319   8.343 -0.2216 -0.0985 -0.4657
33615W        W36835  18.180   9.667  13.863 -0.1209  0.1746  0.1467
33616W        W36836  15.685  15.694   2.153  0.0809  0.0976  0.0508
33617W        W36837   9.768   5.637   6.509 -0.1332  0.1956  0.4183
33618W        W36838  17.188   6.385   6.093  0.1819  0.0520 -0.0922
33619W        W36839  10.760   4.790   9.210 -0.0223  0.0871 -0.1219
33620W        W36840   3.888  14.589   2.864 -0.0885 -0.0073 -0.0953
33621W        W36841   1.230  11.433   1.419  0.2523  0.1935  0.1527
33622W        W36842  15.999  16.933  13.039 -0.0053 -0.0578  0.0061
33623W        W36843  14.055   6.372  14.871  0.1204  0.3280 -0.0984
33624W        W36844  11.409   7.508   2.983  0.1035 -0.1641  0.4471
33625W        W36845  13.672  13.182  15.828 -0.3592 -0.1966  0.2098
33626W        W36846  15.051   8.051  16.095 -0.0909  0.0923  0.4038
33627W        W36847  14.802  11.696   5.678 -0.2679  0.0490 -0.2073
33628W        W36848  15.539  12.954  15.691 -0.0596 -0.1082 -0.1293
33629W        W36849  15.385   9.602   5.387  0.0626  0.0087 -0.2167
33630W        W36850  12.880  13.728  15.220  0.1337  0.0346  0.1439
33631W        W36851  12.854  11.351   2.913 -0.0343 -0.0124  0.0378
33632W        W36852  12.508   6.666  17.635 -0.1547 -0.1115 -0.0900
33633W        W36853  11.347  12.695   1.356  0.0315  0.4714 -0.2309
33634W        W36854  11.194   7.284  16.855 -0.1989 -0.3376 -0.3841
33635W        W36855  17.331  11.417  17.113 -0.2366 -0.1719 -0.1395
33636W        W36856   7.248  10.185  16.011  0.0454  0.0570  0.0555
33637W        W36857   2.203  15.414   6.388 -0.2161 -0.0038 -0.1203
33638W        W36858  15.920  12.591  17.483 -0.2715  0.2395  0.2118
33639W        W36859   8.840  15.926  17.449  0.1295 -0.0858 -0.0974
33640W        W36860   6.079  16.750  10.322 -0.4216 -0.1436  0.0713
33641W        W36861  13.655   4.007   2.769 -0.0801 -0.0349 -0.0607
33642W        W36862   3.928  10.553  11.640  0.2717  0.2073 -0.1049
33643W        W36863   7.435  12.741   7.413 -0.0372 -0.0677  0.0632
33644W        W36864  12.556   6.739   1.480  0.1260  0.1051 -0.0414
33645W        W36865  12.688   9.074   2.028 -0.1880 -0.0476  0.1840
33646W        W36866   7.437   9.343  16.819 -0.1383  0.0540 -0.2622
33647W        W36867  11.220   5.273   5.060 -0.1816  0.0491 -0.0404
33648W        W36868  11.410  11.951   3.600  0.1115  0.2534  0.0905
33649W        W36869  16.212   6.647   1.632  0.1980  0.0556  0.0772
33650W        W36870  17.948   4.647   8.425  0.1584  0.1987 -0.2961
33651W        W36871  13.788   9.538   0.560  0.0425 -0.3812  0.2075
33652W        W36872  13.421  13.035   1.057  0.2363  0.0548 -0.0655
33653W        W36873  17.340   9.266   3.758  0.0413 -0.3778  0.0733
33654W        W36874  17.625  15.004  17.304 -0.1135 -0.0859 -0.0348
33655W        W36875  15.564   4.116  17.973 -0.3152  0.0444  0.3766
33656W        W36876  15.991   6.565   5.472 -0.0759 -0.0364  0.0646
33657W        W36877   9.677  11.893  10.852 -0.1409  0.0515 -0.2236
33658W        W36878  14.983  11.343   7.003 -0.0084 -0.2583  0.3968
33659W        W36879  10.197  16.082   3.897 -0.0044  0.1464 -0.3461
33660W        W36880  17.450  13.350   9.044 -0.1015  0.1875 -0.2894
33661W        W36881  14.116  10.017   3.083 -0.0669  0.0840 -0.0006
33662W        W36882  16.648  10.683   8.745  0.1576  0.2226 -0.1453
33663W        W36883  10.691   1.639  11.766 -0.0051 -0.3387  0.1078
33664W        W36884   6.991   7.413   4.091  0.1891 -0.0072  0.0303
33665W        W36885   8.055   4.069  11.558 -0.2576  0.1460 -0.0876
33666W        W36886   4.913   0.250   1.885  0.0513  0.1062 -0.1404
33667W        W36887   7.563  13.502  12.303 -0.0609 -0.5325 -0.0225
33668W        W36888   1.940  15.137   5.261 -0.0660  0.0285 -0.0285
33669W        W36889  12.622  12.842   1.731  0.1074 -0.2118 -0.0524
33670W        W36890  12.495   6.284   3.122 -0.1667 -0.0009 -0.0528
33671W        W36891   2.098  11.288   1.711  0.2054  0.3533 -0.0741
33672W        W36892   8.600  11.095   0.942 -0.0787 -0.1901 -0.0074
33673W        W36893   5.826   6.793   0.817 -0.0830  0.2208  0.0665
33674W        W36894  14.978  14.169   2.497  0.0832  0.4515 -0.0347
33675W        W36895  12.499   7.206  17.013 -0.0775 -0.0990  0.0227
33676W        W36896  11.226  10.759  18.234  0.0620  0.0277  0.0425
33677W        W36897   0.790   6.889  15.176  0.1122  0.3998 -0.1230
33678W        W36898   8.479  14.288  14.126 -0.0730  0.0036 -0.1420
33679W        W36899   9.921  14.658  16.975  0.2092  0.1934 -0.0180
33680W        W36900  10.977   9.380   2.810 -0.1301 -0.0499 -0.0780
33681W        W36901   6.691   8.888  11.674 -0.2306  0.1782  0.1114
33682W        W36902  10.362   7.888  15.460 -0.2179  0.2246  0.1229
33683W        W36903  15.599   8.461  11.899  0.1037  0.0729 -0.2855
33684W        W36904   4.642  16.457  14.423  0.2839 -0.1702  0.2060
33685W        W36905  14.192   1.016   7.929 -0.1143 -0.0004 -0.1487
33686W        W36906  13.366   7.307   3.442 -0.0032 -0.1735 -0.0698
33687W        W36907   9.765  13.911   0.118 -0.0807 -0.3887 -0.1173
33688W        W36908  14.350  12.308  17.163 -0.4061  0.2312  0.2178
33689W        W36909  10.996  11.075  15.901  0.2279  0.0402  0.1300
33690W        W36910  11.795  13.192   5.061  0.0005 -0.0213  0.2715
33691W        W36911  10.075  12.800  15.718  0.0153  0.0632 -0.0606
33692W        W36912   9.734   5.046  16.207  0.0757  0.1011 -0.0970
33693W        W36913  12.972   5.714  11.445 -0.2513  0.0106 -0.3240
33694W        W36914  16.027   7.483   1.790  0.2275  0.3051 -0.4244
33695W        W36915  14.928  14.821  17.796 -0.1270 -0.0468  0.0092
33696W        W36916  13.514   9.691  15.516  0.2175 -0.1184  0.2480
33697W        W36917   1.890   2.315   4.471 -0.0494  0.0163  0.0761
33698W        W36918   3.717   1.138   7.839 -0.1809  0.0109 -0.2915
33699W        W36919  14.926   7.807   3.463  0.3921  0.0751  0.2953
33700W        W36920   7.347   3.460   4.840 -0.2179  0.0945 -0.1925
33701W        W36921   2.443  12.141  17.424 -0.2732  0.2135  0.0677
33702W        W36922   7.158   8.310  16.040  0.3085  0.2635 -0.0884
33703W        W36923  13.606   3.769   1.450 -0.1756 -0.0646 -0.2905
33704W        W36924   0.239  13.968   4.298 -0.1072  0.0040  0.0993
33705W        W36925   4.517   8.051   8.192  0.1336 -0.0138  0.2610
33706W        W36926  16.763  13.650   1.531 -0.2227  0.0323  0.1105
33707W        W36927  16.862   0.811   2.110 -0.1241 -0.0615 -0.4430
33708W        W36928  12.801   9.141   4.509  0.2448 -0.1080  0.0791
33709W        W36929  16.004  12.003   1.886 -0.2402  0.4518 -0.1427
33710W        W36930   7.701   7.847  13.838  0.1689  0.0374 -0.3649
33711W        W36931   4.773   6.922   2.273 -0.1918  0.0552  0.1876
33712W        W36932  13.395   4.512   6.455 -0.0034  0.0995  0.0912
33713W        W36933  11.279  11.607   3.197 -0.0861  0.0679  0.1828
33714W        W36934  18.020  13.699  18.100 -0.2016  0.3575 -0.1327
33715W        W36935  13.971  10.931   5.783 -0.3169 -0.0115 -0.1884
33716W        W36936   9.738  15.593   3.331 -0.0371 -0.0347 -0.0291
33717W        W36937   6.132  10.852   2.929  0.0951 -0.0281 -0.0953
33718W        W36938  10.724  10.165  11.599  0.3642  0.1531  0.0325
33719W        W36939  12.337   6.928   1.916 -0.2084  0.1574 -0.0370
33720W        W36940  15.456  16.280   8.572 -0.0648  0.2059 -0.1454
33721W        W36941  12.088   3.281   4.799  0.0545  0.1763 -0.1190
33722W        W36942  11.900   2.025   4.563  0.2958  0.0851 -0.3209
33723W        W36943  12.799   7.790   7.050 -0.1066  0.1129 -0.2945
33724W        W36944  10.938   5.444  15.485  0.0365  0.1704  0.0297
33725W        W36945  13.379   9.727   8.259  0.2022 -0.0924  0.0777
33726W        W36946   1.267  11.868   5.073 -0.0016  0.3071 -0.3438
33727W        W36947   1.257   3.594  14.949  0.0970 -0.0430 -0.0817
33728W        W36948  17.481  15.509  11.120 -0.1858 -0.2160 -0.1140
33729W        W36949   0.861   2.739   6.648 -0.2866  0.0121  0.3411
33730W        W36950  11.507  12.876   0.733 -0.5999 -0.0562  0.2616
33731W        W36951   5.531  14.555  12.063  0.0915  0.1319  0.0992
33732W        W36952   1.380  14.984   6.593 -0.0573 -0.0367  0.0781
33733W        W36953  16.040   7.855  12.056  0.0642 -0.0635 -0.0218
33734W        W36954  13.474   4.956   0.380  0.1000  0.0633 -0.1027
33735W        W36955   9.034   7.410   5.520  0.1098  0.2859 -0.0688
33736W        W36956  12.775   9.325   1.594 -0.0674  0.3263  0.1526
33737W        W36957  15.140   5.605   0.792  0.2686  0.1433 -0.1830
33738W        W36958  14.838  13.289   5.234  0.4220  0.0492 -0.1029
33739W        W36959  17.357  11.171   3.270  0.0987  0.3668  0.0320
33740W        W36960   8.284  14.298  18.194  0.0116 -0.2979 -0.1168
33741W        W36961  11.914  13.511   2.071  0.2127  0.0295  0.1111
33742W        W36962   7.375   3.944   3.730  0.1680  0.2084  0.2915
33743W        W36963  14.370  14.521   2.556  0.0138  0.0107 -0.1130
33744W        W36964  14.816   7.331  17.103  0.0032  0.3021  0.0116
33745W        W36965  13.811   7.289   4.724  0.0323  0.2603  0.1958
33746W        W36966  10.561   7.632   3.419 -0.0305  0.0716  0.0646
33747W        W36967   8.934   2.789   0.191 -0.0794 -0.0115 -0.2749
33748W        W36968  10.961   3.139   3.868  0.2166 -0.0282  0.1119
33749W        W36969  12.411  11.489   5.426  0.0528  0.5353  0.0764
33750W        W36970  15.374  13.806  15.788  0.1546 -0.3333  0.2359
33751W        W36971  13.718   7.583   5.170 -0.0418  0.0774  0.1447
33752W        W36972  11.835  14.103   0.165 -0.0377 -0.1874  0.3098
33753W        W36973  13.104  12.506   3.684 -0.0823  0.1738 -0.1272
33754W        W36974  11.558   9.044  14.882 -0.2479 -0.0680  0.0351
33755W        W36975  17.583   9.955   4.093 -0.1276 -0.0593 -0.1784
33756W        W36976  17.396  13.047   1.595  0.0374 -0.0985  0.4405
33757W        W36977  12.770   4.001  10.145  0.2642 -0.0227 -0.0953
33758W        W36978  13.225  15.764   5.668  0.2582  0.2022 -0.1319
33759W        W36979  10.658  12.383   0.570 -0.1906  0.2817  0.0620
33760W        W36980   7.654   4.174  17.984  0.4416 -0.4116  0.1835
33761W        W36981   9.221   9.405   3.504 -0.2085  0.0196 -0.0497
33762W        W36982  12.731   3.058   3.725  0.3390  0.1831  0.2641
33763W        W36983   6.021  15.353   2.088  0.1948 -0.1423  0.2719
33764W        W36984  14.554   9.958  10.628  0.0225  0.1679  0.4642
33765W        W36985  10.769   5.292   6.496 -0.0545 -0.0243  0.0658
33766W        W36986  14.088   3.181   7.849 -0.0431 -0.1972 -0.0782
33767W        W36987  18.073  12.917   6.714 -0.1308 -0.2442  0.1980
33768W        W36988  10.647   9.732   2.741 -0.2463 -0.2706 -0.0015
33769W        W36989  10.711   9.874   4.951  0.1957 -0.0375 -0.0493
33770W        W36990   9.456   8.718   3.156 -0.1278 -0.5119  0.0914
33771W        W36991   1.290  11.495   4.505 -0.0163 -0.2642  0.2904
33772W        W36992   8.473  14.161   1.718  0.2854  0.2062 -0.1412
33773W        W36993  16.329  13.060  10.796  0.1187  0.1130  0.0792
33774W        W36994  13.208   9.283   1.784 -0.1092 -0.0591  0.2650
33775W        W36995   7.322   4.346   0.039  0.0041 -0.0163  0.1069
33776W        W36996  11.943  10.125   3.260  0.2140 -0.4500 -0.1175
33777W        W36997   9.975  12.349   2.073 -0.1929  0.4110  0.4493
33778W        W36998   9.636  12.513  17.074  0.0815 -0.3658 -0.0794
33779W        W36999   9.624   3.049   5.081  0.2870  0.0989  0.0528
33780W        W37000  13.647  17.690  18.225  0.3745 -0.1955  0.2398
33781W        W37001   0.179  13.489  17.163  0.2105  0.2198  0.0209
33782W        W37002   0.931   2.497   4.228 -0.4245 -0.5228  0.1799
33783W        W37003  10.633   6.583  12.593  0.0779 -0.5017  0.0349
33784W        W37004  11.796   8.632   2.379 -0.4443 -0.5427 -0.0724
33785W        W37005  11.348   2.936  18.116  0.4542  0.1358  0.1811
33786W        W37006  16.739   7.816  16.933  0.4009  0.0075  0.1650
33787W        W37007   9.953   9.565   6.206  0.3894  0.0800  0.0877
33788W        W37008  13.801   3.785  16.328 -0.0116  0.0258  0.3461
33789W        W37009   8.235  10.853   3.689 -0.1105  0.0488  0.0320
33790W        W37010   9.156   7.201   2.755 -0.1692 -0.1853 -0.0161
33791W        W37011   0.714  10.899  14.320 -0.0408  0.0230 -0.1008
33792W        W37012   7.541   1.379   1.051 -0.2615  0.2439  0.2305
33793W        W37013  14.919   5.181   8.690 -0.1207 -0.0748 -0.1333
33794W        W37014  13.701   1.262   0.855 -0.1576  0.1295 -0.1547
33795W        W37015  10.353   3.070   5.832 -0.1878  0.1403 -0.0330
33796W        W37016  10.446   6.532   0.700  0.2528  0.0390  0.2112
33797W        W37017  11.227  12.393   1.766 -0.1924  0.2097  0.1249
33798W        W37018  10.993   9.954   3.362 -0.0489  0.0660  0.0193
33799W        W37019  13.343   8.355   4.065  0.1181  0.0549  0.0941
33800W        W37020  17.330   3.268   1.254  0.0153  0.0440  0.1647
33801W        W37021  15.000  11.147  14.526 -0.0596  0.0479  0.1371
33802W        W37022  14.921  16.866   1.132 -0.2202  0.0069  0.0799
33803W        W37023  16.335   8.053   2.422 -0.4265 -0.1462 -0.0171
33804W        W37024   8.351   3.223  17.006 -0.1779 -0.2169 -0.1340
33805W        W37025   6.595   6.194  15.553  0.0073 -0.2201 -0.0463
33806W        W37026   9.230   4.879   4.448 -0.1669  0.1810  0.2801
33807W        W37027  14.859   7.153   5.357  0.0275 -0.0415  0.0274
33808W        W37028   9.656  12.074  13.527 -0.0302  0.1580 -0.0235
33809W        W37029   8.767   7.536  15.160  0.1608  0.1013  0.0838
33810W        W37030  13.272  11.382   5.655  0.2497 -0.2081  0.2198
33811W        W37031   1.714   6.490   7.651  0.1235  0.3927 -0.0006
33812W        W37032  13.303   7.967  15.169  0.0468  0.0331  0.2872
33813W        W37033  11.378  10.272   3.182  0.1646 -0.1401  0.3392
33814W        W37034  11.427   9.928   6.827  0.3102  0.1514  0.0593
33815W        W37035   7.187   6.977   8.655  0.1560  0.1001 -0.2727
33816W        W37036   5.874   7.123  17.511  0.3057  0.0488 -0.3180
33817W        W37037   8.891   4.914   4.830  0.0576 -0.2170  0.0720
33818W        W37038   9.198   3.780   2.873  0.1001 -0.3651 -0.3377
33819W        W37039  12.805   6.656   1.006 -0.0273 -0.0162 -0.1788
33820W        W37040   6.459   2.475  17.199  0.0101 -0.1850 -0.2390
33821W        W37041  14.116   9.558   4.642  0.0593  0.1975 -0.2861
33822W        W37042  14.703   4.943   5.602  0.0734 -0.0284 -0.1527
33823W        W37043   5.660   9.943   4.017  0.3121 -0.1973 -0.0497
33824W        W37044  10.256   7.082  10.645 -0.1039  0.0394  0.0661
33825W        W37045   5.091  13.292  18.195  0.1825  0.1131  0.1165
33826W        W37046  16.059  10.329  10.340 -0.0643  0.1263  0.1997
33827W        W37047  12.288   4.648   5.296  0.1914 -0.0243 -0.3455
33828W        W37048   1.764  12.245   4.524  0.1144 -0.0520  0.0509
33829W        W37049  14.173  13.554  16.535 -0.0692 -0.0306  0.1472
33830W        W37050  15.526   6.573   0.647 -0.0325 -0.3233  0.1497
33831W        W37051  14.099  11.889   3.358  0.2359  0.1939  0.2071
33832W        W37052  15.592  14.343   2.277 -0.0096  0.1688  0.0768
33833W        W37053  10.657  14.947   0.563  0.0511 -0.1068  0.2567
33834W        W37054  13.838   1.807   7.853  0.0971 -0.2236  0.2059
33835W        W37055  14.910   3.452   1.546 -0.0520  0.0199  0.0439
33836W        W37056  14.060  13.787  15.254 -0.0259 -0.0135 -0.0349
33837W        W37057  13.523  10.085   0.701 -0.0506 -0.0326  0.1645
33838W        W37058   4.536   6.979   0.666 -0.0626 -0.1056 -0.0002
33839W        W37059   5.156   4.380   6.430 -0.3495  0.0506  0.0261
33840W        W37060  16.196   7.752   3.688  0.0917  0.0609 -0.1178
33841W        W37061   8.868  12.940   1.241  0.2539 -0.3390 -0.0799
33842W        W37062   5.526  14.970   4.721 -0.1149 -0.1448  0.2608
33843W        W37063  13.917   4.129  12.971  0.1746  0.0731 -0.3322
33844W        W37064   9.167   3.802  17.869 -0.2012 -0.1073 -0.2788
33845W        W37065   2.499   9.626  14.669 -0.0906 -0.0847  0.0405
33846W        W37066   4.554   9.671   2.909 -0.0921 -0.1635 -0.0988
33847W        W37067  10.773  10.059   1.259 -0.0550 -0.2074  0.0456
33848W        W37068  18.093  16.106   4.717  0.0607  0.0243 -0.0561
33849W        W37069   0.475  17.205   1.851  0.4635  0.0239 -0.1767
33850W        W37070  15.888  16.439  16.198  0.0487  0.0691  0.0851
33851W        W37071   7.174  14.705   0.153 -0.2984  0.1257  0.6002
33852W        W37072  17.378   7.763   6.957  0.0478 -0.3207 -0.3818
33853W        W37073  16.396   8.958   1.190 -0.0360 -0.0397  0.0097
33854W        W37074  10.261   7.174  16.604 -0.1911  0.0028  0.2133
33855W        W37075   7.306  10.223  16.701 -0.0432 -0.1989  0.2291
33856W        W37076  14.467  13.962   0.104  0.1152  0.0120  0.0109
33857W        W37077  16.344   2.559   2.852  0.2785  0.1723  0.2533
33858W        W37078  17.392  13.404   0.896  0.0421 -0.2783  0.1218
33859W        W37079  14.202   1.166   1.017 -0.4369 -0.0459  0.3377
33860W        W37080   0.244  15.539   4.230 -0.1904  0.0307  0.1089
33861W        W37081   6.580  17.046  14.300  0.0895  0.1380 -0.4521
33862W        W37082  16.724   8.285  16.757  0.1276 -0.0594  0.1651
33863W        W37083  14.412   9.012  17.628 -0.1351  0.1647 -0.2140
33864W        W37084   9.327  11.951   3.864  0.2720  0.1022  0.0358
33865W        W37085  15.407   7.366   2.630 -0.0792 -0.0002  0.0119
33866W        W37086  15.547   9.453  15.502  0.1959  0.1809  0.1776
33867W        W37087  12.087   8.550   5.958  0.0385  0.2238 -0.1882
33868W        W37088  10.112  11.621  16.747 -0.0989  0.2417  0.0224
33869W        W37089   9.795   9.273  17.759 -0.1710 -0.0794  0.0504
33870W        W37090   5.044   4.548   2.389 -0.0856 -0.0546 -0.0387
33871W        W37091   9.495  12.939   3.773 -0.0143  0.1430 -0.2590
33872W        W37092   6.213  11.813   3.913  0.0763  0.2732 -0.2523
33873W        W37093  13.331   3.517   1.121  0.0740  0.0604  0.2132
33874W        W37094  14.706  13.388   5.738 -0.0560 -0.1001  0.0639
33875W        W37095   7.765  14.419   2.630 -0.3402 -0.0660 -0.2138
33876W        W37096  11.266   9.653  12.976 -0.0418  0.0532  0.0299
33877W        W37097  14.605  11.761   1.114 -0.1295  0.0282 -0.3744
33878W        W37098   2.051  13.200   3.956 -0.0853  0.2427 -0.0713
33879W        W37099  17.583  15.404   0.677 -0.0544 -0.1733 -0.0874
33880W        W37100   9.907   8.002   4.821  0.0254 -0.4104  0.0527
33881W        W37101  11.608   7.593   2.037  0.1062  0.0573 -0.1350
33882W        W37102   5.914  17.285   0.258 -0.3410  0.0858 -0.3807
33883W        W37103  18.037   5.243   6.005 -0.0420  0.1070 -0.0259
33884W        W37104  14.547   9.069   6.487  0.0413  0.2778 -0.2708
33885W        W37105  11.234  12.169  16.155  0.2621 -0.0151  0.2943
33886W        W37106  12.798   8.914   3.489 -0.1374  0.1123 -0.1674
33887W        W37107  10.633   9.150   7.690  0.4384 -0.0348 -0.0140
33888W        W37108  13.209   6.676   7.778  0.0481  0.2836  0.1074
33889W        W37109   9.543   5.582   3.339 -0.2077 -0.1419 -0.1045
33890W        W37110   7.350  15.375   4.261  0.1037  0.0901  0.2527
33891W        W37111  11.589  10.332  12.460  0.0299  0.3128  0.0028
33892W        W37112  11.099   6.564  17.424  0.1330  0.0816 -0.2628
33893W        W37113   3.362  13.124   9.568 -0.0294  0.0335 -0.0842
33894W        W37114  14.112  13.963   7.692  0.0246 -0.1641 -0.0385
33895W        W37115   1.760  10.295   6.487 -0.0274 -0.3488  0.2160
33896W        W37116  12.645  14.488   6.887 -0.1639 -0.0219 -0.2202
33897W        W37117  17.650  17.236  15.709 -0.1778  0.0969  0.1267
33898W        W37118  12.812  14.709   6.391 -0.0438 -0.1668  0.0507
33899W        W37119  10.798   9.104   7.093 -0.0562  0.1495  0.0246
33900W        W37120   7.802   0.675   1.458 -0.0684  0.0656 -0.0775
33901W        W37121   6.274  10.380  15.766 -0.0364 -0.0078 -0.2511
33902W        W37122  11.628   9.322   5.367 -0.1273  0.1665  0.0736
33903W        W37123   0.936  14.772   8.345  0.2065  0.1481 -0.1145
33904W        W37124   3.058  10.293   7.338  0.1635  0.1941 -0.0404
33905W        W37125  17.364   4.386   1.837 -0.1565  0.0229 -0.1939
33906W        W37126  12.689  11.394   7.033  0.0753 -0.0592  0.2846
33907W        W37127  17.450  14.226   1.206 -0.0936 -0.3228 -0.2050
33908W        W37128  14.186   9.132   4.959 -0.1176 -0.0209 -0.0367
33909W        W37129  14.117   8.437   8.776 -0.1692 -0.1134  0.0673
33910W        W37130  17.367   4.372   7.464 -0.0817  0.2142 -0.2340
33911W        W37131   2.408   7.267   7.704 -0.2183  0.1558 -0.2047
33912W        W37132  16.055  15.878   2.949 -0.0429 -0.1250  0.0121
33913W        W37133   5.471  10.005  10.493  0.1366 -0.2397  0.2073
33914W        W37134  14.844   9.427  12.506  0.2889  0.4030  0.1528
33915W        W37135   0.095  12.406   5.439 -0.2374 -0.1651 -0.1610
33916W        W37136  14.002   9.983  11.395 -0.1558  0.1051  0.0590
33917W        W37137   9.857  12.848   7.625 -0.0105  0.0466 -0.2745
33918W        W37138  14.914  10.824   5.858  0.2028  0.1822  0.1113
33919W        W37139   0.411   2.071   2.672  0.0707 -0.2537 -0.2794
33920W        W37140  15.769  13.347   5.086  0.3089  0.0208  0.3659
33921W        W37141   6.881  13.383   2.975  0.1453 -0.2140  0.1128
33922W        W37142  14.128   6.184   3.131 -0.1551 -0.2735 -0.0070
33923W        W37143  11.530  12.334  10.950 -0.0820  0.2232 -0.0264
33924W        W37144   0.456   5.711  11.247 -0.1759 -0.1765  0.4207
33925W        W37145  13.367  10.694   3.001  0.0760  0.1189  0.1745
33926W        W37146  10.888   9.785  11.034 -0.1079  0.1471 -0.1579
33927W        W37147   4.792  14.959  12.083 -0.0779  0.0969 -0.2175
33928W        W37148  17.580   5.395  10.827 -0.2463 -0.0122 -0.2514
33929W        W37149  12.996  15.211  17.910  0.0628  0.0015 -0.0873
33930W        W37150  12.432   6.347   8.152 -0.3621 -0.1482  0.0380
33931W        W37151  13.470  10.839  11.428 -0.1333 -0.0060 -0.0362
33932W        W37152  17.346   8.434  10.090  0.1089  0.0060 -0.4725
33933W        W37153   0.756  13.580   5.353 -0.2455 -0.0830  0.5709
33934W        W37154   9.719   6.116   6.677  0.1554 -0.2925  0.0865
33935W        W37155   0.200   5.824   9.165 -0.0292 -0.1893  0.2011
33936W        W37156   7.870   4.373   8.058 -0.0124 -0.3026  0.1151
33937W        W37157  16.309   7.102   5.021 -0.1371 -0.4550 -0.0489
33938W        W37158  12.353   4.209   6.500 -0.0756  0.2027 -0.1141
33939W        W37159  10.937  13.645   8.250  0.1082 -0.2090  0.0893
33940W        W37160   2.313   5.953  11.752 -0.1547 -0.2339  0.0384
33941W        W37161   4.193   6.338   2.929  0.0829 -0.1653 -0.1196
33942W        W37162  12.834  11.888  13.467 -0.1619 -0.0640  0.0031
33943W        W37163  12.593   7.496  11.810 -0.0164  0.0538  0.0251
33944W        W37164  14.913   7.473   6.568 -0.2309 -0.3176  0.0428
33945W        W37165  18.165  11.837  17.122 -0.0438 -0.0759  0.1059
33946W        W37166  10.672   5.605   5.595  0.3863 -0.3804  0.0085
33947W        W37167   8.894  10.669  13.964 -0.1407  0.0846 -0.2199
33948W        W37168  10.540   9.222  12.765  0.1386  0.0366  0.2493
33949W        W37169  13.953  13.118  11.672 -0.0436 -0.0184  0.4064
33950W        W37170   2.467  11.163   3.269 -0.1401 -0.1709  0.0363
33951W        W37171   3.719  11.586  12.882 -0.2443  0.1807  0.4418
33952W        W37172   1.415  10.696   6.386 -0.1373 -0.3218  0.2835
33953W        W37173   1.228  12.510   9.724  0.0191  0.1249 -0.2583
33954W        W37174  18.161  10.357   8.031  0.1715  0.1270 -0.1166
33955W        W37175   5.029  11.890  16.087 -0.2084  0.2752 -0.1064
33956W        W37176  13.196   5.887   4.796 -0.0599 -0.0509  0.3449
33957W        W37177  12.030   4.446   4.305  0.0422 -0.3281  0.1156
33958W        W37178  11.844   9.341  15.296 -0.2294  0.0155  0.1967
33959W        W37179  10.334   6.428   6.117 -0.0142 -0.2456 -0.3578
33960W        W37180  13.462   4.961  17.594  0.1271 -0.0147 -0.2537
33961W        W37181  16.035  13.118   4.739 -0.1119 -0.0235 -0.0333
33962W        W37182  14.902  13.710   8.212 -0.0425  0.0514  0.0335
33963W        W37183  15.611   3.348  17.189 -0.2611 -0.2058 -0.0154
33964W        W37184  17.250   6.491   9.263  0.0798  0.4941  0.2598
33965W        W37185  14.389   8.886   8.302 -0.2612  0.0176  0.2582
33966W        W37186   8.613  14.058   0.573  0.0846  0.1350  0.1360
33967W        W37187  12.599   4.913   0.164 -0.2039 -0.2931  0.0724
33968W        W37188   7.928   4.871  16.328 -0.1590  0.2615  0.2439
33969W        W37189  16.152   8.136   1.584  0.2165 -0.0522  0.0102
33970W        W37190  17.833   7.817   3.601 -0.2947 -0.0142  0.1265
33971W        W37191   8.948   8.441   2.313  0.0884  0.2515  0.0795
33972W        W37192   9.444  10.500   3.660 -0.2070 -0.0492 -0.0044
33973W        W37193  15.839   6.760   5.889 -0.0902 -0.0681 -0.2933
33974W        W37194  13.348   8.543   5.935  0.2508  0.2082 -0.0132
33975W        W37195  15.804   2.317   7.093 -0.1293  0.2140 -0.1970
33976W        W37196   3.485  10.517   3.427  0.0786 -0.1554 -0.0350
33977W        W37197  16.868   1.496   6.799 -0.1457  0.0451 -0.0873
33978W        W37198  15.849  13.010  10.884 -0.2352  0.2910 -0.0274
33979W        W37199   1.357  10.477   2.908  0.0691  0.0865  0.1058
33980W        W37200  17.827   7.492  15.204 -0.0287  0.1458 -0.2443
33981W        W37201   3.194  18.039   0.196  0.1812 -0.2112  0.1131
33982W        W37202  16.573  11.357  12.853 -0.0502  0.0775  0.4809
33983W        W37203  10.315   6.870   3.638 -0.1333  0.0700 -0.1642
33984W        W37204   3.838   3.554  14.560  0.0342 -0.2319 -0.1754
33985W        W37205   9.456   6.515   8.467 -0.0827 -0.0962  0.2973
33986W        W37206  17.300  17.542   4.563 -0.2141 -0.0950 -0.1793
33987W        W37207  10.308   6.535  18.143  0.0211 -0.1245  0.0275
33988W        W37208  10.937   8.779  12.843  0.0220 -0.1353  0.1528
33989W        W37209  10.064  11.342   5.676  0.0155 -0.1123  0.0632
33990W        W37210  10.419   4.198  14.976  0.0293 -0.0518 -0.2047
33991W        W37211  12.915  13.273   5.672  0.1666  0.0494 -0.1796
33992W        W37212  13.062  15.638  10.794  0.0357  0.0835 -0.3269
33993W        W37213  13.631  12.201   4.920 -0.0799  0.1119  0.0933
33994W        W37214  15.381   2.329  14.206  0.2667 -0.1425 -0.0044
33995W        W37215  12.624  11.687   9.831 -0.2606 -0.3450  0.1940
33996W        W37216   1.133   7.405  11.711  0.1826 -0.0243 -0.3861
33997W        W37217  11.105  13.378   9.768 -0.0334  0.1334 -0.1451
33998W        W37218  12.920   8.396   4.343  0.0796 -0.2281  0.2858
33999W        W37219  13.528   5.685  10.933 -0.0533 -0.0408  0.2479
34000W        W37220  15.895   9.118  18.023  0.1525 -0.1395 -0.2759
34001W        W37221   0.419   9.070  12.907  0.0172 -0.0829  0.3132
34002W        W37222   0.782  11.696   6.785 -0.2503 -0.1221  0.0285
34003W        W37223   0.223   7.941  17.813 -0.2217 -0.1745 -0.0602
34004W        W37224  11.617  15.860  18.013 -0.2947  0.1778 -0.2123
34005W        W37225  18.136  11.284   7.724  0.3341 -0.1671 -0.0319
34006W        W37226  14.327  11.721   6.354 -0.0467 -0.5103 -0.3060
34007W        W37227  12.851  14.126   1.994 -0.0187 -0.1933  0.1294
34008W        W37228  16.011  12.772  11.526 -0.2598  0.0244  0.2324
34009W        W37229  15.203   5.817   7.355 -0.2210 -0.1544  0.2056
34010W        W37230  15.902  14.188   6.706  0.2690  0.1578 -0.0091
34011W        W37231  12.084  10.348   9.041 -0.1518 -0.0924 -0.0283
34012W        W37232  12.056   9.739   8.277 -0.0502  0.0397 -0.0436
34013W        W37233  16.715  12.026   4.955  0.1298 -0.0015 -0.3951
34014W        W37234  11.727  10.522   9.501 -0.0696  0.0505  0.3338
34015W        W37235  17.927  11.233   7.251 -0.1162  0.0108 -0.0149
34016W        W37236  11.229  13.170   5.015  0.3741 -0.5029 -0.2931
34017W        W37237  15.167   8.320   4.225  0.1181 -0.2224  0.0900
34018W        W37238  13.456   7.604  10.042  0.3015 -0.1246 -0.2067
34019W        W37239  17.467   3.379  16.903 -0.0540  0.1085 -0.0980
34020W        W37240  13.883   5.596   2.381  0.0448 -0.0263 -0.0987
34021W        W37241  12.159  15.328   5.686 -0.0941  0.2715 -0.1222
34022W        W37242  13.624   2.789   9.502  0.0222 -0.0571  0.3354
34023W        W37243   9.705   9.628   5.702 -0.3021 -0.0226  0.3865
34024W        W37244  15.332   9.521   1.683 -0.0695  0.0377 -0.0936
34025W        W37245   1.333   8.048  16.428 -0.2291  0.0527  0.3997
34026W        W37246  14.396   2.766   8.009  0.3282  0.1976 -0.1151
34027W        W37247  15.411   9.562  10.045  0.0473  0.0536 -0.1076
34028W        W37248   9.040   0.409   4.585  0.0162 -0.1690 -0.0298
34029W        W37249   9.574  11.092   6.361 -0.1242  0.1321  0.1014
34030W        W37250  16.472   9.801   4.998 -0.2923  0.0610 -0.2440
34031W        W37251  15.702   9.467   7.510 -0.0626  0.0160  0.3113
34032W        W37252   9.740  13.026   8.603  0.0219 -0.3187  0.0946
34033W        W37253  17.500  12.979  15.603  0.1933 -0.1339  0.3092
34034W        W37254  13.259   2.712   5.206  0.1155  0.0937 -0.0157
34035W        W37255  17.180  11.823  11.337  0.0903  0.0161  0.0494
34036W        W37256   7.327   9.518  14.544 -0.0630  0.4021  0.5208
34037W        W37257  16.418   5.189   2.553 -0.0973  0.2867  0.0601
34038W        W37258  13.242  10.311   5.844  0.2199 -0.3489 -0.1488
34039W        W37259   0.338   8.958   6.171  0.0542 -0.1567 -0.2710
34040W        W37260  14.275  12.681   4.584 -0.1693  0.1351 -0.3216
34041W        W37261   6.887   3.818   4.863 -0.0522 -0.0109  0.0891
34042W        W37262  10.669  16.903  10.565 -0.1736  0.0240 -0.1666
34043W        W37263  13.598   5.974   8.011  0.0636 -0.0723 -0.1610
34044W        W37264   8.848   5.150   9.243  0.1654 -0.5809 -0.0699
34045W        W37265  12.923   5.870   2.451  0.2597 -0.0284  0.0972
34046W        W37266  13.162  10.512   4.795 -0.0929 -0.0464 -0.1096
34047W        W37267  11.749  12.958   2.093 -0.2130  0.0671 -0.2112
34048W        W37268  15.878  11.082   1.215  0.4402 -0.3298 -0.3740
34049W        W37269   5.728   7.236  11.760 -0.0151 -0.0681 -0.3088
34050W        W37270  16.890   1.357   3.237 -0.2026  0.0479  0.2595
34051W        W37271  11.378   6.830   5.182  0.2693  0.1000  0.2024
34052W        W37272  15.210   8.695   3.651  0.1346 -0.0831  0.3329
34053W        W37273  16.460   9.388   4.061 -0.1679  0.0408 -0.1357
34054W        W37274  14.379  14.677  13.717 -0.1139  0.1600 -0.1851
34055W        W37275  11.908  17.369  17.596 -0.0381  0.1960 -0.0378
34056W        W37276  14.351  11.747   2.868  0.0094  0.1115  0.1416
34057W        W37277  12.964  10.754   8.190  0.3569  0.3054  0.0676
34058W        W37278  17.790   5.308   5.148 -0.2913 -0.0989 -0.1607
34059W        W37279  10.763  13.518  10.548 -0.1317 -0.0560  0.2226
34060W        W37280  13.188   3.937   2.789  0.3625  0.2413  0.2504
34061W        W37281   0.985   8.711   1.615 -0.0045 -0.2910  0.0359
34062W        W37282  13.688  14.793   7.968 -0.0056 -0.0939 -0.2217
34063W        W37283  17.524   8.190  16.646 -0.0945 -0.0937 -0.2004
34064W        W37284  13.531   6.101  13.001  0.0209 -0.1218 -0.0565
34065W        W37285  16.840  12.895   5.754  0.1040 -0.0922 -0.1890
34066W        W37286  10.013   3.413   2.210 -0.0755  0.0119 -0.0071
34067W        W37287   6.790  16.593  14.960 -0.3391  0.0279 -0.0804
34068W        W37288  14.208   5.248   1.778  0.0387  0.1934 -0.0020
34069W        W37289  10.130   8.295   9.895 -0.1677  0.0394  0.0678
34070W        W37290  14.189  11.283   8.308 -0.0052 -0.1936 -0.2858
34071W        W37291   2.218  12.684   1.019  0.0570  0.2013  0.1290
34072W        W37292  10.502  10.757   0.433 -0.3020 -0.2202  0.1841
34073W        W37293  14.054   2.809  10.235 -0.1397  0.1401  0.4007
34074W        W37294  12.691   8.909   8.842  0.1312  0.0198 -0.0679
34075W        W37295  16.342  15.632   9.230 -0.2499  0.3115  0.2029
34076W        W37296  13.524  14.918   7.054 -0.1538  0.1492  0.4262
34077W        W37297  15.043   9.296   9.663  0.2039 -0.0988 -0.0920
34078W        W37298   6.864  15.025  17.376  0.1442  0.0225 -0.3071
34079W        W37299  12.281   9.289   9.458  0.1178 -0.1675  0.1882
34080W        W37300   1.903   7.095   4.252  0.0167 -0.3159  0.1180
34081W        W37301  17.721   3.302   2.741 -0.1061 -0.1151  0.0499
34082W        W37302  13.897   4.959   6.644 -0.1885 -0.2095 -0.0245
34083W        W37303  13.617   7.076   6.344  0.2518 -0.1598  0.2128
34084W        W37304  14.811   9.620   0.890  0.1252  0.1215 -0.0095
34085W        W37305  11.093   5.200   9.302  0.0106  0.0794  0.1331
34086W        W37306   6.809   7.867   2.429  0.0351 -0.2866  0.0356
34087W        W37307  10.953   6.360   7.453 -0.1122 -0.4505  0.1221
34088W        W37308  17.691   6.864  12.060  0.1358 -0.1585  0.0180
34089W        W37309  13.660  14.966   3.801 -0.1234  0.3569 -0.1575
34090W        W37310  15.683   4.167   2.380 -0.0005  0.0876 -0.0819
34091W        W37311  16.263   9.021   5.434  0.4626 -0.1039  0.1214
34092W        W37312  13.891   9.529  11.571 -0.2252 -0.3956 -0.0334
34093W        W37313  10.149   9.312   6.562 -0.1366  0.0912 -0.0218
34094W        W37314  14.899   5.450   6.331  0.2730  0.0366  0.2472
34095W        W37315  17.615  10.432   2.458  0.1764 -0.0596  0.0857
34096W        W37316   0.925   5.085   5.005  0.0815  0.0368  0.4760
34097W        W37317  10.895  13.101  10.263  0.0194 -0.1203  0.0006
34098W        W37318  16.794   7.352   3.016 -0.1498 -0.1724  0.2880
34099W        W37319  14.260   5.809   6.996  0.1194  0.1587 -0.2532
34100W        W37320  13.021   7.117   0.970 -0.0767  0.1092  0.0723
34101W        W37321   1.670   8.084   7.170  0.1741 -0.2353  0.0965
34102W        W37322   7.403   4.918  14.219  0.0245  0.3398 -0.2067
34103W        W37323  17.824  10.908   1.528 -0.3995 -0.1065  0.0074
34104W        W37324   0.392  11.915  17.302 -0.0313  0.1036 -0.0943
34105W        W37325  12.063   6.401  10.507 -0.2941  0.1196  0.0497
34106W        W37326  16.478   3.833  10.481 -0.0803 -0.0656  0.2458
34107W        W37327  11.071  10.638   9.666  0.0748  0.0028  0.1908
34108W        W37328  10.684   9.820   3.828 -0.0570 -0.0110 -0.0098
34109W        W37329  12.245   7.976   4.603 -0.0556  0.0852 -0.1491
34110W        W37330   1.666  12.753   5.137 -0.1060  0.0833  0.3481
34111W        W37331  18.110   8.014   4.726  0.1461  0.3821  0.0274
34112W        W37332  10.709   8.605   3.243  0.0510 -0.0862  0.2984
34113W        W37333  13.613  10.983  13.750 -0.1713 -0.1444 -0.4111
34114W        W37334  16.331   6.086   5.077  0.1016  0.3283 -0.2291
34115W        W37335  11.774   8.673   5.124  0.1809 -0.6078  0.0466
34116W        W37336  10.723   4.218   7.915  0.0826 -0.1114 -0.2679
34117W        W37337   9.457   7.361   6.478 -0.0459 -0.0205 -0.0691
34118W        W37338  12.828  15.798   6.864  0.3385  0.2748  0.0338
34119W        W37339   9.266   1.720   9.239  0.3871 -0.1307  0.2007
34120W        W37340   9.554   9.590   3.837  0.1866  0.1669 -0.1589
34121W        W37341  11.714   5.041   9.319  0.0582 -0.3310 -0.2432
34122W        W37342   8.026   4.096   7.148  0.2848  0.1256 -0.0970
34123W        W37343  12.671   7.858   4.294  0.1997  0.2110  0.0112
34124W        W37344   0.873   3.336   2.077  0.0911  0.2227 -0.0394
34125W        W37345  11.951  11.109   8.405  0.0495  0.0367  0.1326
34126W        W37346   3.906   8.544   5.055  0.0611 -0.0322  0.1529
34127W        W37347  15.932  10.689  12.332 -0.3043  0.1877 -0.2222
34128W        W37348   9.703   6.703  10.320  0.1726  0.1872 -0.0642
34129W        W37349   1.508   6.888   6.292 -0.3023 -0.0631 -0.1514
34130W        W37350   9.046   2.138   9.477  0.0893 -0.1325 -0.2969
34131W        W37351  13.606  11.216   5.955 -0.0992  0.2224  0.2014
34132W        W37352   2.044  14.803  10.478  0.1347 -0.0081 -0.1581
34133W        W37353   1.950   4.225   7.036 -0.1289 -0.0473  0.0023
34134W        W37354  12.591  13.873   6.891 -0.0433  0.0586 -0.2301
34135W        W37355  15.946   8.067   6.954 -0.0263 -0.1340  0.1322
34136W        W37356   6.861  14.755  17.819  0.1597  0.3465  0.1788
34137W        W37357   0.500  12.558   8.090 -0.2148 -0.0699 -0.2629
34138W        W37358  16.187   3.428   8.654 -0.1557 -0.1630  0.0144
34139W        W37359  12.331  12.975   2.583 -0.0266  0.5873  0.1140
34140W        W37360   1.555   4.070   3.647  0.1426 -0.2893  0.3697
34141W        W37361   8.863   9.515   3.175  0.2269  0.1037 -0.3688
34142W        W37362  14.646   2.525   0.169 -0.1195 -0.0273  0.3025
34143W        W37363  18.051  13.177   5.466  0.1070 -0.2977  0.1254
34144W        W37364   1.660   7.268   9.579  0.0781 -0.0242 -0.0084
34145W        W37365  14.159  13.133  12.987  0.1131  0.2549 -0.0584
34146W        W37366  11.105   5.627   8.233  0.3542 -0.1712  0.1171
34147W        W37367   1.679   5.958   7.597 -0.0649 -0.2332 -0.1007
34148W        W37368   2.240   6.481   0.312 -0.2336 -0.1311  0.1673
34149W        W37369  11.554  11.423   5.871 -0.0230 -0.1480  0.0231
34150W        W37370  15.525   8.920   2.695 -0.1203  0.0495 -0.1072
34151W        W37371   7.751   6.772   6.054 -0.2293 -0.0886  0.0776
34152W        W37372   2.074   6.445   7.277 -0.0880 -0.3317  0.0141
34153W        W37373   4.264  10.866   3.978 -0.1815 -0.0847  0.1840
34154W        W37374  17.834  10.863   0.489  0.0558  0.1716  0.0815
34155W        W37375  14.871   9.458   9.247  0.0605 -0.2119  0.1189
34156W        W37376  13.081  11.164  11.491  0.2368  0.1572 -0.1133
34157W        W37377  16.865  18.236   5.504  0.3289 -0.1952 -0.1177
34158W        W37378   0.534  12.204  13.347  0.0627 -0.2294  0.3208
34159W        W37379   0.626   1.091   3.659  0.1307 -0.0307  0.4339
34160W        W37380  18.161   6.636   4.758 -0.1452  0.2293  0.1148
34161W        W37381   0.242   8.330   2.157  0.0924 -0.1037 -0.1316
34162W        W37382   5.051   9.576  10.867 -0.3911 -0.0233  0.2450
34163W        W37383   1.656   6.580   4.361  0.0124  0.0989  0.0518
34164W        W37384  16.640   3.278   3.530 -0.2145  0.1503 -0.1636
34165W        W37385  13.556   6.671   9.749  0.0396 -0.2858 -0.0498
34166W        W37386  17.224   3.181  14.810 -0.0326 -0.4551  0.2063
34167W        W37387  12.785  14.612  10.748 -0.0409 -0.3385  0.0492
34168W        W37388   2.278   7.885  14.428  0.2674  0.0389  0.0596
34169W        W37389  17.481   9.766   3.672 -0.2662  0.0745 -0.1542
34170W        W37390   9.623  12.089   7.815  0.0293  0.0653  0.2947
34171W        W37391   6.440  11.253   8.639 -0.1249 -0.1117  0.2403
34172W        W37392  14.593  13.333   2.259  0.0020  0.0044  0.0906
34173W        W37393  11.908  12.552   5.618  0.0895  0.1672 -0.1041
34174W        W37394  15.531   9.564  17.939 -0.3043  0.3322 -0.0695
34175W        W37395  14.354   5.354   5.825 -0.2115  0.2265 -0.1546
34176W        W37396  11.318  11.608   5.387  0.0459  0.1203  0.1215
34177W        W37397  13.348   8.029   8.663 -0.1417  0.0671  0.0614
34178W        W37398  12.085   5.963   3.115  0.1443  0.2172  0.0672
34179W        W37399  14.411   6.935   5.329 -0.2343 -0.1618  0.0749
34180W        W37400  12.540   6.134   6.474 -0.0275  0.1016 -0.2290
34181W        W37401   9.314   3.925   6.268 -0.0141 -0.1250 -0.1006
34182W        W37402  16.249  12.848  12.419 -0.0739 -0.4362 -0.0290
34183W        W37403   0.632   4.948   7.670 -0.1202 -0.0966 -0.3894
34184W        W37404  14.274   4.964   0.840 -0.0003 -0.0075  0.1828
34185W        W37405  11.530   5.257  12.760  0.1438 -0.0892 -0.2975
34186W        W37406   9.857   8.832  13.475  0.1612 -0.0992  0.0212
34187W        W37407  10.245   6.408   2.263 -0.0265 -0.1881  0.2372
34188W        W37408  13.005   7.002   6.787  0.2921 -0.1691 -0.1853
34189W        W37409  17.835   8.445   6.657 -0.0600  0.1014  0.2364
34190W        W37410  13.243   9.041   9.308 -0.2431 -0.1700  0.0597
34191W        W37411  13.736   9.791   6.361 -0.2071 -0.0515 -0.0166
34192W        W37412   7.018   5.888   0.256  0.3047 -0.0982 -0.0824
34193W        W37413  16.579  11.035  10.343  0.1358 -0.0368 -0.1706
34194W        W37414  16.554  13.523   6.995  0.1412 -0.0340  0.2072
34195W        W37415  12.443   4.152   7.145 -0.0087  0.0365  0.1260
34196W        W37416  18.146  10.839   7.476 -0.0148 -0.1760  0.0422
34197W        W37417   7.230   7.051   9.615  0.0462  0.2271  0.1000
34198W        W37418  10.799   3.661  10.220  0.1503  0.2475 -0.0188
34199W        W37419   5.919   2.176   5.056 -0.1898  0.0524 -0.0267
34200W        W37420  17.502  12.171   4.292  0.2279  0.0431  0.1657
34201W        W37421   0.051  10.643   9.528 -0.0747  0.1243  0.2715
34202W        W37422  13.584  12.750  11.974  0.2653 -0.5362 -0.0455
34203W        W37423  14.512  15.507   7.174 -0.1770  0.2770  0.0347
34204W        W37424  18.065   9.372  11.287  0.0908 -0.0818 -0.0038
34205W        W37425   0.506  12.135   4.541 -0.2127 -0.1662  0.2587
34206W        W37426  13.715   5.981   6.201  0.1091 -0.0460  0.5149
34207W        W37427  12.301   2.508   1.929  0.0317 -0.1790  0.1684
34208W        W37428  17.493  12.530   1.514 -0.2302  0.1340 -0.0906
34209W        W37429  12.406   8.878   5.802 -0.0338  0.0339  0.1282
34210W        W37430  12.279   8.443   9.493 -0.0081 -0.1010 -0.1220
34211W        W37431  16.040  12.891   9.353 -0.1055 -0.4058 -0.0057
34212W        W37432  12.146   0.668   0.887 -0.2306  0.0615 -0.0528
34213W        W37433  17.140   9.774   6.710 -0.0301  0.1149  0.1908
34214W        W37434  13.306   9.555   5.064  0.3170 -0.0513 -0.0771
34215W        W37435  11.883  13.826   7.736 -0.2569  0.3679 -0.4127
34216W        W37436  15.671  15.906  14.354 -0.4134 -0.0513 -0.0351
34217W        W37437  13.541  13.904  16.012  0.2180  0.2120 -0.0303
34218W        W37438  13.951  17.753   3.940  0.3581  0.0522  0.0720
34219W        W37439  14.448   9.215   3.337  0.1154  0.2277 -0.2920
34220W        W37440   5.891   6.454   7.386  0.1579  0.0859  0.2204
34221W        W37441  12.726   9.550   7.601  0.0494 -0.0943 -0.2062
34222W        W37442  14.471   6.231   8.526 -0.0104  0.1832  0.0817
34223W        W37443  16.162   8.014   7.459 -0.1224 -0.1166 -0.0967
34224W        W37444   0.605   9.620   8.095  0.0000  0.0195 -0.1615
34225W        W37445  10.134  11.940   4.157  0.2549 -0.1308  0.1517
34226W        W37446  14.022  11.326   7.230 -0.1779 -0.2392 -0.0179
34227W        W37447  11.906   3.335   9.455  0.2732 -0.0522 -0.1689
34228W        W37448   6.718   5.176   4.497 -0.0757  0.3896  0.3076
34229W        W37449  13.158  10.312  17.367  0.0235  0.0249 -0.1695
34230W        W37450  14.699   6.958   3.136 -0.0511 -0.0165 -0.0980
34231W        W37451  11.416  14.718  10.118  0.0012  0.2708 -0.3621
34232W        W37452  12.941   3.111   8.645  0.1059  0.1114 -0.0072
34233W        W37453  11.609  12.909   5.433  0.0566  0.0241  0.1608
34234W        W37454   8.529  13.576   3.708 -0.1249  0.1050  0.0699
34235W        W37455  14.882  15.681   0.920  0.2645  0.0408 -0.3368
34236W        W37456  11.992   9.969   5.335  0.0454  0.1088 -0.0967
34237W        W37457  16.672  11.992  17.449  0.1496 -0.1084  0.3022
34238W        W37458   4.542  12.789   1.566 -0.2075 -0.0911 -0.1499
34239W        W37459   6.084  14.671   5.702  0.2086  0.1325  0.4431
34240W        W37460  15.416   9.536   6.433 -0.1957  0.1726  0.1415
34241W        W37461  17.881   8.407   5.578  0.0215  0.0344 -0.0542
34242W        W37462   1.318  15.898   4.914  0.0192  0.0874  0.0132
34243W        W37463  10.627  14.167   1.155 -0.2169  0.0343 -0.0528
34244W        W37464   9.180   5.179   3.037  0.2498  0.2684  0.3626
34245W        W37465  12.174   3.380   6.093 -0.1879 -0.1574 -0.3380
34246W        W37466  11.707  10.010   0.971 -0.0246 -0.1006 -0.2916
34247W        W37467  15.977   4.170   8.925 -0.0699  0.0105  0.2243
34248W        W37468  13.439   6.809   0.946  0.3053  0.0744  0.1523
34249W        W37469   5.472  10.113  15.936  0.1109  0.0053  0.2720
34250W        W37470  14.690  10.294   5.134  0.1400  0.1586 -0.0012
34251W        W37471  10.654  10.195   4.603  0.0088  0.1054 -0.0574
34252W        W37472  14.394   5.195   6.679  0.2226 -0.1299  0.1496
34253W        W37473   1.883   4.923   3.638  0.0257  0.3459  0.1089
34254W        W37474  14.714   6.999   0.668 -0.2328 -0.0998  0.1409
34255W        W37475  16.439   2.019   2.718 -0.0403 -0.4014 -0.1234
34256W        W37476  16.062   6.264   3.982 -0.2327  0.1527 -0.1270
34257W        W37477   9.518   8.201   6.631  0.3256  0.0767 -0.0267
34258W        W37478  13.493  11.329   5.191 -0.1764 -0.0427  0.2833
34259W        W37479  15.450   9.904   3.618  0.0135 -0.0859  0.1908
34260W        W37480   9.150   7.550   7.203 -0.1293  0.1355  0.0613
34261W        W37481  11.006  17.129  13.530  0.2159 -0.1768  0.0857
34262W        W37482  15.344   6.595   2.295 -0.0624 -0.3460  0.4580
34263W        W37483  14.805  11.652  10.173  0.3294  0.1010 -0.0100
34264W        W37484  12.517   7.079   9.082 -0.2735 -0.2571 -0.5819
34265W        W37485  14.249  12.167   6.108 -0.1018  0.3773 -0.4393
34266W        W37486  12.048   7.120   8.230  0.0985  0.0251  0.4455
34267W        W37487  16.277  12.181   7.640 -0.2029  0.3403 -0.0564
34268W        W37488  14.262  10.362   8.160 -0.2591 -0.0467 -0.1758
34269W        W37489  12.451  13.557   8.506  0.0068  0.1196  0.2108
34270W        W37490  15.801   6.145   4.928  0.2221  0.0666 -0.0328
34271W        W37491   1.062  10.646   3.988  0.1308 -0.0924  0.1445
34272W        W37492  13.984   4.924  10.441  0.1169 -0.0763 -0.2088
34273W        W37493   3.309   7.754   8.234 -0.0403 -0.2560 -0.2563
34274W        W37494   0.715   8.698   3.257  0.2241  0.1752 -0.0379
34275W        W37495  12.110   9.922  12.417  0.1231  0.1586  0.1850
34276W        W37496   0.691   6.587   9.120 -0.2415  0.0730  0.2292
34277W        W37497  10.542   8.609   3.813 -0.1824 -0.0325  0.0226
34278W        W37498   0.832   9.005   6.779  0.4228 -0.2424  0.0798
34279W        W37499   0.736   7.719   5.912  0.2680 -0.2055  0.0294
34280W        W37500   0.745   7.727   0.572  0.1862  0.1393  0.3092
34281W        W37501   6.902  10.747   7.825 -0.3331 -0.2415  0.1078
34282W        W37502   6.452  13.513  12.593 -0.0639  0.4946 -0.2116
34283W        W37503  16.988  12.563  12.756 -0.1472  0.0022  0.1946
34284W        W37504   1.059  16.784   2.330 -0.1240 -0.4510 -0.0701
34285W        W37505   0.016  12.818   1.357  0.0991  0.2872 -0.1115
34286W        W37506   4.524  12.231  16.759  0.0042  0.1910  0.0430
34287W        W37507   1.882  11.073  10.364  0.0005 -0.1445 -0.0364
34288W        W37508  15.656   7.768  10.779  0.1203  0.1608  0.2725
34289W        W37509   0.405   9.287  11.896 -0.0109  0.4253 -0.0157
34290W        W37510  16.182   9.827  13.957  0.0487 -0.0995  0.0656
34291W        W37511  11.577   4.052  15.665  0.1295  0.0553  0.1321
34292W        W37512  14.969   8.071   7.996 -0.3216  0.0174  0.0219
34293W        W37513  16.423  12.839   8.284  0.0864  0.1983 -0.0455
34294W        W37514  15.275   6.425  11.311  0.0532 -0.1294  0.1491
34295W        W37515  14.528  14.282   6.965  0.3429  0.1188  0.2203
34296W        W37516  13.445   1.981  13.866  0.1253 -0.2523  0.1251
34297W        W37517  16.830  11.151   8.456 -0.2786  0.0195  0.1541
34298W        W37518  13.605   7.379   0.848  0.3865  0.0578 -0.1104
34299W        W37519   9.885   4.821  10.659  0.3355  0.0402  0.1382
34300W        W37520   3.801  13.989   6.861  0.0218 -0.2264 -0.2856
34301W        W37521  16.013  13.402  10.504 -0.3250  0.5342 -0.1519
34302W        W37522  12.732  12.073  12.865 -0.2693  0.1660 -0.2058
34303W        W37523  10.385  16.504  11.940 -0.2702  0.1689  0.1210
34304W        W37524  17.728   7.887  16.178  0.3479  0.1862  0.0591
34305W        W37525  13.265  11.026  10.493 -0.0424  0.1032 -0.0998
34306W        W37526   9.773   9.566   6.766  0.2250 -0.1745  0.1869
34307W        W37527   0.135  10.856   7.897  0.0304 -0.0714 -0.2121
34308W        W37528  17.549  11.862   9.033  0.0884 -0.1180  0.0399
34309W        W37529   8.027   6.479   4.389  0.4324 -0.1099  0.2768
34310W        W37530  13.467  16.381  12.348  0.0581  0.3811  0.0110
34311W        W37531  16.981   7.945   5.850  0.0340 -0.2200  0.0848
34312W        W37532  16.247   3.710   6.272  0.2711 -0.4278  0.1886
34313W        W37533  18.260   8.641   6.386  0.2164 -0.0400  0.2011
34314W        W37534   2.791   9.557  14.200 -0.0545  0.0561 -0.0403
34315W        W37535  15.281   7.636   2.160  0.1792 -0.0752 -0.0825
34316W        W37536  16.283  12.586  15.451 -0.2543 -0.3340  0.1365
34317W        W37537  13.472   5.737   8.470 -0.0253  0.1120  0.1299
34318W        W37538  14.135   8.947   1.817 -0.5480  0.0890  0.0242
34319W        W37539  12.620  11.839   8.223 -0.0732  0.1128 -0.1878
34320W        W37540   2.442   8.173   7.643 -0.0175 -0.1578  0.0333
34321W        W37541   7.553   7.249  12.440  0.5892  0.1024 -0.1932
34322W        W37542  10.986  13.773  12.571 -0.0513 -0.1031 -0.0249
34323W        W37543   1.059  10.112   9.455 -0.1118 -0.0124 -0.1834
34324W        W37544  14.758  14.245   5.979 -0.1326  0.0692 -0.1149
34325W        W37545  10.189   8.833  14.059 -0.0291  0.2329 -0.3350
34326W        W37546  14.680   8.466   6.285  0.0213  0.0548 -0.2007
34327W        W37547   3.337  12.081   4.973  0.1805 -0.0586  0.2157
34328W        W37548  12.883   9.361   8.765  0.1150 -0.1056  0.1524
34329W        W37549  13.507   7.450  11.295 -0.1552  0.2663 -0.1112
34330W        W37550  16.552  16.441  11.728  0.0882  0.0189 -0.0788
34331W        W37551   7.897   2.960   9.600 -0.2993 -0.3911 -0.1070
34332W        W37552  15.528   6.973  14.253  0.2462  0.1252 -0.1641
34333W        W37553   1.110   9.928   6.730  0.1415  0.1185  0.2171
34334W        W37554  13.789  12.085   8.902 -0.0457 -0.2048 -0.0465
34335W        W37555  12.361  12.956   7.188  0.3002  0.2883 -0.0972
34336W        W37556  14.982   8.798  14.317 -0.1433 -0.0345 -0.0776
34337W        W37557  11.162  10.832  14.421 -0.0259  0.1397 -0.1324
34338W        W37558  13.768  10.487   5.576  0.0275  0.1565 -0.2170
34339W        W37559  10.300  12.859  12.453 -0.1480 -0.3371 -0.2683
34340W        W37560  14.058   9.906   2.045 -0.0640 -0.1073 -0.1342
34341W        W37561  11.345  10.007  11.446 -0.2379 -0.0671  0.0117
34342W        W37562  18.039  12.162  12.540 -0.1719  0.0134 -0.2403
34343W        W37563  17.112  10.165  11.914 -0.0232  0.1590 -0.1033
34344W        W37564  14.652  17.260   8.288 -0.0242 -0.0452 -0.1006
34345W        W37565  14.769  11.722   9.351  0.0623  0.3089  0.0317
34346W        W37566  14.015  15.735  15.954  0.1408 -0.1828 -0.1417
34347W        W37567  10.671   6.733  11.079  0.4326  0.1239  0.0222
34348W        W37568  15.212   9.162   5.215 -0.0425  0.0341 -0.0359
34349W        W37569   7.977  17.426  11.589 -0.0004 -0.2016 -0.1525
34350W        W37570  10.919   7.154   7.925 -0.0464 -0.0641 -0.1613
34351W        W37571  15.875  10.341  11.843 -0.0652  0.0444 -0.0147
34352W        W37572  10.636   3.645   8.024 -0.1103  0.1352  0.0010
34353W        W37573  16.625  13.634  14.521 -0.3255 -0.0081  0.3525
34354W        W37574  17.957   7.658   7.783 -0.1378 -0.0399  0.2182
34355W        W37575   4.198  14.046  15.520  0.0884  0.0392 -0.2165
34356W        W37576  11.384   5.259   8.553 -0.1155 -0.1141 -0.1096
34357W        W37577  15.121   9.897  16.622 -0.2941 -0.0173  0.0744
34358W        W37578  11.997   7.813  13.231  0.0453  0.2001 -0.2061
34359W        W37579  15.544  11.589  13.755  0.0870 -0.1609  0.2242
34360W        W37580   2.610   4.684   6.428 -0.3043 -0.1323  0.1105
34361W        W37581   0.449   9.790   8.604 -0.2308  0.0057  0.0787
34362W        W37582  13.634   8.770   2.209 -0.2516 -0.0729  0.0639
34363W        W37583  14.992   4.964  11.829  0.1748 -0.0291  0.0996
34364W        W37584  15.352   2.562  13.723  0.1357 -0.1838 -0.2355
34365W        W37585  11.958  14.465  15.874 -0.0364  0.1695 -0.1738
34366W        W37586  12.679   5.919  10.639 -0.1562  0.0397  0.1960
34367W        W37587  13.886  16.624  16.841 -0.1615  0.1767  0.1807
34368W        W37588  12.294   9.776  10.211 -0.3463  0.1159 -0.0379
34369W        W37589  14.299   9.794  14.975 -0.0203 -0.0220 -0.0008
34370W        W37590  15.408  12.594  12.077  0.0437  0.1587  0.1323
34371W        W37591  14.134   4.751   8.712  0.3728 -0.2104  0.0950
34372W        W37592  17.457  10.504   8.839  0.0641  0.0408 -0.0914
34373W        W37593   0.121   6.485   6.681 -0.2983 -0.0202 -0.1420
34374W        W37594   6.394   3.600   4.278 -0.2272 -0.4575 -0.0771
34375W        W37595   3.863  14.978  15.133 -0.1374 -0.2012  0.0992
34376W        W37596  12.314   6.818  15.440 -0.1033  0.1456  0.0959
34377W        W37597   7.280  12.531   9.291 -0.0361 -0.1026 -0.2610
34378W        W37598   3.746   5.598   5.552  0.1255 -0.3120 -0.2722
34379W        W37599  17.854  10.990  15.085 -0.0657  0.1934 -0.0546
34380W        W37600   8.932  10.462   3.709 -0.1930 -0.2900  0.1408
34381W        W37601  14.310   8.912   8.822 -0.3970 -0.0062 -0.0796
34382W        W37602  12.402   5.309   1.466  0.2190 -0.0089 -0.0170
34383W        W37603  18.050   1.956   6.513 -0.0918 -0.1616 -0.3419
34384W        W37604   3.115   7.233   8.058  0.0157 -0.0875 -0.4832
34385W        W37605   5.023   8.829  12.610 -0.1526  0.1818 -0.0884
34386W        W37606   9.175   2.383   2.365  0.1019 -0.2144 -0.1642
34387W        W37607  11.434   9.543  11.974 -0.0050  0.1474 -0.2685
34388W        W37608  10.820   4.014  12.010  0.3327  0.0074  0.1115
34389W        W37609  10.593  11.173   7.629  0.1247 -0.1703 -0.0299
34390W        W37610  11.363   8.164   4.504  0.1602 -0.0472 -0.1853
34391W        W37611   1.180   7.042   9.661  0.1876  0.1438 -0.3531
34392W        W37612   8.153   7.511  13.983 -0.2466 -0.0448 -0.5434
34393W        W37613  10.807  14.428   9.284 -0.0106  0.0311 -0.1174
34394W        W37614   2.270   6.747   6.919 -0.1444  0.0662  0.0585
34395W        W37615  12.706   7.895  13.371  0.0735 -0.1594 -0.1848
34396W        W37616   0.613   6.183  12.858  0.4304  0.1564  0.2586
34397W        W37617   2.127   8.722   5.213 -0.0782  0.0234 -0.2325
34398W        W37618  16.577  12.490  12.404 -0.1404 -0.2279 -0.0946
34399W        W37619   0.258   4.744   9.057 -0.1883 -0.1726  0.1414
34400W        W37620  12.400  17.173   2.741 -0.1162  0.0351 -0.0807
34401W        W37621  14.313  17.977   7.314 -0.0035  0.0378 -0.0707
34402W        W37622  14.123   6.038   1.684  0.0639  0.3077 -0.0018
34403W        W37623  12.965  10.159   6.646  0.0142 -0.1221 -0.2340
34404W        W37624  13.573   9.426   9.066  0.2166  0.2543  0.2607
34405W        W37625  15.774   5.984  11.025  0.2609 -0.0791 -0.3537
34406W        W37626  16.266   8.204   4.885  0.0020  0.0991 -0.1213
34407W        W37627   3.356  14.625   7.785 -0.0063 -0.0295  0.0974
34408W        W37628   1.367   5.801  13.590  0.2194 -0.0385 -0.0935
34409W        W37629  10.909  16.843   9.547 -0.0543 -0.1754 -0.0187
34410W        W37630  12.704   0.963  17.037 -0.0368 -0.0301 -0.0362
34411W        W37631  16.624  15.322  16.513  0.0461  0.2293 -0.2167
34412W        W37632  15.411   0.549   6.183 -0.4418 -0.1416 -0.1038
34413W        W37633   0.211   5.444   5.908  0.1087  0.2347 -0.1270
34414W        W37634  14.057   9.465  13.143 -0.2444  0.1011 -0.1735
34415W        W37635  14.299   4.523  11.136 -0.0042 -0.3206 -0.3774
34416W        W37636  16.765   9.342  15.226  0.0952  0.2944  0.2187
34417W        W37637  10.951  15.754  12.550  0.0528  0.0845 -0.0699
34418W        W37638   0.470  13.488  10.372 -0.0027  0.1832  0.0736
34419W        W37639  13.753  16.916  12.276  0.2252  0.3410  0.0895
34420W        W37640  10.842   7.082   9.507 -0.0579  0.0436 -0.0487
34421W        W37641  12.607  11.938   5.309 -0.2009  0.1320 -0.1350
34422W        W37642  10.180   5.837   8.055  0.0748 -0.1334  0.0938
34423W        W37643   9.826   7.015  16.375 -0.2358  0.4879 -0.1323
34424W        W37644  14.821   6.209  13.835  0.1686  0.3914 -0.0172
34425W        W37645   0.630  10.580  10.112 -0.2207  0.0766 -0.1385
34426W        W37646  12.173  15.320  14.898 -0.1973  0.1682  0.1998
34427W        W37647  17.410  10.715  15.420  0.0081 -0.2688  0.1540
34428W        W37648  17.785  17.837  14.783 -0.2206 -0.3035 -0.1993
34429W        W37649  10.406   6.779   9.611 -0.2880  0.1484  0.0563
34430W        W37650  13.735  10.732   3.901  0.2375 -0.1382  0.1835
34431W        W37651  13.779  11.406   6.461 -0.0130 -0.0021 -0.1835
34432W        W37652  16.822  10.849  12.559  0.0799  0.1961  0.1316
34433W        W37653  12.331  12.328  15.871 -0.2149  0.0324 -0.2632
34434W        W37654  10.303   1.719  11.479 -0.0783 -0.4771  0.2297
34435W        W37655  15.018   5.946   5.951 -0.0357  0.2797 -0.0728
34436W        W37656  13.753  10.831   9.651  0.2382  0.0664  0.4153
34437W        W37657  11.715  11.765   7.237  0.1247 -0.1451  0.1248
34438W        W37658   1.259   6.847  11.704  0.0726 -0.2055 -0.1996
34439W        W37659   8.244  14.460  11.604 -0.1130 -0.1482 -0.1549
34440W        W37660  11.216   6.861   8.260  0.2163 -0.2011  0.1946
34441W        W37661   6.602  10.053  10.544  0.0292  0.1475  0.1348
34442W        W37662  11.973  14.692  12.818  0.0487  0.0050  0.0021
34443W        W37663   5.526   2.980   9.607 -0.1343  0.1199 -0.0008
34444W        W37664  13.720  14.006   5.339  0.0731  0.0837  0.0245
34445W        W37665  16.345  11.085  13.758 -0.1874  0.0615  0.0067
34446W        W37666  13.373  11.198  12.377 -0.0144 -0.1073 -0.1437
34447W        W37667   0.214  16.084  16.877  0.3805 -0.0908  0.0615
34448W        W37668   2.160  11.609   8.652  0.0811  0.2030 -0.2930
34449W        W37669  16.872  15.471  15.204 -0.0124  0.2857  0.0007
34450W        W37670  14.815  13.124  15.144  0.0591 -0.1839 -0.1273
34451W        W37671  14.312   9.104  10.936 -0.1907  0.2785 -0.0384
34452W        W37672  12.422  12.034   7.769 -0.0594 -0.1411  0.2174
34453W        W37673   9.061  11.114   9.621  0.1195 -0.0950 -0.3284
34454W        W37674  12.543  13.012   6.334  0.1033  0.1844 -0.1890
34455W        W37675  15.842  10.265   2.102  0.3055 -0.1273 -0.1065
34456W        W37676  14.104   4.595  14.963 -0.2008  0.1214 -0.3051
34457W        W37677   9.969  12.810   4.783  0.1303  0.2318  0.0083
34458W        W37678  12.675   7.263   8.021 -0.1760 -0.2141 -0.1956
34459W        W37679  15.090   3.905  10.802  0.0884  0.2665 -0.2189
34460W        W37680   7.175  14.214   3.337 -0.1317 -0.1851  0.1560
34461W        W37681  16.566  10.849   2.238  0.0342 -0.0091 -0.1129
34462W        W37682  12.784  18.170  12.363  0.0728  0.0334 -0.0345
34463W        W37683   7.970   7.709   4.381  0.1363  0.0115  0.2080
34464W        W37684   0.004  11.199  14.792 -0.3078  0.0623 -0.3217
34465W        W37685  14.865  14.704  16.838  0.0676 -0.0895  0.0329
34466W        W37686  17.365   8.304   3.180 -0.1066 -0.0246  0.3509
34467W        W37687  12.985  14.604   9.472 -0.3423  0.2120 -0.5590
34468W        W37688  13.819  17.577   7.817 -0.1274 -0.0155 -0.2239
34469W        W37689   7.549   9.857  12.464 -0.2393  0.0590 -0.2908
34470W        W37690  11.920   2.224  11.993  0.1269 -0.0871 -0.2022
34471W        W37691   2.953   8.934  10.239 -0.3150  0.0207  0.1046
34472W        W37692  13.975  10.810   6.248 -0.1007 -0.1591  0.1156
34473W        W37693  13.631   0.840  17.109 -0.2015  0.1282  0.1768
34474W        W37694  11.242   8.719  11.227 -0.3230  0.0136  0.1658
34475W        W37695   3.517   6.472  15.928  0.0297  0.2172 -0.0741
34476W        W37696  13.672   9.382   3.830  0.1325  0.1149  0.0193
34477W        W37697   3.540  10.234  13.464 -0.0282  0.0188 -0.1645
34478W        W37698  16.560  13.908   5.687  0.3022 -0.1839 -0.1508
34479W        W37699  15.380   9.973  14.760  0.3973 -0.1539 -0.0032
34480W        W37700  15.095   8.424   8.788 -0.3335  0.2952 -0.1336
34481W        W37701  13.574  12.368  14.278  0.0573  0.0010 -0.1085
34482W        W37702   2.764  14.337  12.655  0.2840 -0.0197  0.2942
34483W        W37703  10.190   9.072  10.989  0.1922 -0.0724  0.0305
34484W        W37704   8.260   6.213   6.866 -0.1210  0.4080 -0.2157
34485W        W37705  13.129   0.323   6.104  0.1379 -0.1377 -0.1152
34486W        W37706   4.009  16.093   8.557 -0.0024 -0.0591 -0.1811
34487W        W37707  17.230   9.171   5.202 -0.3342 -0.3415 -0.4123
34488W        W37708  15.989  16.627  14.987 -0.0888  0.3326 -0.3061
34489W        W37709   3.895   6.863  11.354 -0.0519 -0.0669 -0.1797
34490W        W37710  14.747   5.035  14.390  0.0567  0.2085  0.2690
34491W        W37711   2.798   8.050   9.186 -0.2783  0.1531 -0.1526
34492W        W37712   9.023  10.571   5.245  0.0270 -0.0498 -0.1173
34493W        W37713   5.025  10.070   0.058 -0.0949  0.0469  0.0705
34494W        W37714  15.994  14.654  16.784  0.1214 -0.1100  0.0498
34495W        W37715   1.386   8.708  14.772  0.4203 -0.2145  0.0696
34496W        W37716  17.680  10.246  10.585 -0.0779  0.0612  0.3331
34497W        W37717  13.033  10.371   9.945 -0.1530  0.0253 -0.1017
34498W        W37718  16.827  10.049   0.969 -0.0428  0.0527  0.1884
34499W        W37719   2.522   7.007  10.172  0.3760  0.0309  0.0157
34500W        W37720  11.960   4.331   2.724  0.1174 -0.0302 -0.0074
34501W        W37721  17.515  11.744  10.591 -0.1878 -0.2054 -0.3435
34502W        W37722   2.422   7.422  12.026 -0.1363 -0.0324 -0.1144
34503W        W37723   7.545  13.275   8.618  0.0083 -0.3005  0.1483
34504W        W37724  14.835  15.452  14.650  0.3140 -0.0244 -0.0596
34505W        W37725  17.833   7.405   9.993 -0.1610  0.3157 -0.0444
34506W        W37726   0.487   7.529   0.178 -0.0299 -0.4891 -0.0083
34507W        W37727  10.685   7.435  15.257  0.3812 -0.1105  0.1954
34508W        W37728  12.766  11.057   6.644 -0.0493  0.0301 -0.1390
34509W        W37729  12.277  11.993  13.781  0.1234  0.0361  0.2243
34510W        W37730  10.959  14.625  11.561  0.0834 -0.0441  0.0878
34511W        W37731   3.573  13.582  15.128 -0.2281 -0.0654 -0.0811
34512W        W37732   2.142   8.535  10.218  0.3572  0.1609 -0.1463
34513W        W37733  14.425  15.275   7.593  0.0358 -0.2306 -0.1157
34514W        W37734  10.703  13.595  12.944 -0.1596  0.0870  0.1440
34515W        W37735   0.784  16.464  11.045  0.2037  0.2063 -0.0784
34516W        W37736  17.445  11.724  15.806  0.0027 -0.2375 -0.1579
34517W        W37737  14.448   2.992   4.575 -0.0937 -0.0748 -0.2260
34518W        W37738   0.618  15.651  14.964  0.0898 -0.4731  0.0322
34519W        W37739   7.986  12.666   3.129 -0.1351  0.2381 -0.0747
34520W        W37740   0.775  13.757  12.090 -0.1100 -0.2834 -0.0533
34521W        W37741   9.243   9.849  16.338 -0.0304 -0.2592  0.0634
34522W        W37742  11.934   8.648  10.429 -0.0324 -0.1342 -0.0186
34523W        W37743  11.365   3.439   2.208 -0.0153  0.0348  0.1885
34524W        W37744  13.240  16.798  10.880 -0.1003  0.0835  0.0137
34525W        W37745  12.904  14.053   3.221  0.0812  0.1467 -0.1132
34526W        W37746  17.545   3.261  10.480  0.0063  0.2103 -0.2034
34527W        W37747  13.217  10.215   4.379  0.0758  0.1288  0.0094
34528W        W37748  11.684  10.471   9.990 -0.0953 -0.0338  0.1550
34529W        W37749  17.197  10.670   5.494  0.0659  0.0716 -0.0574
34530W        W37750  15.088   8.981   6.489  0.2066  0.4110  0.0525
34531W        W37751   2.440  13.471  11.137 -0.1766 -0.0077 -0.0232
34532W        W37752  17.829  16.690   7.789 -0.0717  0.1721  0.0929
34533W        W37753  14.522   4.719  13.757  0.1414  0.0863 -0.2956
34534W        W37754   1.105  12.654  15.501  0.0236 -0.0912 -0.3051
34535W        W37755  13.391   0.187   9.388 -0.2338  0.2740 -0.0085
34536W        W37756  14.752  11.948   8.875  0.0164  0.0126  0.0173
34537W        W37757   6.952  11.277  11.354  0.0437  0.4184  0.1474
34538W        W37758  18.166   9.297   6.126 -0.1342 -0.1383  0.0472
34539W        W37759   8.453   8.971   7.023  0.0506  0.1159 -0.0014
34540W        W37760  12.123  10.321   6.847 -0.0730 -0.3275 -0.1411
34541W        W37761   6.184  12.246   4.619 -0.0375  0.0656  0.1810
34542W        W37762  14.481   3.247   4.098 -0.1217 -0.0356  0.0752
34543W        W37763   8.120   3.572   6.437  0.0583  0.2179 -0.3380
34544W        W37764  16.573  15.919   9.629  0.1533  0.0914 -0.0268
34545W        W37765   0.455  14.618   8.401  0.1187  0.1011  0.0151
34546W        W37766  15.388   8.066   9.009 -0.0412 -0.0678  0.2035
34547W        W37767  17.543  12.590  10.603  0.0146 -0.2187 -0.0912
34548W        W37768  10.850   2.884   8.346 -0.0420 -0.3141 -0.0485
34549W        W37769   0.610  16.453  17.864  0.0410 -0.0149  0.1430
34550W        W37770  15.249  10.343  16.887 -0.1755  0.1152 -0.2089
34551W        W37771  13.994  10.014   7.641 -0.1399  0.0274  0.2875
34552W        W37772   3.460   2.214   3.905 -0.0735 -0.0910  0.1954
34553W        W37773  17.417   5.414  16.441 -0.2597 -0.1085 -0.0465
34554W        W37774  11.439  15.171  10.332  0.2053  0.4315 -0.5280
34555W        W37775   0.749  17.913   5.658  0.2305  0.0491  0.2823
34556W        W37776  17.108  18.204   2.712 -0.0668  0.1323 -0.0083
34557W        W37777   9.880   3.845  17.209 -0.1760  0.1356  0.1725
34558W        W37778  14.959  11.975   0.200  0.2908 -0.3045 -0.1489
34559W        W37779  14.934  10.434   6.297 -0.2477 -0.0448  0.0923
34560W        W37780  12.393  10.728  12.158 -0.3032 -0.0350  0.0948
34561W        W37781  16.952   7.034  12.642 -0.0919  0.0911 -0.0722
34562W        W37782  12.379  10.300  12.418 -0.0106 -0.2226 -0.0825
34563W        W37783  16.679   4.794  12.143 -0.0615 -0.0250 -0.1595
34564W        W37784  17.595   9.042   7.466  0.0625  0.1409 -0.0226
34565W        W37785  16.469  10.381  12.316  0.0629 -0.0989  0.3329
34566W        W37786  15.386  14.191  13.355  0.1619 -0.0631 -0.1534
34567W        W37787  11.213   7.679  13.777 -0.1920  0.0860 -0.1485
34568W        W37788  12.153   3.303   9.905  0.0258  0.2948 -0.0816
34569W        W37789   9.709  10.209  14.067 -0.4138 -0.1594 -0.5433
34570W        W37790   6.677   4.704  14.311 -0.2336 -0.0852 -0.0783
34571W        W37791   2.370  11.587   5.594 -0.1990  0.1478 -0.3561
34572W        W37792  14.993   6.920   6.380 -0.3950  0.0728  0.3945
34573W        W37793  16.877  10.200  13.720 -0.0785 -0.2719 -0.0539
34574W        W37794   9.660   6.985   8.607  0.0568 -0.0767 -0.3976
34575W        W37795  16.351  15.420  15.618  0.0013 -0.0729 -0.1433
34576W        W37796   3.125  11.007  10.448 -0.1776 -0.1831  0.0111
34577W        W37797  12.812   7.130   8.588 -0.0889 -0.0052 -0.0534
34578W        W37798  12.712  13.566  10.096  0.2696  0.1789 -0.1339
34579W        W37799   3.574   8.560   7.654  0.1652  0.3573  0.4096
34580W        W37800  10.963   0.327  15.704  0.4046 -0.0965  0.2884
34581W        W37801  17.387   7.534   5.690 -0.1557  0.1778 -0.1290
34582W        W37802  13.476  11.216   7.309  0.1743 -0.0979  0.1402
34583W        W37803   9.057  10.883  10.780  0.1168 -0.0178  0.1606
34584W        W37804   9.208   7.000   8.345 -0.2117 -0.3772  0.1002
34585W        W37805  17.424   6.816  12.488 -0.0583 -0.1520  0.0044
34586W        W37806  13.148  11.917  10.043 -0.0733  0.0901  0.2889
34587W        W37807  10.402  10.700   8.558  0.1879  0.2153  0.0457
34588W        W37808  12.226  10.929   8.813 -0.1660 -0.0185  0.0678
34589W        W37809   0.518   9.763   5.728  0.1093  0.1662  0.3013
34590W        W37810  14.778   7.947  11.238  0.1219 -0.4810 -0.1058
34591W        W37811  11.795   8.515   7.670  0.3239  0.1762  0.1077
34592W        W37812   9.765  13.664   3.558 -0.2577  0.0193  0.0168
34593W        W37813   0.991  10.819   6.608 -0.2714 -0.2411  0.1801
34594W        W37814  15.064   7.383  10.595  0.1687  0.1532 -0.1049
34595W        W37815   7.296   7.176   6.586  0.4814 -0.2533 -0.1517
34596W        W37816  16.897   6.055  13.145  0.2628  0.0521 -0.1690
34597W        W37817  13.080   9.741  14.955 -0.0260 -0.1556  0.1427
34598W        W37818  11.661   8.721  13.761 -0.0376 -0.2141 -0.0054
34599W        W37819  14.185  13.442  14.405  0.1570  0.1736  0.0368
34600W        W37820   0.653  11.085   7.942  0.2422  0.0269 -0.2125
34601W        W37821  17.184   5.872   6.096 -0.2150  0.1575 -0.0791
34602W        W37822  14.947   9.947  12.247  0.2289  0.5315 -0.0876
34603W        W37823   0.247  13.338   5.485  0.1054 -0.3205 -0.2474
34604W        W37824   5.494   2.689  11.383 -0.0266 -0.1464 -0.1886
34605W        W37825   4.629  12.185   1.437 -0.0152 -0.2386  0.1730
34606W        W37826   9.763  11.009   2.828  0.0199  0.1866 -0.0754
34607W        W37827  13.371  11.606  17.270 -0.0276  0.1084  0.0313
34608W        W37828   8.684   3.378   9.439 -0.2724 -0.1343 -0.2141
34609W        W37829  17.299   9.936  13.735  0.0746 -0.0306  0.1940
34610W        W37830   1.764  12.511   8.687 -0.1708  0.3032 -0.1681
34611W        W37831   4.344  11.148  13.532 -0.0814  0.3184  0.4031
34612W        W37832  10.549   2.211  11.783  0.0436 -0.2673  0.1386
34613W        W37833   3.418  12.373   5.610 -0.0680  0.1911 -0.0868
34614W        W37834  10.253   6.933  12.379 -0.2854  0.0301 -0.3124
34615W        W37835  12.603   8.262   4.693 -0.1594  0.0440  0.0320
34616W        W37836  12.124  10.672   3.076 -0.4553 -0.1165  0.0992
34617W        W37837  16.053  10.308  14.161 -0.2013  0.0089  0.0689
34618W        W37838   8.787  16.123   9.734  0.0404 -0.1145  0.2071
34619W        W37839   0.667  15.792   6.476  0.2546 -0.0382 -0.3130
34620W        W37840  16.566   4.944   6.093  0.1171  0.1009 -0.2832
34621W        W37841   1.246  15.562   8.209 -0.1407 -0.2247 -0.0417
34622W        W37842   5.390   7.875   7.350  0.3055  0.3291  0.0042
34623W        W37843  14.759   6.741  12.496 -0.0995 -0.0130  0.2116
34624W        W37844  15.234   7.572  11.858 -0.0271 -0.0475  0.0523
34625W        W37845  15.884  13.892  11.178  0.1882  0.1246 -0.1102
34626W        W37846  13.571   8.491  17.119  0.1857 -0.0339  0.3289
34627W        W37847  13.188  15.718  13.021 -0.0582  0.0916  0.0572
34628W        W37848   1.474  13.967   5.599  0.0370 -0.3101 -0.2894
34629W        W37849  15.288  15.833  16.656  0.2768 -0.1908 -0.0772
34630W        W37850  11.809   9.494   6.492  0.2079  0.1871  0.1372
34631W        W37851  14.802  11.958   6.422  0.0910  0.1010  0.1194
34632W        W37852  17.418   8.640   9.026 -0.1690  0.0400 -0.0773
34633W        W37853   0.177   9.409   8.825 -0.2205  0.1080 -0.1866
34634W        W37854  13.376   9.238   4.192  0.0063  0.0364 -0.2504
34635W        W37855   1.628  16.275   1.519  0.0832  0.0821  0.0209
34636W        W37856   9.938  14.987  10.987  0.3150  0.0193 -0.2289
34637W        W37857   6.666  11.499   4.554 -0.0291 -0.2024 -0.1224
34638W        W37858  18.192   9.077   6.652  0.0161  0.2051  0.2405
34639W        W37859  13.784  11.186   8.096  0.0172 -0.1095  0.2838
34640W        W37860  17.782   4.166   6.782 -0.1199 -0.1109  0.0185
34641W        W37861  14.243  10.711  15.233  0.2126 -0.1355 -0.0644
34642W        W37862   7.069  10.674   8.644  0.2134  0.1309 -0.0508
34643W        W37863  12.552  15.961   7.255 -0.0492 -0.4260  0.1654
34644W        W37864   9.269   9.777  12.000 -0.2061 -0.1160  0.0578
34645W        W37865  17.426   8.745   7.841 -0.2001 -0.1316  0.3440
34646W        W37866  16.147  12.670  14.608 -0.0355 -0.0257 -0.0632
34647W        W37867   2.859  10.703  10.046  0.0112  0.2249  0.2878
34648W        W37868  14.566   9.664   2.240 -0.0108 -0.0522 -0.0093
34649W        W37869  17.202   8.242   8.774 -0.3721  0.0264 -0.1221
34650W        W37870  10.581  12.572   9.814  0.0334  0.1625 -0.0025
34651W        W37871  13.347  14.944   9.487 -0.1642 -0.0493  0.1047
34652W        W37872  16.071  11.567  13.648  0.2821 -0.1097  0.1147
34653W        W37873   4.535  15.013  10.876  0.1134  0.1958  0.0330
34654W        W37874  14.525   8.006   5.607  0.1419 -0.2320 -0.0762
34655W        W37875  14.248  15.047  10.643  0.1725  0.4367  0.1919
34656W        W37876  15.404  13.072   9.761  0.1152 -0.0556  0.0114
34657W        W37877  11.639  17.208   9.016  0.1875  0.4014  0.0693
34658W        W37878  12.619  14.694   9.818  0.2043  0.1317 -0.0180
34659W        W37879  12.350  12.962  11.942  0.0049 -0.1249 -0.0195
34660W        W37880   0.152  16.681   7.351  0.0052 -0.3013  0.2432
34661W        W37881  11.256   8.518   7.839 -0.1560 -0.0234  0.1045
34662W        W37882  17.398   6.462   3.065  0.1537 -0.1590  0.2464
34663W        W37883  15.967  16.282   6.354 -0.0748  0.0627 -0.1651
34664W        W37884   1.783  14.296   1.994  0.1458 -0.1814  0.3882
34665W        W37885   6.363   9.998  17.115  0.0231 -0.4089 -0.2341
34666W        W37886   9.786   7.125  12.147 -0.2535  0.3775 -0.0579
34667W        W37887  12.112  14.403  14.191 -0.0873 -0.2626  0.0171
34668W        W37888  15.857   8.905  12.999 -0.0343  0.0926 -0.0930
34669W        W37889   8.039   3.116  13.822  0.0691  0.0706  0.1248
34670W        W37890   4.207  10.897  14.735 -0.0548 -0.1885 -0.1163
34671W        W37891  10.205   7.780  12.676  0.0416 -0.1100 -0.1595
34672W        W37892   5.566   5.716   0.168 -0.0151  0.2521  0.2081
34673W        W37893  11.500   6.133  13.178  0.0094 -0.1740 -0.1334
34674W        W37894  13.957   4.620  17.993 -0.3331  0.0054  0.4214
34675W        W37895  12.884  10.282  15.047  0.0473 -0.2201 -0.0470
34676W        W37896  16.273  10.013  16.624  0.3302 -0.1435  0.1240
34677W        W37897   6.758   7.112   3.153 -0.1134  0.1185 -0.4437
34678W        W37898  11.470   8.985  15.532 -0.1203 -0.1514  0.3555
34679W        W37899  10.674   7.972  16.639 -0.1562  0.0590 -0.0227
34680W        W37900   8.650   9.993  13.159  0.0769 -0.0141  0.0352
34681W        W37901  14.354  10.728  13.983  0.2333 -0.0936 -0.0362
34682W        W37902  11.942   8.754  12.004  0.3424  0.3042 -0.3227
34683W        W37903  18.083   8.912  17.065  0.0947 -0.2307 -0.3442
34684W        W37904   6.727   8.838  13.084  0.1946  0.1221 -0.0538
34685W        W37905  10.936   9.149  15.542  0.0438  0.3970  0.2638
34686W        W37906   5.250   8.945  11.992 -0.2209 -0.0190 -0.2436
34687W        W37907   6.112  10.737   0.591 -0.0125  0.2006 -0.0905
34688W        W37908   8.420   7.002  17.279 -0.3470 -0.1041  0.2329
34689W        W37909  14.139  13.948  10.493 -0.2861 -0.2208 -0.0386
34690W        W37910  10.996   6.438  13.672 -0.0747  0.0378  0.0799
34691W        W37911  15.858   7.929   8.997 -0.0956  0.0279  0.0191
34692W        W37912  10.791  11.848  15.023  0.1345  0.1840  0.2868
34693W        W37913  10.200  14.014   8.395 -0.1480 -0.2029  0.2972
34694W        W37914  17.194  12.726  16.807 -0.1670 -0.1735  0.1592
34695W        W37915  14.401   9.906   0.627  0.2247 -0.1772  0.0479
34696W        W37916  13.996   6.490   2.670  0.0820 -0.0396  0.1678
34697W        W37917  11.281   7.234  12.697 -0.2838 -0.0708 -0.0742
34698W        W37918   4.784   5.767  16.908 -0.0943 -0.1211  0.1923
34699W        W37919   8.004  12.411  12.594 -0.1241 -0.2785  0.3874
34700W        W37920  13.116   0.424  13.606  0.2261 -0.3833 -0.3434
34701W        W37921   0.555  11.046  14.791  0.4797  0.0342  0.4192
34702W        W37922  14.842  12.815  14.436  0.1754  0.1973  0.0465
34703W        W37923  10.146  13.368  13.497 -0.2148 -0.0740  0.1433
34704W        W37924  15.070  13.833  12.851  0.0823  0.2158  0.0600
34705W        W37925  15.567   8.478   9.842  0.1404 -0.2324 -0.0476
34706W        W37926  11.944  13.461  12.123 -0.0613  0.0097  0.0319
34707W        W37927   7.711  12.745   6.624 -0.1202 -0.2680 -0.1839
34708W        W37928   8.071  11.641  13.097  0.0772  0.0215 -0.2585
34709W        W37929  15.412  13.347  13.598  0.2942 -0.0910  0.2123
34710W        W37930  15.777   9.174  15.017  0.2676 -0.1489  0.0759
34711W        W37931   1.097   9.851  10.976  0.1055  0.3244  0.2392
34712W        W37932  12.009  10.883  13.012 -0.1124 -0.0403 -0.2052
34713W        W37933   9.935  14.079  14.788  0.0027 -0.1691 -0.1816
34714W        W37934  12.355  10.749   4.786  0.0319 -0.0178  0.1408
34715W        W37935  15.446  11.817   6.487  0.0436 -0.1769  0.0986
34716W        W37936   0.768   4.338  13.702  0.2870  0.0043 -0.5480
34717W        W37937   8.898   6.660   9.281 -0.0718 -0.0894  0.2573
34718W        W37938  12.644   5.637   5.245  0.1567  0.0652  0.3133
34719W        W37939  10.383   0.045  10.635 -0.1098  0.1820 -0.0850
34720W        W37940   0.251   7.516  14.020 -0.0898  0.1551 -0.1678
34721W        W37941  15.238   8.166  12.739 -0.0444 -0.1616  0.1412
34722W        W37942  11.200   5.095  13.212 -0.4989 -0.0881  0.1370
34723W        W37943   7.505   7.365   0.146 -0.1162  0.3244 -0.2002
34724W        W37944  16.730   9.715  14.464  0.2344 -0.5556 -0.0487
34725W        W37945   3.519  10.140  11.477  0.1384  0.0035  0.1288
34726W        W37946  10.490   4.208   0.542 -0.0322 -0.0526 -0.2434
34727W        W37947  14.139  10.078  18.015  0.3366 -0.0260 -0.2561
34728W        W37948  14.921   8.076   8.481 -0.1630 -0.4010  0.0115
34729W        W37949  13.909  10.963  10.432 -0.2264  0.0360  0.0141
34730W        W37950  10.284   3.935  15.851  0.1141 -0.0582 -0.0772
34731W        W37951   8.655   9.234  10.028  0.4845  0.1356  0.0969
34732W        W37952  16.684  12.285  13.013 -0.0984 -0.2628 -0.0033
34733W        W37953   7.881  17.504   0.060  0.4171 -0.0144 -0.0557
34734W        W37954   0.843  13.150  13.122  0.0361  0.0923  0.0724
34735W        W37955   6.252  12.168  13.665  0.1238 -0.1804 -0.4358
34736W        W37956  14.554   7.163  18.239  0.2727 -0.2200 -0.2248
34737W        W37957   8.780   9.600  16.348  0.0988  0.2569  0.0513
34738W        W37958   7.434  15.132  13.618  0.4007  0.2441 -0.0149
34739W        W37959  17.582  12.537  17.680 -0.1088 -0.1205  0.0765
34740W        W37960   6.270   9.639  12.757 -0.1276  0.0113 -0.2737
34741W        W37961  10.183  10.198   2.305 -0.1562  0.0792 -0.0415
34742W        W37962  11.026  11.105  12.633 -0.1384  0.2768 -0.1954
34743W        W37963  18.186   3.720   1.103 -0.1434 -0.0400 -0.2504
34744W        W37964  10.200   5.955  13.326  0.0981  0.1197 -0.0440
34745W        W37965   7.179  12.673  13.280 -0.0877 -0.1287 -0.2625
34746W        W37966   3.947  12.968  17.136 -0.3524 -0.0788  0.0988
34747W        W37967  14.376  16.848   0.677 -0.1080  0.1142 -0.1587
34748W        W37968   8.124   4.745  14.811  0.1120 -0.0657 -0.0356
34749W        W37969  17.240  10.500  10.421  0.0998 -0.0654  0.0050
34750W        W37970   0.008   5.954   0.838  0.2267 -0.4120 -0.1255
34751W        W37971  12.996  10.120  16.701 -0.2365 -0.0295  0.2817
34752W        W37972   5.499   5.703   0.669  0.0592 -0.0477 -0.3529
34753W        W37973   8.324   9.165  14.952 -0.2102 -0.0690  0.0265
34754W        W37974  12.495  16.934  11.328 -0.0982 -0.1043  0.1002
34755W        W37975   9.091   1.738   7.345 -0.1207 -0.0913  0.0608
34756W        W37976  15.414   5.263   0.546  0.1250 -0.0036 -0.0388
34757W        W37977  15.088  11.421  11.131  0.0846  0.0833  0.3460
34758W        W37978  11.828  15.676   5.884  0.1018  0.2112  0.3265
34759W        W37979  10.714  13.108   5.926  0.1184 -0.0471 -0.1455
34760W        W37980  14.580   9.859  12.623 -0.1472 -0.0874 -0.1551
34761W        W37981  14.607   7.062  13.472  0.0772 -0.0442 -0.0908
34762W        W37982  14.848   9.722   7.752 -0.1962 -0.1255 -0.0509
34763W        W37983  10.346   9.507  15.927 -0.0883  0.0442  0.0465
34764W        W37984  16.290  10.084   5.408 -0.0702  0.3544 -0.0943
34765W        W37985  16.746   9.776  11.725 -0.2093 -0.0860 -0.0673
34766W        W37986   5.346   5.958  13.231  0.0769 -0.3792 -0.1809
34767W        W37987  17.627   4.955  12.972  0.0325 -0.0056 -0.1269
34768W        W37988   8.271   6.487  18.229 -0.0365 -0.2109 -0.3087
34769W        W37989  17.951   8.683   7.714 -0.1657 -0.0243 -0.2634
34770W        W37990   3.867   8.821  14.224  0.1682  0.2707 -0.2029
34771W        W37991   9.802  15.707   8.583  0.0557 -0.0816 -0.0004
34772W        W37992   9.562   8.437  11.130  0.2836 -0.0242  0.2984
34773W        W37993  16.114   8.940  13.894 -0.0498  0.1511  0.1970
34774W        W37994   9.272  12.695  12.202 -0.0574 -0.2927 -0.0360
34775W        W37995  15.080   3.548  16.874  0.2231 -0.3830  0.0934
34776W        W37996   9.525  12.844  14.614  0.1469 -0.0923  0.1287
34777W        W37997  14.948   4.281   9.779  0.0987 -0.0650 -0.1713
34778W        W37998   6.164   6.326  13.032  0.0436 -0.0895  0.1202
34779W        W37999  12.184   7.274  15.296 -0.1013 -0.1674  0.1083
34780W        W38000   9.059   7.653  18.241 -0.0302 -0.0363 -0.2837
34781W        W38001   7.138   6.767  13.729  0.1284  0.0189  0.2145
34782W        W38002  10.657  10.145   8.372 -0.0633  0.1464  0.4011
34783W        W38003  14.703   6.110  16.108 -0.0412 -0.1162  0.0065
34784W        W38004  11.972   8.323  13.801  0.1726 -0.1545  0.0876
34785W        W38005  10.043   6.920   0.073 -0.3086  0.0503 -0.2433
34786W        W38006  17.049   9.922  17.265  0.1576  0.3144 -0.0190
34787W        W38007  11.133   8.833  15.100 -0.0131  0.3649 -0.2049
34788W        W38008   9.548   9.006  17.350 -0.0892 -0.2337 -0.1039
34789W        W38009   8.904   8.589  16.287 -0.1353 -0.0926  0.0476
34790W        W38010  17.617  10.151  14.570 -0.2359 -0.1166 -0.1668
34791W        W38011   8.292   7.094  13.726  0.1629 -0.0910  0.1074
34792W        W38012   6.259   6.554  13.443 -0.1393  0.0085  0.2244
34793W        W38013  12.747   8.592  11.755  0.2587  0.0080  0.0300
34794W        W38014   0.006  10.819  14.292 -0.0939 -0.2702  0.0337
34795W        W38015  16.945   5.823   6.980  0.2432 -0.0169  0.2190
34796W        W38016  11.108   8.699  15.945  0.0721 -0.0272  0.1985
34797W        W38017   1.326   9.461   9.281  0.0586 -0.0475  0.0168
34798W        W38018  16.252   7.329  16.043 -0.2379  0.0170 -0.2714
34799W        W38019   2.481   4.055  11.231 -0.0018 -0.0566  0.0010
34800W        W38020  11.577   8.009   8.139 -0.2564  0.1383  0.2363
34801W        W38021  11.034  10.750  11.702 -0.2326 -0.3093 -0.0267
34802W        W38022  17.994  11.180  13.779 -0.0203 -0.0002  0.0473
34803W        W38023  16.304   4.091  16.512 -0.0725  0.0316 -0.1887
34804W        W38024  18.130   5.133  12.875 -0.1708  0.0613 -0.1180
34805W        W38025   8.643   3.211  12.100  0.3901  0.1068 -0.0811
34806W        W38026   6.630  12.489  13.529  0.1897 -0.0802 -0.0953
34807W        W38027   0.864   5.478  15.691 -0.0255 -0.0021  0.0085
34808W        W38028  13.926   9.030   8.485 -0.1054  0.0456 -0.0546
34809W        W38029  18.201   5.706  13.607 -0.0415  0.0843 -0.3047
34810W        W38030   6.981  12.694  11.527  0.2301 -0.2213  0.0161
34811W        W38031   4.514   9.528  12.636 -0.0398 -0.1368  0.1899
34812W        W38032  15.444  14.260  14.545 -0.0720  0.0486  0.1357
34813W        W38033  11.372  13.898  13.661 -0.1300  0.0408  0.1535
34814W        W38034  11.584   5.139  10.518 -0.0110  0.0057  0.1119
34815W        W38035  15.745   7.114  15.145 -0.1183 -0.0134  0.0044
34816W        W38036   0.237   4.255   7.787 -0.0928 -0.0838 -0.0070
34817W        W38037  10.496  10.835  10.865 -0.0076 -0.1687  0.3500
34818W        W38038   4.134   4.902   0.898  0.2915  0.5746  0.0950
34819W        W38039   0.551  12.203  14.216 -0.2043 -0.0915 -0.0399
34820W        W38040  12.202   5.720   8.889 -0.3183 -0.1543 -0.2886
34821W        W38041  12.113   7.658  15.552 -0.1245  0.1140  0.1085
34822W        W38042  17.515   9.099  16.223 -0.3541  0.0172 -0.1720
34823W        W38043   8.525  14.194  15.948  0.3160  0.1284  0.1549
34824W        W38044  13.296   8.390  12.708 -0.1007  0.1871  0.0125
34825W        W38045  11.314   7.859  18.139  0.1723  0.0053 -0.2899
34826W        W38046  12.677   9.072  11.575  0.1326 -0.1588  0.2785
34827W        W38047  10.397  10.508  14.297  0.1809 -0.0039  0.3253
34828W        W38048   6.814   8.179  16.348  0.2260  0.0641  0.2337
34829W        W38049   9.228   9.981   9.679 -0.3406  0.0479 -0.0312
34830W        W38050  12.302   8.846  12.426 -0.0693 -0.0238  0.1186
34831W        W38051  17.065  14.972   5.281  0.0277  0.0595 -0.1930
34832W        W38052  11.022   4.143  10.175  0.1403  0.2016 -0.2391
34833W        W38053  16.237   1.467  11.714 -0.1791  0.0900 -0.0321
34834W        W38054  15.720  13.227   9.089 -0.3561 -0.2088 -0.3763
34835W        W38055  14.638  10.498   7.609  0.2191  0.1526  0.2419
34836W        W38056  12.231  13.820   9.406 -0.1464  0.0505  0.0807
34837W        W38057   2.355   0.874   2.405 -0.2341  0.0331  0.2173
34838W        W38058   8.034   6.244  11.743  0.2433  0.0157  0.0250
34839W        W38059  11.374   7.097  13.158 -0.1298 -0.2565 -0.2015
34840W        W38060   7.478   7.881  15.988 -0.2217 -0.0980 -0.4918
34841W        W38061  18.188  11.702  14.614  0.0522  0.1635 -0.0417
34842W        W38062  12.034  15.837   6.403 -0.0138  0.3456  0.0926
34843W        W38063   0.781  13.930  15.085  0.0415  0.2051 -0.1517
34844W        W38064  12.670   2.662  16.694  0.1180 -0.3894 -0.0003
34845W        W38065  14.298  17.481  14.286 -0.0828  0.3308  0.0712
34846W        W38066  12.784  13.350  14.679 -0.1356 -0.2282  0.0599
34847W        W38067   9.630  11.876   9.243  0.0922 -0.1282  0.0354
34848W        W38068  13.560   4.882   1.369  0.4513 -0.1469 -0.2438
34849W        W38069  10.099   3.321   1.016 -0.0021 -0.0558  0.1389
34850W        W38070  17.431  12.320  15.046 -0.1093  0.1026 -0.4322
34851W        W38071  16.958  13.163   8.287  0.1008  0.3427 -0.1288
34852W        W38072   6.943   9.747  12.252 -0.1143  0.1633 -0.2195
34853W        W38073  13.832  11.047  14.986 -0.0189 -0.0601  0.1159
34854W        W38074   8.250  18.239  17.464  0.0297 -0.1459 -0.0762
34855W        W38075  11.878  12.018  12.469 -0.0097 -0.0114 -0.0517
34856W        W38076  17.270   8.122  15.205 -0.1855 -0.0154  0.2359
34857W        W38077   5.126   7.478   7.565  0.1662 -0.1859 -0.1202
34858W        W38078   8.339   7.994  15.866  0.1051  0.2901 -0.0674
34859W        W38079   7.515   6.995  14.275 -0.1598 -0.3274 -0.1538
34860W        W38080  16.477   2.033  15.187 -0.1351 -0.1765 -0.2798
34861W        W38081  14.821   9.135  11.058  0.0306  0.1132 -0.3692
34862W        W38082   6.455   1.920   0.253 -0.0535  0.0276  0.2292
34863W        W38083  14.681   4.158  15.581  0.2849 -0.1429  0.1454
34864W        W38084   8.579   8.487  14.123  0.0956 -0.2727 -0.0364
34865W        W38085   0.996   9.737   2.981  0.2233  0.2766  0.0768
34866W        W38086  13.091  15.733   8.254  0.1571 -0.0063 -0.0977
34867W        W38087   6.236   9.067  13.824  0.4577  0.1265  0.0686
34868W        W38088  16.239   8.328   9.255  0.0072  0.0929 -0.2083
34869W        W38089   9.909   6.177   4.583  0.1937 -0.2108  0.0945
34870W        W38090   9.673   6.719   9.023  0.0726  0.0509 -0.2356
34871W        W38091   9.768   2.396  13.838  0.1464 -0.1174  0.0347
34872W        W38092   6.341   8.007  14.119  0.1515 -0.1885 -0.0474
34873W        W38093   0.985   5.075   9.172  0.1597 -0.1987  0.0223
34874W        W38094   3.286  16.253  16.808 -0.1987 -0.0817  0.0354
34875W        W38095  17.075   6.826  15.214 -0.1821  0.0111 -0.0979
34876W        W38096   1.277   2.302  11.558  0.1636  0.0105  0.2774
34877W        W38097   3.284  11.990   5.830 -0.1459 -0.2538 -0.0108
34878W        W38098   8.732  17.439   9.093 -0.0764  0.0463  0.2256
34879W        W38099  14.350   6.678   0.821  0.1822 -0.1808 -0.2669
34880W        W38100  11.833   3.905  10.112  0.0951  0.0432  0.2429
34881W        W38101  11.766  11.251   1.475 -0.1216 -0.3161  0.1784
34882W        W38102   7.019   7.319  15.700  0.1061  0.2111 -0.2296
34883W        W38103   6.171   7.928   9.011  0.1755  0.2460  0.1931
34884W        W38104  14.416   9.152   9.860  0.1966 -0.0977  0.0696
34885W        W38105  16.080  10.383   8.931  0.0417 -0.0307  0.0692
34886W        W38106  16.077   2.488  18.088  0.2193  0.0414  0.2627
34887W        W38107  10.955   7.892  14.558 -0.2697  0.0558  0.1501
34888W        W38108  15.059   8.580  16.776 -0.1078 -0.4372 -0.1515
34889W        W38109   5.011  13.105  13.127 -0.2276  0.0957  0.1419
34890W        W38110   7.215   3.330  11.618 -0.0123  0.1957 -0.1670
34891W        W38111  10.843   9.724  12.672 -0.1185  0.0154 -0.4592
34892W        W38112   6.986   7.823  16.856  0.0852  0.1008  0.1625
34893W        W38113  14.318   7.108   7.557  0.2074 -0.1014 -0.3495
34894W        W38114  12.988   5.815  12.146  0.1928  0.0570 -0.1086
34895W        W38115   8.858   9.103   1.066  0.0226 -0.0849  0.0539
34896W        W38116  10.114  10.316  10.483 -0.0559  0.1363  0.1353
34897W        W38117  10.892   4.604   2.838 -0.1031  0.1315 -0.1885
34898W        W38118  14.457  10.049  14.564 -0.2398  0.0113 -0.0412
34899W        W38119  15.780  11.529   9.807 -0.3124  0.3919  0.1251
34900W        W38120  12.540   7.601  10.938 -0.0614 -0.1094  0.2451
34901W        W38121  14.316  12.256  10.562 -0.0215  0.1453 -0.1747
34902W        W38122   8.336  12.988   6.737 -0.0272 -0.0077  0.1287
34903W        W38123  14.941   4.787   9.972  0.0062  0.0535 -0.0891
34904W        W38124   8.485   0.684  16.947 -0.2186  0.2395  0.2061
34905W        W38125  13.206   1.496  16.288  0.1302  0.0765  0.1857
34906W        W38126   2.713   7.541   6.152 -0.1620 -0.2895 -0.1539
34907W        W38127  10.068   7.047   6.721  0.0253  0.0035 -0.1454
34908W        W38128  11.776  12.025  17.697  0.1997 -0.0081 -0.1373
34909W        W38129   4.671  11.516  11.038 -0.1311 -0.0366 -0.4064
34910W        W38130  16.883   6.439   9.618 -0.1485  0.1090 -0.1492
34911W        W38131   8.831   6.050  16.523 -0.0448 -0.0708 -0.0524
34912W        W38132  10.044  10.399   1.804  0.0073  0.3894 -0.0189
34913W        W38133  17.871   0.399  12.375  0.0367 -0.0015 -0.1521
34914W        W38134  16.145  12.837  16.470 -0.1444  0.0643 -0.0624
34915W        W38135   2.248  14.168  14.082 -0.0008 -0.2955 -0.2215
34916W        W38136  12.331   4.806  13.536  0.2831  0.0254  0.1652
34917W        W38137  12.497   0.585   6.886 -0.1005 -0.0784 -0.0423
34918W        W38138  10.545   7.011  15.375  0.3584 -0.0954 -0.0945
34919W        W38139   6.376  15.318  13.627  0.2997  0.2695  0.1907
34920W        W38140  12.966   4.318   4.263 -0.5617 -0.1487  0.1938
34921W        W38141  14.236   3.619  16.551  0.1908  0.0976  0.1969
34922W        W38142  15.512  12.509   7.223 -0.4137  0.0890 -0.2543
34923W        W38143  13.001  13.378  16.387  0.1480  0.2263  0.0111
34924W        W38144  16.018   9.048   8.285  0.2142 -0.1280  0.0157
34925W        W38145  10.453   9.173  15.562  0.0704 -0.2470  0.0585
34926W        W38146   8.123  13.851  11.489 -0.1606  0.0011 -0.0565
34927W        W38147   6.284   8.703  13.546  0.0414  0.0187 -0.0390
34928W        W38148   0.334  10.275  11.554  0.1449 -0.4156  0.0906
34929W        W38149   9.551   7.740  16.232 -0.0965 -0.1844 -0.1054
34930W        W38150   0.466  13.802  10.764 -0.0585 -0.1586  0.3893
34931W        W38151  17.887   4.115   9.048 -0.0561 -0.4724 -0.1173
34932W        W38152  14.471  10.451  18.045  0.0836  0.2644  0.2205
34933W        W38153   8.390   2.415   4.036 -0.0704  0.3009 -0.3588
34934W        W38154  10.552   8.692  15.630  0.2746  0.0039  0.2172
34935W        W38155  10.498  14.936  10.904  0.3221  0.0731 -0.2690
34936W        W38156   9.448   9.627   0.264 -0.3352 -0.3495 -0.0134
34937W        W38157  11.934   5.520  14.042 -0.0671  0.1375 -0.3027
34938W        W38158  10.665   6.059   8.218 -0.0529 -0.0518  0.2701
34939W        W38159  16.219  10.778  10.541  0.0371 -0.3213 -0.0313
34940W        W38160  16.203  10.791  10.064 -0.2758  0.0866 -0.0930
34941W        W38161  13.882  13.417  14.899 -0.0994 -0.1935  0.0989
34942W        W38162   1.938   6.260  14.618  0.2096  0.0717  0.1386
34943W        W38163  12.123  11.066  11.902 -0.0921  0.1305 -0.0177
34944W        W38164  13.180  13.988  12.830 -0.1608  0.0043 -0.3645
34945W        W38165   0.739  12.735  15.106  0.1468 -0.0679 -0.0646
34946W        W38166  14.707   6.747  10.080  0.1408  0.1018  0.1315
34947W        W38167   9.559   5.963  17.733  0.3059 -0.2890  0.2135
34948W        W38168  11.813   0.591  12.874 -0.0459  0.3765  0.0191
34949W        W38169  11.284   8.092   1.165  0.0051  0.0721 -0.1528
34950W        W38170   5.864   6.908  12.223 -0.1864 -0.0902  0.0608
34951W        W38171  14.849   5.417  11.569 -0.1841 -0.1711 -0.0044
34952W        W38172   2.383   3.926  13.337 -0.1650  0.0240 -0.2778
34953W        W38173   8.168   4.873  13.822 -0.0667  0.1669  0.1233
34954W        W38174  17.782  13.988  11.579 -0.0258 -0.1745  0.0199
34955W        W38175   9.190   9.896  15.445  0.2563  0.3181 -0.2164
34956W        W38176  13.121   6.250  11.460  0.0423  0.1790  0.0900
34957W        W38177  13.381  12.620  12.688 -0.0820 -0.2345 -0.0557
34958W        W38178  17.891   8.422  14.901  0.2087  0.0111 -0.0060
34959W        W38179  12.672   9.686  13.148 -0.1561 -0.0208 -0.1487
34960W        W38180  12.595   8.784   9.650 -0.1990  0.2456 -0.1965
34961W        W38181  15.209  12.126  16.842 -0.1547  0.2145 -0.0306
34962W        W38182  15.989  12.569   8.443 -0.0016 -0.0876 -0.0502
34963W        W38183  15.732  10.768  13.397 -0.2293  0.1895  0.0493
34964W        W38184  13.395  10.284  14.985  0.0410 -0.1778 -0.0512
34965W        W38185  10.588   5.130  15.266 -0.0092  0.1286 -0.1417
34966W        W38186  14.801   7.367   1.138  0.1683  0.0095 -0.1267
34967W        W38187  14.530   8.552   9.197 -0.0886  0.1908  0.3248
34968W        W38188   5.206   1.170  17.165  0.0017  0.1031 -0.0033
34969W        W38189  13.355   3.971  12.315  0.2308  0.3626 -0.1715
34970W        W38190   8.694   9.783   0.693 -0.1209 -0.0150  0.1514
34971W        W38191  13.920   3.722   8.583 -0.4070 -0.0453 -0.0131
34972W        W38192   4.418   8.976  10.366 -0.1162 -0.3135 -0.0761
34973W        W38193   9.471   6.185   0.023  0.2709 -0.1627 -0.0166
34974W        W38194  16.647  14.404   4.020 -0.1503 -0.1155 -0.1299
34975W        W38195  17.883   8.992  12.473  0.1404  0.2453  0.0051
34976W        W38196  12.252   3.534  16.970  0.3809  0.0671 -0.2345
34977W        W38197  17.178  12.794  11.478  0.2035  0.1121 -0.2202
34978W        W38198  11.024   7.838  12.464  0.0326  0.0007 -0.0981
34979W        W38199  11.076  10.899  17.384 -0.2416 -0.0788  0.0064
34980W        W38200   8.593  11.216  13.767 -0.1151 -0.1699 -0.0723
34981W        W38201  13.922  13.274   9.941  0.2512 -0.1306  0.2431
34982W        W38202  11.702   7.833  13.636  0.0682  0.1967 -0.0752
34983W        W38203  12.056   8.899   9.601  0.1093 -0.0667  0.1869
34984W        W38204  17.343  10.330   8.376  0.0138 -0.0653  0.0089
34985W        W38205   9.411  11.707  15.505  0.0389 -0.2764 -0.2029
34986W        W38206  13.804  10.918   7.561  0.0202  0.0760  0.0843
34987W        W38207   7.644  14.770  10.811 -0.1114  0.1031  0.0624
34988W        W38208  11.990   0.458  15.698  0.0259  0.0498 -0.0144
34989W        W38209   8.885   3.646  12.220  0.2713  0.0504 -0.2055
34990W        W38210  15.915   7.386   1.227 -0.2375 -0.2108  0.0909
34991W        W38211   1.557   6.562  12.104  0.1164  0.0881 -0.2285
34992W        W38212  11.056   5.012   6.851  0.2726 -0.3713  0.0000
34993W        W38213   9.560  10.851   0.300  0.1685  0.2689  0.0138
34994W        W38214   8.457   7.390  12.301 -0.3747  0.0933  0.0414
34995W        W38215  11.704   4.412   9.464  0.1172 -0.0132  0.1390
34996W        W38216  13.115   7.066  14.419 -0.1014 -0.2182 -0.2409
34997W        W38217   2.167  10.946  16.183 -0.1883 -0.1750  0.3262
34998W        W38218  12.843  11.334   7.571 -0.1703 -0.1904 -0.1349
34999W        W38219  13.005   1.094   1.294 -0.0865 -0.0470  0.1319
35000W        W38220  12.427   5.085   4.049  0.1706  0.0477  0.0637
35001W        W38221  16.336   8.893  11.356 -0.0848  0.0620 -0.0420
35002W        W38222  12.211   5.916  10.953 -0.1010  0.0411  0.0106
35003W        W38223   8.698   4.896  11.612 -0.1320  0.1005  0.3744
35004W        W38224  14.292  12.690  12.491 -0.0637 -0.0851 -0.0562
35005W        W38225  11.171   7.103  14.681  0.0379 -0.0567 -0.0397
35006W        W38226  11.059  11.736  11.904  0.0486  0.2112  0.1017
35007W        W38227  12.517   4.098   4.544  0.1396  0.1900  0.1830
35008W        W38228  10.917  10.404  13.268  0.1638  0.0377  0.1295
35009W        W38229   0.242  13.638  14.231 -0.1178 -0.0592 -0.0757
35010W        W38230  12.353   6.484  11.913 -0.1396  0.1884  0.0063
35011W        W38231   6.079  13.746  16.861 -0.0937  0.0230 -0.3143
35012W        W38232  11.314   3.930  18.122 -0.0017  0.3478 -0.2971
35013W        W38233  13.451   9.173  12.360 -0.0645  0.1994  0.0510
35014W        W38234   6.901  12.624   5.609 -0.0880  0.0191 -0.0704
35015W        W38235  11.398  14.944  10.927 -0.1672 -0.1524 -0.1653
35016W        W38236  11.272  13.998  16.418  0.3757 -0.0329  0.0234
35017W        W38237  12.774   3.943   6.703  0.1376 -0.3660 -0.0212
35018W        W38238   4.905  17.716   2.334 -0.4117 -0.3408 -0.2390
35019W        W38239  10.306   6.089  10.593 -0.0481 -0.1398 -0.0948
35020W        W38240  13.638   2.206   5.871 -0.0214  0.0811 -0.2702
35021W        W38241  10.481   9.269   2.826  0.1206  0.1824  0.0285
35022W        W38242   0.716   7.457  12.005 -0.2138  0.2698 -0.1002
35023W        W38243   3.504  10.463   7.089 -0.0302  0.1625  0.0448
35024W        W38244  11.767   8.951   6.212  0.0564  0.3274 -0.0942
35025W        W38245  12.042  11.992  11.573 -0.1740 -0.0135 -0.0153
35026W        W38246  16.280   5.284  11.393 -0.1984  0.0116 -0.0668
35027W        W38247  12.098  13.125   8.484 -0.0339 -0.0604 -0.2581
35028W        W38248  13.594  11.823   3.615 -0.3207 -0.3715 -0.0519
35029W        W38249  15.628   4.783   6.473 -0.0929  0.3252  0.0665
35030W        W38250  11.752  11.211   5.430 -0.1649 -0.1112 -0.0347
35031W        W38251  16.144  12.199  13.659 -0.0993  0.0169 -0.1954
35032W        W38252  12.800   2.920  12.348 -0.1626  0.1782 -0.1444
35033W        W38253   0.288  11.890  12.545  0.4366 -0.4200 -0.2104
35034W        W38254  16.100  15.821   6.606  0.1270 -0.1912 -0.2220
35035W        W38255  16.674  11.637  11.969 -0.1229  0.0744 -0.1596
35036W        W38256  15.223   5.646  14.826 -0.0323  0.0210  0.0075
35037W        W38257  15.197  16.601  13.877 -0.0387  0.1133 -0.0252
35038W        W38258  16.406   4.352  13.943 -0.2042 -0.1796 -0.0571
35039W        W38259  14.054   8.138   7.471  0.2489 -0.1227 -0.1248
35040W        W38260   5.178  12.095  14.326  0.3757 -0.1067 -0.0775
35041W        W38261   5.959  12.671  15.749  0.1316  0.2354  0.4399
35042W        W38262  15.717  16.024  16.547 -0.1978 -0.0988 -0.0676
35043W        W38263   9.579   8.652  17.000  0.0656 -0.0087 -0.2497
35044W        W38264  14.819   9.800   9.832  0.1498 -0.0788 -0.0877
35045W        W38265  15.399  10.288  14.216 -0.0444 -0.2766  0.0583
35046W        W38266  10.586  10.273  15.492  0.0187  0.2317  0.1441
35047W        W38267   8.469  13.454  17.642 -0.2860  0.0590  0.2824
35048W        W38268   9.275   9.706  11.503  0.1671 -0.3608 -0.1794
35049W        W38269  10.887  10.085  17.529  0.0509  0.0919  0.1216
35050W        W38270  17.973   9.145  16.046 -0.1355  0.0365  0.2612
35051W        W38271   5.350  13.614   9.573 -0.1922 -0.0039 -0.0955
35052W        W38272  13.858   3.981  11.430  0.0908  0.1096  0.0011
35053W        W38273   6.120  11.483  15.998 -0.2846  0.2831 -0.0501
35054W        W38274   6.531  13.343  13.255  0.2134  0.3749 -0.1398
35055W        W38275  13.932   2.831   9.036 -0.0550 -0.1107  0.0312
35056W        W38276  14.158   3.238  16.983 -0.2343 -0.1186 -0.3245
35057W        W38277  10.842   8.523  14.792 -0.1246 -0.4321  0.0890
35058W        W38278  13.217  10.284  11.367  0.2277 -0.1693 -0.0958
35059W        W38279  13.864   3.194   8.687  0.2074 -0.3814 -0.1469
35060W        W38280  10.634  13.840  16.940  0.1967 -0.1082  0.1484
35061W        W38281  11.716   9.756  16.080 -0.0995  0.1609  0.0602
35062W        W38282  14.858   9.591  16.888 -0.3261  0.0360  0.1196
35063W        W38283  13.111   7.048   2.340 -0.1280  0.0111  0.3489
35064W        W38284  10.293  13.553  12.630  0.1731 -0.1620  0.3203
35065W        W38285  17.794  12.526  15.474  0.1133 -0.0217  0.0293
35066W        W38286  10.621   8.916  15.174  0.2513 -0.1981  0.0136
35067W        W38287  10.239   5.993  17.351 -0.0646  0.4495  0.1054
35068W        W38288   4.512  15.615   1.913 -0.0437 -0.2724 -0.2036
35069W        W38289  13.759  12.408   0.117 -0.1492  0.0432  0.1577
35070W        W38290  15.260   5.764  11.720  0.0058 -0.1224  0.4787
35071W        W38291  17.978   4.729   0.577  0.0188 -0.0165  0.4744
35072W        W38292   7.883   9.986   0.935  0.1060 -0.4681  0.4124
35073W        W38293  17.639   5.539  17.273  0.0074 -0.2271 -0.1624
35074W        W38294   5.086   4.167   3.976  0.1854 -0.1691  0.2507
35075W        W38295   7.866  15.049  17.325  0.0092 -0.2266 -0.1136
35076W        W38296   6.115  11.331  10.655  0.1412  0.1344  0.0227
35077W        W38297   8.837  16.389  14.637 -0.1317 -0.0059  0.0353
35078W        W38298   0.952  10.226   3.063 -0.0881 -0.1462 -0.0181
35079W        W38299   3.592   9.409  17.255  0.1266  0.0090  0.1266
35080W        W38300   0.684  13.184   3.686  0.0263 -0.0768  0.3212
35081W        W38301   2.103   7.647  15.633  0.0066 -0.5843 -0.1818
35082W        W38302  14.190  10.618   3.098  0.2181 -0.1740  0.1323
35083W        W38303   9.157   9.013  17.012 -0.0412  0.0270  0.0055
35084W        W38304  12.104  14.579  10.950  0.0955 -0.3060 -0.1393
35085W        W38305  10.175  15.344   0.502  0.1293 -0.1659 -0.2237
35086W        W38306  13.413  13.207  16.610  0.1925  0.1096  0.2176
35087W        W38307  10.444  11.821   0.395 -0.2294  0.3239 -0.0370
35088W        W38308  14.687   5.083   6.078  0.1220  0.0287 -0.3732
35089W        W38309   7.266   8.314   4.705  0.0436 -0.0456 -0.1228
35090W        W38310  14.089   7.386  18.097  0.1027  0.0360 -0.0254
35091W        W38311   5.167   5.240   5.118 -0.0397 -0.0956  0.1195
35092W        W38312   9.036   7.328   6.766  0.4530 -0.2369  0.4445
35093W        W38313  14.890   7.582  14.258 -0.2375  0.1541 -0.0248
35094W        W38314   9.917  10.759  14.066  0.1267  0.1193 -0.0640
35095W        W38315  11.419  17.558   1.963  0.1434 -0.2323 -0.0378
35096W        W38316  11.971   8.873  16.109  0.0798 -0.2581  0.1985
35097W        W38317   9.752  10.116   5.778  0.0809 -0.1317 -0.1118
35098W        W38318  18.047  12.298  17.772  0.2330 -0.2359  0.0650
35099W        W38319  17.676   4.867   1.112 -0.4685  0.1218  0.3392
35100W        W38320  17.906   8.025  10.688 -0.0654  0.2236  0.2731
35101W        W38321  18.190  14.421  16.668 -0.3773  0.1110 -0.1281
35102W        W38322  10.042  11.148  13.679 -0.2883 -0.1108 -0.0218
35103W        W38323  15.251  15.152  12.785 -0.1039  0.2897  0.3531
35104W        W38324  13.283  10.220   1.690  0.2322 -0.1497 -0.1654
35105W        W38325  12.464  11.847  16.640 -0.1406  0.1264  0.3297
35106W        W38326   8.292  10.235  16.857  0.0830  0.1661  0.2118
35107W        W38327  14.564  12.818   1.217 -0.1680  0.1086 -0.1981
35108W        W38328  16.711  12.069  16.524  0.2479 -0.0893  0.1338
35109W        W38329   5.495   8.882  17.360  0.0048  0.0121  0.1257
35110W        W38330  14.134  15.399   9.134 -0.1953  0.2239 -0.2046
35111W        W38331  13.359  10.796  17.139  0.0368  0.1110 -0.1112
35112W        W38332   0.001  16.320   3.768 -0.0021  0.2269  0.1633
35113W        W38333  10.405  14.629  17.769 -0.0551  0.1088  0.2092
35114W        W38334  17.272   9.684  14.493 -0.0133 -0.0848 -0.3466
35115W        W38335  13.044  15.643  11.715  0.2980  0.1943 -0.1089
35116W        W38336  14.303   8.432   1.694 -0.3468 -0.0244 -0.2362
35117W        W38337  11.701  13.624   0.428  0.0864  0.1043  0.0597
35118W        W38338   5.475  11.064   2.054 -0.1283  0.0198 -0.1182
35119W        W38339  11.488   4.323  12.564  0.0689  0.1160  0.1012
35120W        W38340   5.610   7.451  17.165 -0.0894 -0.3186 -0.2961
35121W        W38341  15.956  11.177  15.845 -0.0159  0.0160  0.1393
35122W        W38342  12.852   8.412   5.748  0.0682 -0.0800 -0.0347
35123W        W38343  13.723  13.793  14.621 -0.0159  0.1815  0.4771
35124W        W38344   5.746  12.810  13.598 -0.0249 -0.1305 -0.1560
35125W        W38345  15.213   8.279  11.174 -0.2409 -0.2626  0.1166
35126W        W38346   1.819  11.790   1.810  0.3384  0.3037  0.1477
35127W        W38347   4.463  11.357   3.147 -0.1554  0.0155 -0.2585
35128W        W38348   5.889  13.462  13.344  0.0697 -0.1618  0.2079
35129W        W38349   8.115  10.270   4.048  0.0688 -0.2049 -0.0459
35130W        W38350  13.964   8.637  17.411  0.1028  0.2376 -0.1750
35131W        W38351  14.874  10.218  14.166 -0.0345  0.1741  0.0715
35132W        W38352  16.022  15.664   7.489  0.1004 -0.1343 -0.0955
35133W        W38353  14.822   6.313   0.121 -0.5371 -0.0300  0.0144
35134W        W38354  11.346   7.864  10.569 -0.1856  0.2904  0.0829
35135W        W38355   8.766  12.314  13.006  0.1248 -0.0074 -0.0292
35136W        W38356   5.850  13.453  14.273 -0.0200  0.1812  0.0909
35137W        W38357  15.459   6.014   1.852 -0.0447 -0.0041 -0.1419
35138W        W38358   9.301   6.792  16.659 -0.1141  0.0054  0.1381
35139W        W38359  13.539   4.408  16.676 -0.0070 -0.1487  0.0023
35140W        W38360  14.986   7.749   0.868 -0.3244 -0.0186  0.1474
35141W        W38361  16.788  16.216  18.049  0.2109 -0.0664 -0.1582
35142W        W38362  14.113   9.412  15.783  0.0795  0.3084  0.0442
35143W        W38363   3.936   9.791  17.262  0.0642 -0.0823  0.1300
35144W        W38364   6.935   4.998   0.201 -0.2576  0.3450  0.3542
35145W        W38365  16.794  10.257  15.864 -0.0408  0.2665 -0.1654
35146W        W38366  12.757  14.380   1.266 -0.0126 -0.0399 -0.1881
35147W        W38367  14.676   9.229   5.208 -0.1198  0.0043 -0.0566
35148W        W38368  16.088   9.798   1.615  0.1144  0.0282 -0.4231
35149W        W38369  10.815   5.053  12.320  0.0382 -0.0614  0.3454
35150W        W38370  15.176  15.016  14.686  0.0586  0.0626  0.0054
35151W        W38371   9.083   1.617  14.560  0.1613 -0.1436 -0.0208
35152W        W38372  16.870  14.552  12.950  0.0994  0.0156 -0.1512
35153W        W38373  12.906   8.550   3.087  0.0885 -0.5291 -0.1647
35154W        W38374  10.974   4.465  17.278  0.0902 -0.0450  0.0438
35155W        W38375   8.518   6.112  13.151  0.3621  0.1483  0.0539
35156W        W38376  12.250   1.012  10.978 -0.3642  0.2864 -0.1105
35157W        W38377  16.326  13.734   0.610 -0.0117 -0.1508 -0.2427
35158W        W38378   8.761   5.226   4.461 -0.0431  0.3296  0.1507
35159W        W38379  16.828  11.007  13.148 -0.1922 -0.0152  0.0257
35160W        W38380  15.101   6.254  11.783  0.0342  0.1125  0.2350
35161W        W38381   8.969   9.798  13.967  0.3183 -0.1081 -0.1548
35162W        W38382   8.553  10.128  12.118 -0.1661 -0.1649  0.1191
35163W        W38383  15.359  13.507  12.572  0.0758 -0.2107 -0.0767
35164W        W38384  12.003  11.375   2.310 -0.1852  0.0208 -0.0584
35165W        W38385  16.053   8.700  11.929 -0.1642 -0.1237  0.2911
35166W        W38386   7.006   0.782  13.378  0.0703 -0.0006 -0.0277
35167W        W38387  12.956   8.077   1.925 -0.1879  0.1178  0.1424
35168W        W38388   0.454  11.882  15.967 -0.1645  0.0607  0.0064
35169W        W38389  11.340   9.544  15.253 -0.0706  0.1172 -0.1179
35170W        W38390   7.166  11.940   0.319  0.0323 -0.0661  0.1920
35171W        W38391   3.878   6.828   5.397  0.3528 -0.2843  0.1628
35172W        W38392   0.285   9.683  16.029  0.0568  0.1168 -0.4282
35173W        W38393  16.162   9.362  14.726  0.2024 -0.1358 -0.0152
35174W        W38394   2.172  14.485   7.607  0.2246 -0.0171  0.0884
35175W        W38395  15.924  12.637  15.116 -0.0215 -0.2608  0.1035
35176W        W38396  16.344   8.992  15.220 -0.0507 -0.2722  0.0970
35177W        W38397  11.847  15.902   5.063  0.1379 -0.1304  0.0760
35178W        W38398   9.406  12.411  14.884 -0.2838  0.0275 -0.0266
35179W        W38399  10.552   4.213  16.167 -0.0952  0.2981  0.1029
35180W        W38400  14.140   4.908  14.590 -0.4226 -0.4811 -0.0593
35181W        W38401  12.878   2.218  17.982 -0.0323 -0.0800  0.3402
35182W        W38402   4.519   7.744  15.645 -0.0551 -0.3276 -0.2613
35183W        W38403  14.587   8.211  16.624  0.0294 -0.0197 -0.2268
35184W        W38404  16.599   2.626  11.226  0.2667 -0.1427  0.2033
35185W        W38405   1.425  10.080  15.319 -0.4341  0.1534 -0.2320
35186W        W38406   8.932   4.582  11.287 -0.2178 -0.0109  0.0156
35187W        W38407  15.181  12.630   5.486  0.1319 -0.1165  0.0184
35188W        W38408  12.806   9.529   2.288 -0.0806  0.2031  0.1431
35189W        W38409   9.527   7.528   1.531 -0.3977 -0.1927 -0.0792
35190W        W38410   7.264  10.990  16.305  0.2212  0.1022 -0.1643
35191W        W38411   4.006   1.536   3.630 -0.0732 -0.0402  0.0173
35192W        W38412   9.235   7.984   7.427 -0.0792  0.1367  0.1253
35193W        W38413   0.859  12.404   2.507 -0.0046 -0.2857 -0.1527
35194W        W38414   1.391   4.199   0.334 -0.3161 -0.1078  0.2839
35195W        W38415  15.246  15.917  10.316  0.2850 -0.2010 -0.3516
35196W        W38416  16.481   4.624   9.755  0.3171  0.0602  0.0335
35197W        W38417  14.483   6.835   5.994  0.0866  0.0809  0.2178
35198W        W38418  15.959   4.433   6.634 -0.0040  0.5435  0.0497
35199W        W38419  15.518   7.240  17.761  0.1999  0.0680 -0.0468
35200W        W38420   8.774   2.803   7.645  0.0252 -0.1055 -0.0010
35201W        W38421  10.612  13.449  15.227  0.1564 -0.0081 -0.0786
35202W        W38422   0.220  11.402  17.090 -0.2364  0.2646  0.0208
35203W        W38423   9.591  11.376   5.944  0.1876  0.2896 -0.1592
35204W        W38424  16.040   8.577   5.541 -0.0743  0.0746  0.1602
35205W        W38425   6.447  10.006  15.467 -0.0760 -0.1275 -0.0930
35206W        W38426  11.501   9.586   0.721  0.0677 -0.1551 -0.2529
35207W        W38427  13.279   8.460  16.717 -0.0008  0.1284 -0.0044
35208W        W38428  11.876   8.273  15.615 -0.3470  0.1574  0.0030
35209W        W38429  15.720  12.647   9.580 -0.0780  0.2806 -0.1577
35210W        W38430   8.673  11.108  10.536 -0.1324 -0.1624 -0.0999
35211W        W38431   1.004   8.111  16.027  0.1569 -0.0098 -0.3259
35212W        W38432  13.618  10.183   1.232  0.0591 -0.1307  0.0665
35213W        W38433  14.580   6.401  16.964 -0.1501 -0.0201 -0.0216
35214W        W38434  11.605  10.994  14.285 -0.0165  0.1964  0.1800
35215W        W38435  13.712  10.072  12.081 -0.0200  0.0330 -0.0048
35216W        W38436   9.321   8.896   1.785  0.0245 -0.0879 -0.1871
35217W        W38437  11.710  16.536   7.155  0.1055  0.1337  0.0360
35218W        W38438  13.003   8.177   0.131 -0.1518 -0.1035 -0.0039
35219W        W38439   2.476   8.746  14.233 -0.1103 -0.0872  0.1819
35220W        W38440   6.985   6.526   9.391 -0.1562 -0.1916  0.0594
35221W        W38441   6.071  10.957  17.677 -0.0094  0.0424 -0.1559
35222W        W38442  14.106  12.030  14.841  0.1099 -0.2980 -0.0917
35223W        W38443  16.792  10.144   1.942  0.2634 -0.1617  0.2507
35224W        W38444   7.036  12.056   8.939  0.0653  0.0944 -0.0678
35225W        W38445  11.843  10.681   4.581 -0.1532  0.5137  0.1664
35226W        W38446  11.150   6.123  17.835  0.0743 -0.0009  0.0711
35227W        W38447  14.732   5.251  17.760 -0.0387  0.0758  0.0155
35228W        W38448  13.138   9.386   1.138  0.1648 -0.1400  0.0499
35229W        W38449  16.346   6.417  10.052  0.2575  0.1552 -0.1215
35230W        W38450  15.479   7.275  14.652 -0.0603 -0.1224  0.1883
35231W        W38451  11.073   4.581  13.949  0.1643 -0.1511  0.0410
35232W        W38452  12.645   6.041  14.699 -0.0094 -0.1111 -0.0612
35233W        W38453  10.903   8.600  13.409 -0.0751 -0.0533  0.0588
35234W        W38454  16.713   3.240  16.268 -0.0141  0.4078  0.0522
35235W        W38455  12.605   6.876   5.352 -0.0341 -0.0050  0.0595
35236W        W38456  14.086   8.518   3.768  0.2242 -0.0713 -0.2163
35237W        W38457   2.399   9.491   0.701 -0.1501  0.1315  0.1394
35238W        W38458   9.951   9.506  13.124 -0.0223 -0.3031 -0.1131
35239W        W38459   8.307  12.006  14.773  0.1708  0.2424 -0.0322
35240W        W38460   0.612  14.690   7.876 -0.0856  0.0363  0.0614
35241W        W38461  15.492   8.617  12.770 -0.3917  0.1594 -0.0794
35242W        W38462   6.224  15.820  10.273 -0.0610 -0.1234  0.1595
35243W        W38463  16.581   4.384  17.033  0.0988  0.1032 -0.1981
35244W        W38464  17.501   4.764  11.693  0.4854 -0.1020  0.1131
35245W        W38465  11.420   4.945   3.039  0.1412  0.1472  0.3252
35246W        W38466  15.742  11.953  16.563 -0.1303 -0.1048  0.1301
35247W        W38467   7.105   5.860  14.448  0.0155  0.1415  0.0477
35248W        W38468  16.941   1.382   7.613  0.0693 -0.0779  0.0933
35249W        W38469  14.971   7.865   7.405 -0.1371 -0.0790 -0.2901
35250W        W38470  14.271  10.194  15.281  0.2158  0.3397  0.2413
35251W        W38471  14.623  14.223   0.591  0.1190 -0.0960 -0.4014
35252W        W38472   6.038   9.882   0.497 -0.1875  0.0337  0.2146
35253W        W38473  15.555   6.627   1.644 -0.2323 -0.2206  0.0906
35254W        W38474   8.903   4.500   3.853  0.1574  0.1803 -0.1284
35255W        W38475  15.200   0.630  14.804 -0.3789 -0.0913  0.3573
35256W        W38476  14.469  12.129  14.219  0.1199 -0.0156 -0.2398
35257W        W38477  11.310   4.521   0.446  0.3048 -0.3262 -0.0818
35258W        W38478   9.677   5.957  16.636 -0.3914  0.0512 -0.0409
35259W        W38479   1.870  10.566   2.859  0.1731 -0.1513 -0.1349
35260W        W38480   0.704   7.857  16.914 -0.3517  0.0576  0.1104
35261W        W38481   9.124  10.286  10.109 -0.0999 -0.0491  0.1571
35262W        W38482   9.966   0.940   9.617 -0.3763 -0.3382  0.3008
35263W        W38483   1.841   8.933  14.360 -0.1046  0.1873  0.1167
35264W        W38484  11.824  13.064  10.243  0.5894 -0.0528 -0.1469
35265W        W38485  17.104   6.668   4.743 -0.0346 -0.0453  0.0152
35266W        W38486   0.887   7.349   0.891  0.0433  0.0632  0.2395
35267W        W38487  12.468   9.495   6.999  0.1419 -0.3015  0.0429
35268W        W38488   1.306   7.732   9.926 -0.0369  0.1865  0.0099
35269W        W38489  11.915   8.273  13.297  0.1916 -0.1193  0.1125
35270W        W38490   5.232  15.993  17.194  0.2411 -0.1315 -0.1038
35271W        W38491  10.900  17.890  17.134  0.1660  0.2682  0.5434
35272W        W38492   9.411   3.847   3.359 -0.1038  0.0223 -0.1813
35273W        W38493  11.121   2.538   0.884  0.1688 -0.0575  0.1292
35274W        W38494   7.004   6.890  14.199  0.2695 -0.0406 -0.0669
35275W        W38495  16.059   7.365   9.820 -0.1065 -0.0319 -0.0957
35276W        W38496  12.459  10.886  15.468  0.2956  0.3060  0.1592
35277W        W38497  10.810   7.066  16.664  0.1167  0.0997 -0.0485
35278W        W38498   1.891   7.825   2.940  0.0791 -0.0349  0.0892
35279W        W38499  13.349  10.580   0.857  0.0165 -0.0824  0.2405
35280W        W38500   2.769   8.436   0.407  0.2954 -0.0574  0.0914
35281W        W38501  14.478  14.446  18.256  0.2671 -0.0129  0.1712
35282W        W38502  15.166  11.373   4.886 -0.0437 -0.1936 -0.1000
35283W        W38503   2.810   6.943   0.736 -0.2016  0.1602  0.1199
35284W        W38504  11.272  10.416  17.221  0.0829  0.0699  0.0327
35285W        W38505   6.577   8.126  15.484  0.0067 -0.0230 -0.1819
35286W        W38506  12.135  14.292   2.596 -0.0712  0.0371 -0.0755
35287W        W38507  12.101  10.667  14.862 -0.1141 -0.1406  0.4171
35288W        W38508  13.684  10.685   2.626 -0.2192  0.4092 -0.2239
35289W        W38509   0.278  15.221  14.743  0.0992  0.3027  0.2785
35290W        W38510   9.418   2.977   4.634  0.0528 -0.0030  0.1448
35291W        W38511  10.325   5.261   2.302  0.1368  0.0350  0.2251
35292W        W38512  13.423  11.704  16.771 -0.1465  0.0379  0.0730
35293W        W38513  15.628   9.493  10.915  0.3175  0.2249  0.0323
35294W        W38514  12.337   8.094  15.809 -0.3740  0.1315 -0.0538
35295W        W38515  12.663   7.304  17.880  0.0572 -0.2930 -0.0924
35296W        W38516   9.596   2.395   0.191 -0.1576  0.1686 -0.2152
35297W        W38517  12.916   4.972   4.886  0.3593 -0.1005 -0.1760
35298W        W38518  12.293   4.872  18.006  0.0935  0.1843  0.2642
35299W        W38519  17.864   9.090   0.918  0.1938 -0.2002 -0.0109
35300W        W38520  12.555  13.468   0.345 -0.0357 -0.1168 -0.1620
35301W        W38521  11.563   2.315   4.408  0.3492  0.0837 -0.1554
35302W        W38522   6.174   9.396   0.721 -0.0842  0.0283  0.2142
35303W        W38523  12.863   5.439   1.664  0.0354  0.5477 -0.2544
35304W        W38524  11.317   4.684  15.930 -0.1758  0.0359  0.1488
35305W        W38525   6.172   7.493  17.310  0.0431 -0.1714  0.4848
35306W        W38526   9.383   9.787  14.299 -0.3178  0.2747 -0.0324
35307W        W38527   7.740  10.087   2.334  0.1660 -0.0112 -0.1441
35308W        W38528  10.686  14.839   1.110 -0.0020  0.1540  0.0059
35309W        W38529   7.336   4.061   0.508  0.2144 -0.0770 -0.1131
35310W        W38530  11.325   9.057  13.055 -0.2015 -0.0847 -0.0901
35311W        W38531  16.772  17.243  16.826 -0.0937  0.0330 -0.0360
35312W        W38532  16.799   6.955  16.914  0.1549 -0.0857  0.2136
35313W        W38533   5.673   3.155  16.951  0.2618  0.2977 -0.0977
35314W        W38534   9.624   4.184   7.268 -0.1245  0.2045  0.0532
35315W        W38535  17.023  12.304  14.030 -0.0551 -0.3999  0.2744
35316W        W38536  10.375   4.930  18.216  0.0803  0.4291 -0.1627
35317W        W38537   5.397  10.825  10.139 -0.1470 -0.1584 -0.1324
35318W        W38538   0.089  10.826  15.644  0.0063 -0.0448 -0.0531
35319W        W38539  13.940  10.883  15.991  0.0395 -0.4135  0.1244
35320W        W38540  13.460   9.622   0.158  0.0528 -0.1971 -0.2495
35321W        W38541  12.789  10.000  14.180 -0.1020 -0.2287 -0.1884
35322W        W38542  13.431   0.970  15.381 -0.1584 -0.1046 -0.0637
35323W        W38543  10.595  11.527  18.198 -0.2268  0.0647 -0.0337
35324W        W38544   7.969  12.101  14.386 -0.0063 -0.0277  0.1833
35325W        W38545  12.095   6.070   8.473 -0.0503 -0.0247  0.0032
35326W        W38546  14.728   9.824  13.661  0.2181  0.2012 -0.2067
35327W        W38547  10.877   7.959   3.083  0.0798  0.0911 -0.1207
35328W        W38548  11.468  12.422  17.779 -0.1612 -0.3187  0.0709
35329W        W38549  11.125   4.952  12.720 -0.1366 -0.0934  0.0835
35330W        W38550  14.140   8.030   4.450 -0.1943  0.2518 -0.1399
35331W        W38551  16.474  10.910  17.596 -0.0053  0.0038 -0.1498
35332W        W38552  11.147  14.771  12.427 -0.2849  0.0134 -0.3013
35333W        W38553   7.844   1.379  15.115  0.0270  0.1512  0.0847
35334W        W38554  13.265  14.718  14.054  0.1383 -0.0202  0.2755
35335W        W38555  14.922   1.181   0.019  0.0181  0.3012 -0.0293
35336W        W38556   8.751   0.896   5.156  0.1256  0.0719  0.0827
35337W        W38557  10.472   6.338  15.465 -0.2547 -0.1306  0.0803
35338W        W38558  10.263   9.575  16.926 -0.0344 -0.5123  0.4302
35339W        W38559  11.676  10.734   2.737  0.1759 -0.2787  0.3439
35340W        W38560   8.186   6.329  16.719  0.2853 -0.0965 -0.0681
35341W        W38561   7.147  11.505  14.858  0.0314  0.1386 -0.1978
35342W        W38562  13.308  13.476   1.767  0.1228  0.0864 -0.3786
35343W        W38563  17.963   5.105   1.513  0.1458 -0.1838  0.2578
35344W        W38564   8.763   1.419   0.268  0.0861  0.3002  0.3575
35345W        W38565   3.119  14.959   8.102 -0.0911 -0.2400 -0.0010
35346W        W38566  15.597  12.029   3.404  0.3207  0.0090 -0.2849
35347W        W38567   3.262   4.472  15.734 -0.0076 -0.1325  0.1631
35348W        W38568  17.583   8.811   2.251  0.0335 -0.1033  0.0699
35349W        W38569   7.047  12.629   2.098 -0.0059  0.0374 -0.0248
35350W        W38570  18.239   7.278  13.041  0.0997 -0.0200  0.0223
35351W        W38571  14.022  12.525  16.388 -0.1651 -0.2077 -0.1828
35352W        W38572   9.976   9.991  17.032 -0.0558 -0.1253  0.1067
35353W        W38573  13.031  15.162   1.668  0.1746 -0.1090 -0.1866
35354W        W38574   6.019  12.262  15.451 -0.0318 -0.0269 -0.1905
35355W        W38575   8.757  10.075   3.885  0.1350 -0.2756 -0.0027
35356W        W38576  12.123   7.520   1.077  0.1341 -0.0852 -0.0209
35357W        W38577   8.050   9.854  17.154 -0.5259 -0.1331  0.0271
35358W        W38578   8.087   7.334  11.143 -0.0059 -0.3518  0.0393
35359W        W38579   7.374  17.717  13.523 -0.0322 -0.2594 -0.1868
35360W        W38580  17.693  12.432   6.080 -0.1097 -0.0561  0.2097
35361W        W38581  17.641  15.001   1.008  0.1085 -0.2060 -0.0642
35362W        W38582  11.972   9.481   4.474 -0.2661  0.1018  0.0234
35363W        W38583   7.823   3.819  17.040 -0.1085  0.2958  0.0350
35364W        W38584  13.657  10.305   7.434 -0.2126 -0.0502  0.0647
35365W        W38585   4.808   9.085   4.327 -0.0499 -0.0766 -0.2738
35366W        W38586   1.736   0.123   4.460  0.1816 -0.0734  0.2972
35367W        W38587  11.710   9.918  12.677 -0.0556  0.0886 -0.4271
35368W        W38588  15.539  11.394  11.694 -0.0625 -0.3263 -0.1962
35369W        W38589   6.028   5.779   0.949  0.0111 -0.1439 -0.2757
35370W        W38590  11.261  15.291   8.544 -0.0444 -0.0506 -0.3989
35371W        W38591   2.228   4.781  15.268 -0.2392  0.0276 -0.2807
35372W        W38592  14.725   9.130  17.257 -0.0899 -0.0173  0.0374
35373W        W38593  15.224   9.885  18.192  0.3426  0.1019  0.1110
35374W        W38594  12.749  12.366   1.024  0.2547 -0.3563 -0.1762
35375W        W38595  16.970   6.562  11.468 -0.0743  0.0470 -0.0523
35376W        W38596  15.201   7.327  16.742  0.1839  0.2462 -0.2765
35377W        W38597   6.707  10.585  10.782 -0.2672  0.3188 -0.0848
35378W        W38598   8.254   8.370  14.507 -0.1450  0.1590  0.2465
35379W        W38599   8.515  16.601   2.484 -0.0916 -0.0583  0.0280
35380W        W38600  14.787  12.010  17.117 -0.1337 -0.0176 -0.1055
35381W        W38601  11.123  14.841  13.534  0.2362  0.3025 -0.2439
35382W        W38602  12.856  11.253  15.494  0.1269  0.0070  0.0290
35383W        W38603  16.833   6.743  14.608  0.1294  0.4627 -0.1086
35384W        W38604  12.814   4.988  13.271 -0.0840  0.1862 -0.1933
35385W        W38605   0.912  11.637  16.626  0.0131  0.2641 -0.1206
35386W        W38606  12.054   8.972   4.372 -0.0550 -0.1102 -0.1183
35387W        W38607  14.206  13.634   0.449 -0.0777  0.0926  0.0773
35388W        W38608   6.377   7.274  12.426  0.0050 -0.0044  0.2370
35389W        W38609  11.949   8.613   2.956 -0.3847  0.0424  0.0178
35390W        W38610  11.269   6.334  12.742  0.1273 -0.1801  0.0336
35391W        W38611  10.960  15.208  17.186 -0.1864  0.0437  0.2939
35392W        W38612  10.520  15.249   9.010 -0.3533  0.1997 -0.2275
35393W        W38613  17.662   8.964   1.778  0.0675  0.1663 -0.0287
35394W        W38614   8.191  15.506  16.948 -0.2085 -0.1473  0.0793
35395W        W38615  11.211  12.251   3.915 -0.0646 -0.2707 -0.0366
35396W        W38616   9.190  13.800  11.384  0.1022  0.0158 -0.1304
35397W        W38617   2.474   9.399  13.824 -0.0415  0.0107 -0.0916
35398W        W38618   7.411   5.949   5.835 -0.1757 -0.1345 -0.0537
35399W        W38619  13.738   6.464  16.483 -0.1846  0.5163  0.0778
35400W        W38620  13.761   9.191  12.742 -0.0171  0.0566  0.0010
35401W        W38621  16.425   8.566  14.968  0.0469  0.3243  0.3544
35402W        W38622   7.954  11.763   9.893  0.0495  0.1054 -0.0172
35403W        W38623  11.513   8.075  17.113  0.1579  0.2995 -0.1544
35404W        W38624  11.443   7.234   2.565 -0.2290 -0.2470 -0.2935
35405W        W38625  12.433  13.017   9.978  0.3650  0.0955 -0.0921
35406W        W38626  15.020   8.877   2.851  0.1210  0.0852  0.0830
35407W        W38627  15.901  12.792   1.014 -0.0070 -0.1628 -0.1127
35408W        W38628   9.133   8.527  12.835  0.2187 -0.1692  0.1419
35409W        W38629   1.959  11.268   4.513 -0.1327  0.1791 -0.1720
35410W        W38630  16.944  12.470  13.342 -0.2843  0.1477 -0.2564
35411W        W38631   9.567  11.799  14.968  0.1246 -0.1492  0.0172
35412W        W38632  13.680   6.191  12.185 -0.0183  0.0515 -0.0651
35413W        W38633   8.745  15.469   6.481 -0.2234  0.1025 -0.1325
35414W        W38634  13.762   3.314   0.355  0.0266  0.0761 -0.2207
35415W        W38635   9.649  13.659   2.154 -0.0470  0.1119  0.0075
35416W        W38636  15.099  13.210   7.535  0.0624  0.1280 -0.2798
35417W        W38637   0.851  11.601   2.227 -0.0997 -0.1835 -0.0816
35418W        W38638  13.016   5.863   1.380 -0.1275  0.1890 -0.0828
35419W        W38639  11.446   5.461   9.561  0.0550  0.3517 -0.1151
35420W        W38640   9.159   9.461  12.404  0.3894 -0.1115 -0.0833
35421W        W38641  10.998  15.943  16.163  0.3071 -0.4173  0.1085
35422W        W38642   8.460   6.329   7.900  0.2574  0.0805 -0.1949
35423W        W38643  10.451   5.807   3.980 -0.0522 -0.1533  0.1635
35424W        W38644  13.530  10.657  15.885  0.0116 -0.0064 -0.2061
35425W        W38645   8.508  11.960  17.351  0.1642 -0.0809 -0.3053
35426W        W38646   9.040  12.488   0.826 -0.1682 -0.1214  0.1286
35427W        W38647  13.071   5.722  12.768 -0.0615 -0.0871 -0.0042
35428W        W38648  13.954   6.037  15.259 -0.1254  0.2459  0.0525
35429W        W38649  12.503  10.093   0.543 -0.0260  0.0603  0.0318
35430W        W38650  13.697  10.021  12.617  0.2354 -0.0363 -0.3415
35431W        W38651  10.120   8.609   0.009 -0.0426  0.0759  0.0367
35432W        W38652  13.314   0.675   3.899  0.1643 -0.1712 -0.0261
35433W        W38653  11.270  13.703  11.490 -0.0771 -0.0087 -0.1592
35434W        W38654   4.729  11.751  16.533  0.1142 -0.3319  0.2912
35435W        W38655  13.276  10.343  16.302 -0.0380 -0.0943  0.1581
35436W        W38656  16.261   9.830  14.558  0.1895 -0.1673  0.1365
35437W        W38657   9.807   8.117  15.383 -0.0488 -0.0538 -0.1975
35438W        W38658  17.568  10.210   9.614 -0.0852 -0.1947  0.0922
35439W        W38659  13.871   9.760   9.360 -0.0261  0.1762 -0.0436
35440W        W38660  14.439   7.008   7.054  0.0957  0.1421 -0.0758
35441W        W38661   6.199   9.622  10.353 -0.0587 -0.2894 -0.2281
35442W        W38662  15.440  11.123  13.118 -0.1594  0.1409  0.2120
35443W        W38663   8.767  14.841   4.916  0.1562 -0.1604  0.0230
35444W        W38664  11.685   5.346   3.310 -0.0467  0.2570 -0.2165
35445W        W38665  10.736   7.246   1.057  0.1916  0.0846 -0.1787
35446W        W38666  11.918  13.328  13.343 -0.1779  0.1425  0.1386
35447W        W38667  14.414  12.512   0.783  0.0142  0.0704  0.0758
35448W        W38668  13.127   5.825   3.471 -0.0445  0.2003  0.0403
35449W        W38669  15.342  11.044   7.212 -0.0402 -0.3918  0.2259
35450W        W38670  10.809  10.534  10.147  0.3001 -0.1218  0.2618
35451W        W38671   8.219   4.669  18.191 -0.0276  0.2437  0.0120
35452W        W38672  11.421   8.971  10.308  0.0450 -0.0832 -0.1250
35453W        W38673  10.608   9.789  17.836  0.1382  0.2092 -0.0884
35454W        W38674   5.083   4.198  16.192  0.3621 -0.1186  0.1041
35455W        W38675   9.916   7.114  15.433 -0.0871  0.0932  0.1477
35456W        W38676   5.845   3.531  16.129  0.1862 -0.1813 -0.1644
35457W        W38677   6.543   9.435  13.354 -0.3341  0.2480  0.1406
35458W        W38678  14.396   9.268  16.276  0.2171  0.0958 -0.0879
35459W        W38679  15.522  13.357   7.318 -0.2444 -0.1744 -0.2093
35460W        W38680   6.336   0.806   4.244  0.0903  0.2796 -0.0049
35461W        W38681   9.528  10.008  17.226 -0.0784  0.0234  0.2236
35462W        W38682  10.034   3.903   2.410  0.1008  0.0092 -0.0183
35463W        W38683   8.232  12.926  12.741 -0.0053  0.4724  0.0243
35464W        W38684   9.666   3.530  17.547  0.1606  0.0898  0.0768
35465W        W38685  10.389  14.217  14.887  0.0141  0.1975 -0.1391
35466W        W38686   9.704   9.777  15.485  0.2366  0.2160  0.0165
35467W        W38687   4.904  17.552   7.140 -0.0419  0.2415 -0.1972
35468W        W38688  12.682  13.294  11.891 -0.1143  0.3833 -0.3353
35469W        W38689   9.318   7.438   5.963  0.0615  0.0748 -0.0709
35470W        W38690  16.082  11.778   1.376 -0.0003  0.1712 -0.0535
35471W        W38691  10.956  14.526   2.617  0.1373 -0.3177 -0.0746
35472W        W38692  16.303  14.842   4.123 -0.1378  0.1146 -0.0283
35473W        W38693   7.618  14.918   5.601 -0.0993  0.3803  0.1451
35474W        W38694  12.440  12.268   4.890  0.2902  0.0392 -0.1889
35475W        W38695   5.982  11.433  12.894  0.1505  0.1822 -0.1245
35476W        W38696  14.284  16.982   3.357 -0.0329 -0.0112  0.0682
35477W        W38697  12.964  14.362   5.573  0.1661  0.0311 -0.2383
35478W        W38698  12.203  11.195  17.901 -0.0519  0.2079  0.1080
35479W        W38699  15.359  15.853   1.550 -0.1680 -0.0160 -0.0862
35480W        W38700  16.676  13.776  17.499 -0.0966 -0.1078 -0.0647
35481W        W38701  13.487  16.378   6.562  0.0551  0.0433  0.1284
35482W        W38702  12.486   9.366   5.628 -0.1532  0.2231 -0.1961
35483W        W38703  12.273   9.874   1.053 -0.0982  0.1245 -0.1591
35484W        W38704   8.901  13.201   3.692 -0.2030  0.0716 -0.3830
35485W        W38705  11.318   6.640   7.748  0.2107  0.0730 -0.0732
35486W        W38706  11.142  17.951  18.199  0.2644  0.2280  0.0330
35487W        W38707  10.654   9.429   5.073 -0.0593  0.1719 -0.0754
35488W        W38708  11.083  13.980   1.958 -0.1170 -0.2538 -0.2580
35489W        W38709  11.187  14.455  14.486  0.0651  0.0340  0.1045
35490W        W38710  11.692   9.456  17.416  0.4181  0.0878 -0.0492
35491W        W38711   8.917   3.351   8.870 -0.0479  0.0723  0.1412
35492W        W38712   2.559   4.998   5.190  0.0589  0.1220 -0.1089
35493W        W38713  17.901   9.653   5.933  0.0044 -0.2346  0.3116
35494W        W38714  15.502   9.132   3.483  0.1618 -0.2676  0.0341
35495W        W38715   9.186  11.076   0.720  0.0469 -0.1002  0.0602
35496W        W38716  13.663  10.229   2.534  0.0338  0.0605  0.1751
35497W        W38717  12.556  11.935   3.728 -0.0854 -0.0426 -0.0822
35498W        W38718  15.564  12.041   5.262 -0.0313 -0.0560  0.0125
35499W        W38719  16.197   9.930   0.262  0.0053 -0.2669  0.1400
35500W        W38720  13.193  11.775   8.125  0.0267  0.1894  0.0206
35501W        W38721   9.005   0.684   2.146  0.2540 -0.1056  0.1253
35502W        W38722  16.244  14.296  10.668 -0.0634 -0.3640 -0.2071
35503W        W38723  11.898   9.518   1.087 -0.0487  0.1021  0.0311
35504W        W38724   5.962  17.609  16.249  0.0976  0.1820  0.1373
35505W        W38725   9.054  11.493  17.965 -0.3158  0.0008  0.0758
35506W        W38726   6.313  11.333   3.070  0.3083 -0.2707 -0.0927
35507W        W38727  12.211  10.959   6.343 -0.0192 -0.1548 -0.0586
35508W        W38728  12.623   8.113   1.483  0.0783 -0.2255 -0.1576
35509W        W38729  17.683   2.660   0.657  0.2094  0.0491  0.2255
35510W        W38730  12.666  12.931   5.403  0.0064  0.2974 -0.0612
35511W        W38731  11.314   0.524   2.328 -0.0338  0.1463 -0.0489
35512W        W38732   2.948  14.162   5.689 -0.1633  0.0637  0.1018
35513W        W38733   0.636  15.267   0.852 -0.0312  0.1787  0.1423
35514W        W38734   2.241  15.258  12.238  0.1305  0.0807  0.0401
35515W        W38735   8.716  15.553   3.580 -0.0725  0.0760 -0.2205
35516W        W38736   9.788  14.638  12.594 -0.0428  0.2457 -0.0960
35517W        W38737   8.005   1.159   0.987  0.2468  0.3104 -0.0027
35518W        W38738  11.587  16.826  15.068  0.1719 -0.0900  0.4150
35519W        W38739  13.855  14.666   1.163 -0.3035  0.2899 -0.3065
35520W        W38740   7.481  11.101  15.271 -0.0060  0.0059  0.1006
35521W        W38741  10.717  13.286   1.503 -0.2047 -0.1558 -0.1490
35522W        W38742   0.250   0.962   0.420 -0.2383 -0.2208 -0.0703
35523W        W38743  15.301   1.517  16.148  0.1743 -0.3400  0.0368
35524W        W38744  10.093   9.821   3.693 -0.0394 -0.2217  0.1666
35525W        W38745   6.015  14.883  13.495 -0.0380  0.0086  0.3065
35526W        W38746  12.040  15.714   1.598  0.1974  0.1677  0.0982
35527W        W38747  11.102  11.609   4.948 -0.1844 -0.1441  0.1864
35528W        W38748   5.438  14.879  10.840 -0.0460 -0.3592 -0.1397
35529W        W38749   5.262  18.114   2.270  0.0794 -0.0345 -0.3823
35530W        W38750  12.112  17.723  15.936  0.1898 -0.0104 -0.1309
35531W        W38751  10.835  14.429   2.068 -0.1220 -0.0949  0.0457
35532W        W38752  14.982  11.812   3.700 -0.2515  0.1455  0.2785
35533W        W38753   9.462  13.215   5.264  0.2051  0.2682  0.0364
35534W        W38754  12.004   8.616   3.495  0.1172  0.1136  0.0673
35535W        W38755  11.755   9.396   8.620  0.5054  0.1307 -0.0262
35536W        W38756  13.913  12.518   5.880  0.0665  0.4390 -0.0709
35537W        W38757  16.220  17.762   2.838  0.1101  0.1256  0.1052
35538W        W38758  12.116  11.302   7.404  0.2869  0.0533 -0.4947
35539W        W38759   5.499  16.094   0.799  0.1177 -0.0178 -0.2831
35540W        W38760  12.311  16.208   2.330 -0.0486  0.2161  0.1512
35541W        W38761   7.690   7.789  13.347 -0.1294 -0.0505  0.2236
35542W        W38762  12.447  12.070   6.077  0.1044 -0.1255  0.2666
35543W        W38763  17.372   6.837   3.628  0.0604  0.2710  0.0781
35544W        W38764  10.529  15.477  17.247  0.0092  0.3584  0.1700
35545W        W38765  11.760   6.196   3.446  0.1218  0.0120 -0.1959
35546W        W38766  17.128  11.933   6.758  0.1595 -0.2276 -0.1114
35547W        W38767  11.869   9.587   2.146  0.2464  0.1481 -0.1398
35548W        W38768  11.119  12.742  15.512  0.0690  0.0878 -0.1856
35549W        W38769  10.398   8.133   0.016  0.2076  0.1497 -0.1141
35550W        W38770  12.677  12.997   4.397  0.2348 -0.1079  0.0133
35551W        W38771  14.562  12.244   2.839  0.0848  0.1338 -0.1483
35552W        W38772  12.584   5.447   0.304 -0.0878 -0.0068 -0.0458
35553W        W38773   0.479   9.973   7.795 -0.2681 -0.1687 -0.0899
35554W        W38774   1.878   9.233  18.107 -0.1545 -0.4265  0.0267
35555W        W38775   5.847  15.024  16.227 -0.3030  0.2612 -0.0868
35556W        W38776  14.082  14.050   2.885  0.1814 -0.0152 -0.0244
35557W        W38777  17.047  17.161   3.683 -0.5545 -0.0101  0.1200
35558W        W38778   0.627  14.889  15.658  0.2126 -0.4046 -0.2887
35559W        W38779   5.440   3.681   1.424  0.0199 -0.0898  0.0577
35560W        W38780  12.905   8.371   0.625 -0.3472  0.2145 -0.0131
35561W        W38781  17.808   8.390   7.154  0.2207 -0.1931 -0.7609
35562W        W38782  17.465  14.282   2.946 -0.1663 -0.1166 -0.2001
35563W        W38783   5.855  12.122  10.031 -0.2844 -0.4249 -0.0669
35564W        W38784   8.199  11.465   2.064 -0.1148  0.0481  0.2397
35565W        W38785  16.065   3.919   6.683  0.1368  0.0637  0.1025
35566W        W38786   8.586  15.362   1.703 -0.3252 -0.0650  0.2622
35567W        W38787   4.054  10.067   4.652 -0.2133 -0.1950 -0.0531
35568W        W38788   9.760  14.323   3.787 -0.1069 -0.0701 -0.1472
35569W        W38789  11.736  11.480  17.807  0.0324 -0.1510  0.0216
35570W        W38790  12.872  14.565   8.969  0.0670 -0.1480  0.0333
35571W        W38791   9.241  13.981   2.223 -0.0128 -0.3080  0.1001
35572W        W38792   7.411  13.608   5.630  0.1350  0.0690 -0.1257
35573W        W38793  15.912  10.955   4.549  0.0503 -0.1345  0.2259
35574W        W38794  10.015  13.583   0.472 -0.1060  0.1170 -0.0592
35575W        W38795   7.648   7.296   0.999 -0.0758  0.0925  0.2372
35576W        W38796  12.205  16.010   0.675 -0.2045  0.0786 -0.4476
35577W        W38797  17.366  17.359   2.887  0.2228 -0.1528  0.1982
35578W        W38798   7.710  15.382   0.611 -0.1212 -0.2802  0.1222
35579W        W38799  12.836  13.888   0.379  0.1538  0.0533 -0.0375
35580W        W38800   5.402  11.002   2.651 -0.1339  0.1087 -0.1780
35581W        W38801  10.316   7.328  15.678 -0.0349  0.2250  0.1164
35582W        W38802  11.253   9.445   8.759  0.1013 -0.4660 -0.1460
35583W        W38803  10.500  12.955   2.978  0.1276 -0.1182 -0.0442
35584W        W38804  11.997   5.582   5.324 -0.2282 -0.2797 -0.1574
35585W        W38805  18.162   0.398  17.171 -0.2679 -0.1221 -0.1343
35586W        W38806  10.686   0.790   8.908  0.1990  0.1668  0.2600
35587W        W38807   2.982   9.618   6.813  0.0442 -0.1576  0.4413
35588W        W38808  16.621   6.323   0.977  0.0994 -0.1247  0.1848
35589W        W38809  12.205  12.060  17.146  0.2978 -0.2314 -0.1467
35590W        W38810   8.846  16.000   0.446 -0.1060 -0.0641  0.0793
35591W        W38811  12.776  12.201  16.075  0.1090  0.2282  0.1428
35592W        W38812  12.749  15.833   3.753 -0.0647  0.4517 -0.2745
35593W        W38813   0.170  16.283   2.977  0.1127  0.0939 -0.1828
35594W        W38814   3.740  12.931   0.569  0.1182 -0.0993 -0.1305
35595W        W38815  14.762  16.089   1.761  0.1029  0.1465 -0.2158
35596W        W38816   6.622  15.548   3.398 -0.2482 -0.1909  0.0769
35597W        W38817   7.092   5.721  17.023 -0.1118 -0.3163 -0.1351
35598W        W38818  12.224  10.279  18.087  0.2940 -0.4105 -0.0567
35599W        W38819  10.564   3.148  14.771 -0.3472  0.2677  0.3266
35600W        W38820   6.030  16.086   4.071 -0.2264  0.0879 -0.2200
35601W        W38821  13.299   6.297   1.338 -0.1584 -0.1917 -0.0052
35602W        W38822  16.707  12.212   2.688  0.0768 -0.1679  0.3006
35603W        W38823   9.623  12.174   0.031 -0.2229  0.2237  0.1316
35604W        W38824   9.100  14.781   3.253  0.1979  0.0562 -0.0021
35605W        W38825   0.744  10.973   8.825  0.0755  0.1353  0.2389
35606W        W38826  12.525  12.030  10.198  0.0198 -0.1994  0.1049
35607W        W38827   8.531   8.983   2.972 -0.0293  0.0598 -0.0157
35608W        W38828  12.586   7.653  15.728  0.4259  0.2891  0.2168
35609W        W38829  11.616  11.531   0.031  0.0568  0.0156 -0.0820
35610W        W38830  14.262  11.172   1.950 -0.0453  0.0501  0.2643
35611W        W38831  10.744   6.220   5.854  0.2165 -0.1190  0.4161
35612W        W38832   6.154  16.853   0.723  0.1008 -0.0916 -0.1951
35613W        W38833  11.549  15.096  15.269  0.0239 -0.0520 -0.1782
35614W        W38834   3.841  16.403   9.848  0.0402 -0.1347  0.4737
35615W        W38835  14.502   8.156   2.471 -0.0023  0.0505  0.0719
35616W        W38836  11.975  13.811  15.786  0.0841  0.0255  0.0333
35617W        W38837  11.545   4.118   6.345  0.0841  0.0526  0.1657
35618W        W38838  11.517  15.776  12.183  0.2234  0.0388  0.2579
35619W        W38839  14.274  14.522   4.527  0.2000  0.0688 -0.0841
35620W        W38840  12.932  13.910  17.758  0.1399  0.2178  0.0383
35621W        W38841   9.553  10.802   8.759 -0.1054 -0.0543  0.0416
35622W        W38842  15.626   6.822  12.874  0.3107  0.3502  0.0740
35623W        W38843  11.382  13.428  16.522 -0.4414 -0.4273  0.2791
35624W        W38844  10.684  16.930  15.480 -0.2276 -0.0171 -0.3175
35625W        W38845  12.803   2.263  15.010  0.2480  0.2974  0.0665
35626W        W38846   8.132  12.878   4.890 -0.1947 -0.0152 -0.4052
35627W        W38847  10.624   6.286  17.656  0.0700 -0.1061  0.2826
35628W        W38848  11.706  15.043   6.013 -0.0501  0.1311 -0.5089
35629W        W38849  10.659   9.112   3.259  0.1194  0.3921 -0.1149
35630W        W38850   2.222   0.395  17.836  0.0626 -0.0980  0.1107
35631W        W38851  13.570   7.568  13.205 -0.4563 -0.1316  0.0418
35632W        W38852   6.677  12.306  16.901  0.1281  0.2550  0.1260
35633W        W38853   8.099  11.360   3.556  0.1931  0.2015  0.1578
35634W        W38854  11.092  13.846   3.606 -0.0512 -0.0178 -0.1918
35635W        W38855   8.692   1.484   7.161 -0.2177 -0.0739  0.0755
35636W        W38856  10.839   9.817   4.398  0.2251 -0.1987  0.0581
35637W        W38857   9.764  11.121  16.535 -0.0338  0.2156 -0.1276
35638W        W38858  12.823  16.210  11.427 -0.0502 -0.1574  0.0362
35639W        W38859  10.088  14.608   6.755  0.1089  0.0671 -0.0061
35640W        W38860  10.538  16.661  16.330  0.1260  0.2329 -0.0267
35641W        W38861  14.751  15.723   0.116  0.0026  0.1512 -0.1896
35642W        W38862  12.114  13.489   6.826  0.0906 -0.0579  0.3031
35643W        W38863  14.317  13.289   5.229  0.0954 -0.1122 -0.1206
35644W        W38864   8.618  10.610  16.643 -0.2164 -0.1268  0.2012
35645W        W38865  16.711  11.271   0.229  0.2530  0.1620 -0.2737
35646W        W38866   3.274   1.115   1.380  0.0185  0.1872  0.0622
35647W        W38867   3.536   1.672   0.419 -0.3043 -0.0240  0.0375
35648W        W38868  12.395  12.789   1.239 -0.2091 -0.1253  0.1574
35649W        W38869  10.891  15.920   0.344 -0.2835  0.0603 -0.2916
35650W        W38870  14.743   8.897   4.047  0.2991 -0.0548  0.0229
35651W        W38871  14.648  18.227   1.930  0.2362  0.0292  0.1954
35652W        W38872  11.663  12.806  14.037 -0.3345 -0.2843  0.0463
35653W        W38873  13.240  14.034   1.543  0.1725 -0.1463  0.0625
35654W        W38874   0.024  16.832  15.907  0.0986  0.0379  0.0569
35655W        W38875  12.895  11.818   0.726  0.1838 -0.1690  0.3234
35656W        W38876   6.408  14.821  17.598 -0.2525  0.2389  0.2649
35657W        W38877   8.329  11.149   0.150 -0.0181  0.1265  0.0731
35658W        W38878  14.111   5.035   1.312  0.1734 -0.0026  0.0593
35659W        W38879  13.068   5.930  17.662  0.2839  0.0839  0.0933
35660W        W38880  15.518  13.882  17.783 -0.0635  0.1241  0.1608
35661W        W38881   8.971  13.879   3.691 -0.1161  0.0581  0.0519
35662W        W38882   7.140   0.401  14.700  0.0915 -0.1198 -0.0268
35663W        W38883   8.562  15.567   0.327 -0.2827  0.1361  0.0264
35664W        W38884  15.899   8.729   3.057  0.0781  0.1400  0.0297
35665W        W38885  16.232   2.487   6.665  0.0307 -0.0049  0.1189
35666W        W38886  16.205   8.938  16.478 -0.3423  0.0496 -0.0612
35667W        W38887  10.657  11.331   8.150 -0.0051  0.4009  0.2292
35668W        W38888  17.059  16.384   4.147 -0.0334  0.0819 -0.1883
35669W        W38889   8.953  13.916   2.643 -0.2428 -0.1078  0.4468
35670W        W38890   0.771   9.013   3.644  0.1236 -0.0272 -0.1041
35671W        W38891  17.671  13.319   2.588 -0.1580 -0.2672 -0.0449
35672W        W38892  12.698  10.068   4.090 -0.2133 -0.1776  0.1533
35673W        W38893   9.217  11.890  14.548  0.1061 -0.0135 -0.1089
35674W        W38894   0.519  16.932   1.380  0.0322  0.0340  0.1209
35675W        W38895  12.763   5.607   9.218 -0.0303 -0.1023 -0.2428
35676W        W38896   6.131   7.787   4.396  0.1808 -0.0627  0.2276
35677W        W38897  15.594   2.829   7.069  0.0545 -0.1991  0.1213
35678W        W38898  10.608  10.702  17.466 -0.2099  0.0147 -0.0373
35679W        W38899  13.014   0.630   3.046 -0.1250  0.1155  0.1562
35680W        W38900  14.698  14.200   6.484  0.1615  0.2141 -0.1592
35681W        W38901   5.176   0.550  14.565 -0.1193 -0.0213 -0.2777
35682W        W38902  11.351  10.025   5.904 -0.1424 -0.0892  0.0323
35683W        W38903   8.038  13.262   0.874 -0.2349  0.0255  0.0984
35684W        W38904  15.692  15.127   3.185 -0.2563  0.0397  0.1512
35685W        W38905  15.064  17.772   1.108  0.0618  0.2546  0.3468
35686W        W38906  12.748  11.215  16.351  0.0985  0.0061  0.0796
35687W        W38907  16.491   7.680   0.214  0.2346  0.3199 -0.1384
35688W        W38908   2.014   8.799   5.700  0.0970  0.2114 -0.0388
35689W        W38909   7.549  13.400  14.138 -0.1961  0.1160  0.2125
35690W        W38910  14.251   0.147   2.131 -0.1617  0.0537  0.0790
35691W        W38911  11.680  13.382   8.797  0.1376  0.3421 -0.2113
35692W        W38912  12.250   6.742  16.744  0.0175 -0.1042 -0.0469
35693W        W38913  18.234   0.298   1.111 -0.3457  0.0183  0.2397
35694W        W38914  10.206  13.306   0.877  0.1276 -0.0321 -0.3391
35695W        W38915   5.897   5.384   0.689  0.2431 -0.1304 -0.1478
35696W        W38916  11.245  14.133  12.303 -0.2208 -0.0134 -0.0528
35697W        W38917  10.069  13.685  15.751  0.1638 -0.0428 -0.0318
35698W        W38918   8.242   7.799   0.380 -0.1531 -0.0743 -0.0626
35699W        W38919   9.315  17.272   0.223  0.1232  0.1546 -0.1760
35700W        W38920  10.105  12.561   3.248 -0.1679  0.1122 -0.1242
35701W        W38921   8.193   0.233   2.126 -0.0582 -0.4093 -0.1468
35702W        W38922  13.633   1.122  16.648  0.1815 -0.1583 -0.0881
35703W        W38923  14.226   7.583   3.684  0.4443  0.1230  0.2091
35704W        W38924  14.411   0.196  10.812  0.0841 -0.1338  0.0078
35705W        W38925   7.787   3.219   6.663 -0.0531  0.1162 -0.2196
35706W        W38926   0.951  10.680   2.049  0.1046  0.1089  0.2126
35707W        W38927  11.916   8.441   5.499 -0.2532  0.2629  0.0024
35708W        W38928  12.856  12.328  16.676 -0.1393  0.0098 -0.3390
35709W        W38929  13.646   7.815   5.613  0.0425  0.0948 -0.2305
35710W        W38930   5.857   0.150   1.121 -0.0180 -0.3498 -0.3842
35711W        W38931  10.076   9.703   8.050  0.0846 -0.2568 -0.1103
35712W        W38932   1.789   5.026   1.915 -0.1674  0.3950 -0.0137
35713W        W38933   8.380  13.229   2.761 -0.1558 -0.3040 -0.3283
35714W        W38934   8.956  11.290  17.468  0.0033  0.1007 -0.1043
35715W        W38935  14.553  16.834  18.000  0.0899 -0.0563  0.1559
35716W        W38936   7.986  12.293   7.828  0.1046 -0.1836 -0.0061
35717W        W38937   0.601  13.580   3.382  0.0854  0.0276 -0.1577
35718W        W38938  13.844  12.485   3.496 -0.0221 -0.0673  0.2481
35719W        W38939  10.147  10.731   3.281  0.0030 -0.2985  0.2507
35720W        W38940  12.141  12.013   9.787  0.1079  0.1921 -0.1693
35721W        W38941  11.042   1.830   1.816 -0.1531 -0.3679  0.1004
35722W        W38942  10.844  13.010  15.185  0.4574  0.0090 -0.1659
35723W        W38943   7.063  11.027   5.178  0.0394 -0.2226 -0.3507
35724W        W38944   2.581  10.014  13.900  0.0970  0.0412 -0.1973
35725W        W38945  11.078  16.043  10.095 -0.1387  0.2475  0.0495
35726W        W38946  15.063  14.590   6.480 -0.1113  0.3564 -0.1699
35727W        W38947  12.476   0.411  15.978 -0.1453  0.0131 -0.1607
35728W        W38948  13.522  11.139   2.040 -0.1694  0.2303  0.1638
35729W        W38949  13.471   8.032   4.960  0.0378  0.1090  0.1728
35730W        W38950   9.819   9.027   5.549  0.2090 -0.2624 -0.0053
35731W        W38951  17.688   1.522   3.005 -0.1717  0.0884  0.1436
35732W        W38952  12.672  11.092   6.123  0.0539 -0.0083 -0.3015
35733W        W38953  10.554  14.130   0.252  0.2666  0.0803  0.0403
35734W        W38954  10.155  12.021   1.712 -0.1781 -0.1082 -0.2220
35735W        W38955  14.049  13.181   2.182 -0.0664  0.3139 -0.0110
35736W        W38956   9.024  14.417  13.989  0.0348  0.2109  0.1599
35737W        W38957   6.987   6.238   5.825  0.1209 -0.3875 -0.1255
35738W        W38958  11.549  13.741   2.438 -0.2265  0.1313  0.0845
35739W        W38959  15.787  10.225   4.082  0.0097 -0.2218  0.3678
35740W        W38960  15.904  15.314   3.978  0.0506  0.2437  0.0008
35741W        W38961   5.567   0.599   2.796 -0.0621  0.0729  0.2035
35742W        W38962  17.364  12.080   9.814 -0.0501  0.0689 -0.2866
35743W        W38963   2.828   3.698  15.337 -0.2792 -0.2423  0.0412
35744W        W38964   8.607   5.934   8.753 -0.1180  0.1145 -0.0941
35745W        W38965  15.690  15.001   4.737 -0.2769 -0.1586  0.2462
35746W        W38966   6.727   0.203   6.455 -0.1217 -0.2936 -0.1865
35747W        W38967  11.750  10.407  14.725  0.0069  0.2304 -0.1120
35748W        W38968  16.433  16.209   5.712  0.1445  0.1766 -0.1047
35749W        W38969  13.655  12.213   2.435 -0.1283  0.2684 -0.0449
35750W        W38970  15.097   9.160   8.290 -0.0670 -0.4608 -0.0908
35751W        W38971   2.774  12.137  16.931  0.0650  0.1825  0.4756
35752W        W38972  13.287  18.150  12.536 -0.2964  0.0254 -0.1815
35753W        W38973   2.771   9.155  16.932  0.2456 -0.0345  0.0457
35754W        W38974   9.930  13.679   1.466 -0.1487 -0.1778  0.2036
35755W        W38975   7.006  12.060   6.393 -0.3570  0.0533  0.0376
35756W        W38976  13.778  12.427  17.845 -0.0404 -0.0044  0.0274
35757W        W38977  17.206   0.982   0.715  0.0510 -0.0393  0.0603
35758W        W38978   4.682   8.770   3.954 -0.3944  0.3667 -0.0429
35759W        W38979  13.885   2.300   7.806  0.0674 -0.0230  0.3288
35760W        W38980  17.736  13.261   0.512 -0.0449 -0.3286 -0.0395
35761W        W38981  14.637   1.946   7.048 -0.1510 -0.1344  0.1537
35762W        W38982  12.805  14.866   3.515 -0.2252 -0.0283 -0.0384
35763W        W38983  14.107  10.519  17.719  0.0487 -0.3836 -0.0050
35764W        W38984   9.022  10.555   3.205  0.0620 -0.0340 -0.1011
35765W        W38985  13.685   0.678   1.430 -0.0716 -0.1406  0.0764
35766W        W38986   1.042  15.674  17.070 -0.2673 -0.0023  0.1448
35767W        W38987  10.487  16.399  15.341  0.0960 -0.1774  0.2772
35768W        W38988  10.141   5.615   4.834 -0.1969  0.0208  0.3064
35769W        W38989  12.264  10.351   4.430  0.0350 -0.2636  0.0188
35770W        W38990  12.146  12.261   3.961 -0.1260 -0.1603 -0.0174
35771W        W38991  15.449  14.997   8.126  0.2208  0.2970 -0.4094
35772W        W38992  12.309  12.604   4.394 -0.0430 -0.0730 -0.2024
35773W        W38993  11.397  18.178   3.622  0.0608 -0.1299  0.1773
35774W        W38994  11.274  12.765  16.266  0.0169 -0.0459 -0.0118
35775W        W38995  11.613  10.710   3.271  0.1846 -0.2218 -0.1931
35776W        W38996  11.191  11.868   1.723  0.2318  0.1656 -0.0062
35777W        W38997  17.521  10.082   3.298 -0.1813  0.0334  0.1503
35778W        W38998  14.093  13.891   6.304  0.1137  0.0519  0.2051
35779W        W38999  11.287  11.364   1.359 -0.1806 -0.0636 -0.0311
35780W        W39000  17.089   1.931   2.475 -0.0746 -0.0111  0.2466
35781W        W39001   5.576  13.193  18.120 -0.1237  0.1061  0.3202
35782W        W39002  13.113   9.560   4.543  0.2291  0.1669  0.0977
35783W        W39003  10.202  11.207  15.700 -0.0692  0.2577  0.1886
35784W        W39004   9.062  16.706   7.616  0.0474 -0.2193 -0.2606
35785W        W39005  13.876  14.622  17.631 -0.1290  0.2993 -0.1212
35786W        W39006  14.245  17.881   4.650 -0.0264  0.1801 -0.2034
35787W        W39007  17.825   1.214   7.088 -0.1910 -0.0405  0.1873
35788W        W39008  14.624  12.355   8.253  0.4471  0.0131 -0.1825
35789W        W39009  12.968   8.647  16.333  0.1058  0.2984 -0.1712
35790W        W39010   7.985  13.859  14.783  0.4870 -0.0663 -0.0960
35791W        W39011  13.673   7.802   4.524  0.2619 -0.3127 -0.1875
35792W        W39012   8.044  15.612   3.040  0.0018 -0.0715 -0.2534
35793W        W39013  12.668   7.232   0.118 -0.0784 -0.2854 -0.0207
35794W        W39014   6.919  12.019  14.336 -0.1236 -0.2251  0.0038
35795W        W39015   9.444  10.956  16.223 -0.1317 -0.4592  0.0414
35796W        W39016  13.455  16.365   3.230 -0.1673 -0.0728  0.1478
35797W        W39017  12.643  15.461   8.210  0.0662  0.1498  0.1635
35798W        W39018   4.348   9.198  16.567 -0.2920  0.1509 -0.4144
35799W        W39019   7.800  16.286   4.458 -0.1060  0.0216  0.1135
35800W        W39020   7.614  17.402  17.883  0.1033  0.0018 -0.2830
35801W        W39021   1.764  13.125  12.297  0.2385 -0.0418 -0.2140
35802W        W39022   8.274   8.399   3.674  0.1452 -0.2428  0.1373
35803W        W39023   6.053  11.860   2.122  0.1646  0.0691  0.2322
35804W        W39024  16.269  12.385   1.059  0.1009  0.1619 -0.0092
35805W        W39025   9.289   7.794   1.902 -0.2176 -0.1506  0.0167
35806W        W39026  13.653  13.237   2.595  0.0616 -0.1559  0.3124
35807W        W39027  15.293  16.714  15.542 -0.1537  0.0756  0.1688
35808W        W39028  12.309   1.718   1.812  0.0357  0.1271  0.0637
35809W        W39029   7.070  12.953   3.092  0.1075 -0.0981 -0.2318
35810W        W39030  10.755   5.702  17.608 -0.2533  0.2512 -0.1427
35811W        W39031   7.438  10.773   0.326  0.1501 -0.4451 -0.0083
35812W        W39032   4.095  16.845  16.871  0.0142  0.1257 -0.4662
35813W        W39033   0.316   4.605   3.659  0.3185  0.0895 -0.4269
35814W        W39034   8.349  11.048   1.873  0.0384  0.0182 -0.0550
35815W        W39035  14.394   9.757   6.722  0.0445  0.4112  0.1711
35816W        W39036   6.467   9.433   0.319  0.0432 -0.0343  0.2322
35817W        W39037   1.437  15.388   1.133  0.1753  0.1078 -0.1689
35818W        W39038   1.588  12.128   5.571  0.0839  0.1176 -0.0598
35819W        W39039  10.804   0.016  17.904 -0.1684 -0.0684 -0.2044
35820W        W39040  17.265  18.148  15.620 -0.0463 -0.0519  0.2062
35821W        W39041  10.516  11.013  16.025 -0.2210 -0.0708  0.0912
35822W        W39042  10.676   6.151   2.328  0.0716 -0.3371 -0.1652
35823W        W39043  10.477  14.774   9.287  0.0872  0.0872 -0.0377
35824W        W39044  12.433  16.288  17.529  0.0045  0.2344  0.2014
35825W        W39045  16.695   2.687   9.487  0.2703 -0.0514  0.1275
35826W        W39046  13.582  17.869  14.773  0.0350  0.1519 -0.0651
35827W        W39047  15.928   9.684   2.107 -0.2852  0.0959  0.1955
35828W        W39048  11.141  14.244   8.899  0.0472 -0.1182  0.1391
35829W        W39049   9.518  12.796   2.407  0.1492  0.1871 -0.0124
35830W        W39050   0.349  13.657   2.466 -0.1775 -0.1342 -0.0543
35831W        W39051  12.979   8.312   7.032  0.2538  0.0238  0.4389
35832W        W39052  13.704  12.886   0.292 -0.1222 -0.0242  0.2722
35833W        W39053  14.066   8.992   3.841 -0.1628 -0.2434  0.0492
35834W        W39054  16.582   3.132   5.975  0.1055  0.1370 -0.1038
35835W        W39055  10.721   7.932   6.398  0.2045  0.2282  0.2119
35836W        W39056   8.936  13.965   5.374 -0.1444  0.0371 -0.2429
35837W        W39057   2.152  10.035  16.706 -0.4094 -0.1392 -0.0191
35838W        W39058  12.239  14.547   1.008 -0.0436  0.0258  0.3325
35839W        W39059  13.805  13.305   6.823  0.0323  0.2881  0.0330
35840W        W39060  13.581  13.111   5.099  0.0401 -0.1683 -0.1153
35841W        W39061  14.916   7.285   4.375  0.3250 -0.0369  0.1229
35842W        W39062   8.809   8.096   7.610 -0.0447  0.1048 -0.0040
35843W        W39063   4.401  16.384  17.136  0.0958  0.1229  0.1198
35844W        W39064   0.576   0.429   8.265 -0.0443 -0.1304  0.1272
35845W        W39065  16.384   3.720   2.594  0.2928  0.0652 -0.1597
35846W        W39066   6.891   8.825   6.852 -0.0420  0.0851  0.0144
35847W        W39067   9.961   9.964   0.333  0.1499  0.0576 -0.1327
35848W        W39068  10.230   6.647   7.537 -0.1706 -0.0236  0.0272
35849W        W39069   7.492  10.914   4.899  0.4295  0.2015 -0.0191
35850W        W39070   9.875  12.202  17.466 -0.0998  0.1730 -0.2549
35851W        W39071   9.871   1.719  16.129 -0.1530  0.0539 -0.3483
35852W        W39072  16.534  10.869   8.089 -0.1941  0.0202 -0.3385
35853W        W39073   3.749  11.068   4.038  0.2221 -0.1879 -0.0863
35854W        W39074  10.358  16.858   0.598 -0.1256  0.0591  0.0479
35855W        W39075   9.009  14.811   5.780  0.0715  0.0182 -0.0279
35856W        W39076  15.610   7.782   8.597  0.0825 -0.1199 -0.3058
35857W        W39077  13.942  14.771  16.783  0.1187  0.1301  0.1774
35858W        W39078  16.033   9.090  10.372 -0.1172  0.2367  0.2621
35859W        W39079  11.968   9.585   5.633 -0.0908  0.1561 -0.1068
35860W        W39080  17.767  11.691   8.597  0.0645  0.0729 -0.0610
35861W        W39081   8.290   5.495   5.502  0.1312  0.2586  0.1356
35862W        W39082  12.877  10.000   6.139  0.0582  0.1065  0.2046
35863W        W39083  13.514   5.691   5.732 -0.2818 -0.0390  0.2785
35864W        W39084   6.982   6.375   7.200 -0.0840 -0.0424 -0.0743
35865W        W39085  10.279   8.527   5.487 -0.0078  0.1354  0.1467
35866W        W39086  13.769  12.764   2.436 -0.1862 -0.0233  0.0697
35867W        W39087  14.959  10.235   1.057  0.4508 -0.2759  0.0490
35868W        W39088  10.928   7.293  13.925 -0.2437  0.2470  0.2539
35869W        W39089  13.261  10.984  14.179 -0.2251  0.3049 -0.1419
35870W        W39090  17.294  15.433  14.904 -0.1301  0.0700 -0.2737
35871W        W39091   1.861  11.005   7.817  0.3184 -0.0341  0.0023
35872W        W39092  14.692  16.353  10.947 -0.1167  0.2577  0.2509
35873W        W39093  18.117  17.224   6.165  0.2008  0.1186 -0.2388
35874W        W39094  12.701  15.226   0.712 -0.2723  0.1839 -0.2810
35875W        W39095  10.246   4.583   1.483 -0.1130 -0.0782 -0.0951
35876W        W39096   6.333  12.704   5.593 -0.0678  0.4342  0.2564
35877W        W39097  17.461  12.868   2.517 -0.1691  0.0638  0.1818
35878W        W39098   1.336  11.838   6.801 -0.1977 -0.3273  0.0927
35879W        W39099  14.780  14.984   1.531 -0.0896  0.3588 -0.0787
35880W        W39100  11.731   3.262   4.492  0.2304  0.1558  0.1150
35881W        W39101   4.864   8.423   4.289  0.0181 -0.1420  0.0612
35882W        W39102  16.688   9.216   5.569 -0.1138  0.1083  0.1206
35883W        W39103   1.395   0.410   2.032  0.1501 -0.1844 -0.1174
35884W        W39104  14.011   8.046   3.664  0.0456  0.0696  0.0048
35885W        W39105  17.917   7.860   7.211 -0.1233  0.0125  0.0897
35886W        W39106  16.545   8.520   3.756  0.2345  0.2080  0.1919
35887W        W39107  11.889  17.098   5.970 -0.2186  0.2585 -0.0864
35888W        W39108  11.353   9.251   7.173 -0.1770  0.0143 -0.1363
35889W        W39109  14.444   5.215   3.650 -0.1478  0.1647 -0.0304
35890W        W39110   7.746  17.019   5.209 -0.0599 -0.3551  0.2379
35891W        W39111  13.215  13.002   2.488 -0.3370  0.1735  0.3885
35892W        W39112  15.181  13.159   9.265  0.1461 -0.0452  0.0900
35893W        W39113  17.375  17.297   6.492 -0.2529  0.2630  0.0015
35894W        W39114  14.427  16.194   6.141 -0.0448 -0.2458  0.1170
35895W        W39115  11.560  17.160  17.895 -0.1259 -0.0631  0.1418
35896W        W39116  12.894   6.653   9.502 -0.0065 -0.0705  0.3727
35897W        W39117  15.134   9.035  17.493 -0.0682 -0.0118  0.0628
35898W        W39118  15.626  15.052   1.332 -0.0854 -0.1218  0.1134
35899W        W39119  14.296  14.447   7.480  0.1556 -0.0466  0.0797
35900W        W39120  12.754  13.979   7.732  0.4161 -0.1894  0.0638
35901W        W39121  15.171  13.608   5.499 -0.0991  0.3295 -0.2165
35902W        W39122  14.494  17.110   0.142  0.1520  0.2100 -0.0579
35903W        W39123  10.876  16.783   9.019 -0.3006  0.2471 -0.1303
35904W        W39124  13.670  15.578   2.843 -0.0559  0.0521 -0.1278
35905W        W39125   8.282  14.305  16.368  0.1786 -0.2377  0.0869
35906W        W39126  13.117  13.819   6.361 -0.1107 -0.2314 -0.1191
35907W        W39127  17.062  10.225   6.422  0.2722  0.1160  0.2069
35908W        W39128  13.489   2.518   3.821 -0.1980  0.1696 -0.2334
35909W        W39129  10.531  11.494   4.098 -0.4567 -0.1787 -0.0826
35910W        W39130  11.383  15.223   5.213  0.1016 -0.2066 -0.1763
35911W        W39131   0.405   7.758   2.176  0.1985 -0.0697  0.1634
35912W        W39132  13.982  16.716   5.726 -0.0641 -0.1970  0.0780
35913W        W39133  13.409   0.855   1.827  0.1730 -0.0016  0.0583
35914W        W39134   9.103   8.470   7.430  0.3199 -0.0131  0.0948
35915W        W39135  13.086  11.187  10.951  0.0597 -0.1591 -0.3267
35916W        W39136  14.097   9.456   9.025  0.0975 -0.2148 -0.3172
35917W        W39137   9.933   8.841   2.757 -0.0595 -0.0776  0.0438
35918W        W39138   8.856  15.710   4.494 -0.1530 -0.0609  0.2046
35919W        W39139  11.776  16.449   4.946  0.4421 -0.1087  0.0298
35920W        W39140   0.644  13.487   5.936  0.2035 -0.2517 -0.1782
35921W        W39141  14.931  11.246   1.477  0.1098 -0.1881 -0.1138
35922W        W39142  13.874   0.764   0.402  0.1396  0.0327 -0.0135
35923W        W39143  14.349   8.363   7.132 -0.4446 -0.1039  0.0815
35924W        W39144  12.169  14.174   4.581 -0.2020  0.0179  0.1828
35925W        W39145  14.032   0.533   3.313  0.0123  0.1646 -0.0472
35926W        W39146   9.746  11.708   5.613  0.1362  0.0651  0.0121
35927W        W39147  11.759   1.088   3.511 -0.0784  0.1158  0.1960
35928W        W39148  12.940  12.556  13.086  0.0272  0.1915 -0.0645
35929W        W39149   6.169   1.490   6.145  0.4036 -0.1015  0.1124
35930W        W39150   4.029  16.855   9.520 -0.3028  0.0483  0.0418
35931W        W39151  14.540   8.784   3.103  0.0740  0.0329 -0.2935
35932W        W39152   8.515   5.583   4.273  0.0699 -0.1289 -0.0543
35933W        W39153  15.884  16.693   7.253 -0.2960  0.1395  0.0565
35934W        W39154   9.626  12.384   2.843 -0.0033  0.0856 -0.2520
35935W        W39155  11.546  17.714   1.515 -0.0036  0.0094  0.2651
35936W        W39156  13.453  15.359  11.478  0.2113 -0.1403 -0.1754
35937W        W39157  14.795  12.791   4.539  0.0632  0.2893  0.0904
35938W        W39158   9.934  16.786   2.651  0.1747  0.0550 -0.1361
35939W        W39159  11.899  12.424   5.125 -0.2523  0.1051 -0.1770
35940W        W39160  14.109  15.024   7.825 -0.2571 -0.3439 -0.1972
35941W        W39161   0.880   3.289   8.684 -0.2855  0.1525 -0.0265
35942W        W39162   8.351  13.698   1.488 -0.2593  0.0091 -0.1830
35943W        W39163  15.358  11.691  16.263  0.0752  0.2231  0.3034
35944W        W39164  15.419  10.375   7.864 -0.0071  0.0743 -0.1006
35945W        W39165   1.365  13.436   9.032 -0.0305 -0.0676 -0.3687
35946W        W39166  12.877  13.683   7.306  0.2542 -0.0741  0.1564
35947W        W39167  17.309  14.073  16.977  0.2061  0.0883  0.0056
35948W        W39168   9.966  11.101   3.729  0.1321 -0.2860 -0.2644
35949W        W39169  14.604  10.805   3.318  0.0573  0.2135  0.2829
35950W        W39170  13.784  16.859  17.565  0.0308  0.1487  0.0915
35951W        W39171  10.193   6.720   5.193  0.0550 -0.0777 -0.2996
35952W        W39172  14.532   1.554   3.183  0.2591 -0.0781  0.1236
35953W        W39173   7.815   3.118   5.922  0.0836 -0.0975 -0.0181
35954W        W39174  18.236  12.808  13.170  0.1583  0.1381  0.0116
35955W        W39175   0.758  10.850   5.947  0.1291 -0.0537  0.0760
35956W        W39176  18.145  10.410   1.227 -0.3526 -0.2024 -0.0963
35957W        W39177   1.353  10.794   5.074  0.0523  0.0736  0.1404
35958W        W39178  12.185   8.606   4.759  0.0220  0.0732 -0.1250
35959W        W39179  15.185  12.002   9.194  0.3014 -0.3124  0.0691
35960W        W39180   9.079   5.435   7.027 -0.2310  0.1104  0.0900
35961W        W39181  12.115  17.171   7.551 -0.0415 -0.0846  0.2918
35962W        W39182   3.117  15.699   5.276  0.1051  0.2600  0.1152
35963W        W39183   6.438  11.806   6.955  0.3517  0.1709 -0.2144
35964W        W39184  15.947   3.248   7.276  0.0254  0.1711 -0.0663
35965W        W39185  11.810   9.564   7.021 -0.1935 -0.1329 -0.0891
35966W        W39186  15.146   4.427   8.677  0.1767  0.2751 -0.0580
35967W        W39187  12.385   1.035   8.261 -0.4308 -0.0589 -0.4605
35968W        W39188  13.297   8.318   5.510  0.0704  0.4161  0.2149
35969W        W39189   0.287   0.508   5.394 -0.0094 -0.0198  0.1098
35970W        W39190  10.780  13.071  18.041  0.3573  0.0672  0.0112
35971W        W39191   7.302   8.739  13.488 -0.1580  0.0185  0.2444
35972W        W39192   9.321   7.708   2.970 -0.1780 -0.2892 -0.0253
35973W        W39193   0.633  13.160   9.257  0.0309  0.2343  0.0973
35974W        W39194  10.614  11.139   8.677 -0.2495  0.0828 -0.1134
35975W        W39195  15.421   6.830   6.661 -0.4713 -0.3195  0.0311
35976W        W39196   5.987  16.004  11.230 -0.0662 -0.1032 -0.2073
35977W        W39197   1.556  17.441   4.339 -0.1844 -0.2362  0.0093
35978W        W39198  13.147   7.946   6.709  0.1569 -0.0464  0.2275
35979W        W39199   9.733   7.816   2.207 -0.0851 -0.0206 -0.3781
35980W        W39200  14.238  14.598   0.374 -0.0959  0.0222  0.3357
35981W        W39201  14.543  17.139   7.778 -0.1801  0.0743 -0.1033
35982W        W39202  10.277   9.734   5.212  0.3836  0.4310 -0.0806
35983W        W39203  16.967   4.698   7.643  0.0461  0.0958 -0.0792
35984W        W39204   9.041   9.780   7.170 -0.0121  0.1195 -0.3664
35985W        W39205  15.403   7.965   7.567  0.1671  0.1529 -0.0328
35986W        W39206  14.855  13.870   6.969 -0.1846 -0.1020  0.2175
35987W        W39207  12.550  11.907   0.310 -0.2643 -0.3027 -0.2143
35988W        W39208   0.550   9.443   6.148  0.0753  0.2111 -0.0339
35989W        W39209  12.480   5.062   7.538 -0.1674  0.0807  0.0422
35990W        W39210  15.247  12.062   5.658 -0.0441  0.0981 -0.4828
35991W        W39211   1.041  11.113   2.262 -0.1067  0.0081  0.1043
35992W        W39212   6.936  13.803  16.331  0.0118 -0.0222 -0.1174
35993W        W39213  11.087  14.941   0.280 -0.3055  0.2353  0.1395
35994W        W39214   6.357  10.026   8.188  0.0936 -0.0369  0.3149
35995W        W39215  11.179   9.512   4.748  0.0994 -0.2099  0.0117
35996W        W39216  11.386  10.832   1.437  0.1153 -0.0355  0.2533
35997W        W39217  16.055  17.429   4.657  0.0570 -0.0718 -0.0311
35998W        W39218  11.420  17.391   7.418  0.0833  0.1684  0.2014
35999W        W39219  14.814   8.340   3.869  0.1632  0.0129 -0.1859
36000W        W39220  15.695  14.631   3.354 -0.2483  0.3246  0.0332
36001W        W39221   9.173   1.569   7.874 -0.1833  0.1625 -0.1193
36002W        W39222   6.373  16.296  14.565 -0.1156 -0.2074 -0.1948
36003W        W39223  14.411  11.849  16.765 -0.1329  0.1119  0.0674
36004W        W39224  14.408  15.727  13.844 -0.2081 -0.2134  0.0430
36005W        W39225  11.084  13.672   3.095 -0.2217 -0.1990 -0.0918
36006W        W39226  16.868  14.502  12.434  0.4290 -0.1217  0.0901
36007W        W39227  14.788  12.374   5.593  0.3169  0.1100 -0.2845
36008W        W39228   9.857   6.964  16.900 -0.1658 -0.2086  0.1337
36009W        W39229   1.705  15.739  18.077  0.1727 -0.1958 -0.0413
36010W        W39230  13.649   8.856  10.396 -0.2805  0.1754  0.0668
36011W        W39231  11.565  12.871   4.721 -0.1814  0.0956 -0.4941
36012W        W39232  13.006  16.800   2.607  0.1142 -0.1980  0.0334
36013W        W39233  11.873   8.995   3.827 -0.4148 -0.0295 -0.2288
36014W        W39234  15.644  11.470   6.201  0.1156 -0.0978  0.1405
36015W        W39235  10.885  10.077   6.864 -0.3487 -0.0374  0.2645
36016W        W39236   9.297  10.004   2.044  0.5427 -0.2923  0.1832
36017W        W39237   9.921  11.337  18.064 -0.1222  0.3949 -0.2834
36018W        W39238   8.033  16.860   9.597 -0.1562 -0.0511 -0.2498
36019W        W39239  12.903   7.435   7.420 -0.0916  0.1653 -0.3332
36020W        W39240   1.117   0.586   7.165 -0.2001 -0.2246  0.0594
36021W        W39241  12.798  15.633  10.334  0.1243  0.2052  0.0186
36022W        W39242  15.554   9.598   8.749 -0.1211 -0.0875 -0.0678
36023W        W39243   8.538   1.132   2.112 -0.1817  0.0346 -0.0982
36024W        W39244  14.573  12.023  14.733 -0.1265 -0.0147  0.0860
36025W        W39245   1.001   9.615   9.666  0.4403  0.1774  0.0864
36026W        W39246  11.788   7.725  18.022 -0.2786  0.0364  0.2452
36027W        W39247  15.416  11.008   4.479 -0.0106  0.1411  0.1416
36028W        W39248  17.430   9.927   8.672  0.2152  0.0432  0.0802
36029W        W39249  13.549  11.143   4.157  0.2055 -0.3267 -0.2424
36030W        W39250  12.395   2.070   0.696  0.3320 -0.2885  0.1362
36031W        W39251  14.378   7.820  12.414  0.0156  0.0342  0.0487
36032W        W39252  15.129  11.131   8.327 -0.2551 -0.2124  0.1361
36033W        W39253  12.565  17.296   1.709 -0.0944 -0.0380  0.3437
36034W        W39254  16.528   2.860   6.445  0.0064 -0.0081  0.0440
36035W        W39255  16.750   0.030  13.639 -0.0426 -0.0758 -0.0647
36036W        W39256   0.120  13.105   3.833  0.2085 -0.2601 -0.0513
36037W        W39257  10.982  12.685   3.692  0.1767  0.0118 -0.0081
36038W        W39258  12.048   7.473   3.646  0.3495  0.0147 -0.1088
36039W        W39259  13.284  18.168  15.916 -0.1047 -0.1160 -0.1972
36040W        W39260   7.807   2.383   5.619 -0.2186 -0.1907 -0.1914
36041W        W39261  12.267   6.914   6.247  0.3876  0.3030  0.1206
36042W        W39262  16.610   9.403   3.209 -0.0629 -0.1162 -0.1470
36043W        W39263  12.544   8.192   8.013 -0.2989  0.0331  0.2537
36044W        W39264  11.652   4.096   3.591 -0.2503  0.2856 -0.1259
36045W        W39265  10.867   1.447  13.736  0.5977 -0.1853 -0.0982
36046W        W39266  15.377  10.129   4.503 -0.1916 -0.0166  0.3972
36047W        W39267  12.762  12.836   6.749 -0.4346 -0.0663 -0.0135
36048W        W39268   1.178   7.440   4.380 -0.1936  0.2883  0.3871
36049W        W39269   6.679  14.580   4.634  0.1340 -0.1581 -0.2203
36050W        W39270  13.797  15.800   5.746 -0.1215 -0.0150 -0.1052
36051W        W39271  14.232  16.084   3.434 -0.1071 -0.0373 -0.2980
36052W        W39272   8.674   6.575   4.382  0.2460 -0.0601  0.0035
36053W        W39273  13.776  13.998   1.556  0.1654 -0.0905  0.2350
36054W        W39274  11.241  16.081   0.962  0.1951  0.0230  0.2294
36055W        W39275  11.064  12.928   5.464  0.0804  0.2428  0.2539
36056W        W39276  16.968  13.236   9.174 -0.2772 -0.0134  0.1002
36057W        W39277   0.492   6.412  15.391 -0.1141 -0.0207  0.2632
36058W        W39278  12.433  10.505   4.006 -0.0054  0.1698  0.0706
36059W        W39279  16.971  10.941   7.378  0.0694 -0.3803 -0.2671
36060W        W39280   7.757   1.033   8.316 -0.0355 -0.2306  0.0681
36061W        W39281  11.376   7.212   6.413 -0.0578 -0.1132 -0.1255
36062W        W39282  13.051  11.982   3.661 -0.2409  0.2244 -0.1760
36063W        W39283  13.004   3.586   6.415  0.1888 -0.2065 -0.1277
36064W        W39284   8.836   9.918   1.181 -0.1347  0.3666  0.1671
36065W        W39285   9.189  10.111   1.507  0.2441  0.0912 -0.0791
36066W        W39286   1.510  14.682   2.344 -0.0369 -0.1028  0.2213
36067W        W39287   2.170   1.432   0.753 -0.2561  0.1840  0.1714
36068W        W39288  13.808  12.451   2.961  0.3166  0.1240  0.2543
36069W        W39289  14.988   8.379   2.333 -0.0186 -0.2140  0.0258
36070W        W39290  12.284   1.559   4.505 -0.0558 -0.0871  0.4228
36071W        W39291   4.871  14.861   4.157 -0.0039 -0.2083 -0.1850
36072W        W39292   3.748  12.303   2.734  0.1553 -0.0200 -0.0803
36073W        W39293  15.644  16.000   6.740  0.1429 -0.0955  0.3424
36074W        W39294   9.792  11.811   3.787 -0.0570  0.0779 -0.0928
36075W        W39295   9.086  10.491   7.160 -0.0172  0.1431  0.1630
36076W        W39296  12.952   7.876   0.577  0.2697  0.1410  0.0290
36077W        W39297   8.442  13.851   7.497 -0.1226  0.1077 -0.1677
36078W        W39298   0.463  10.539   3.533 -0.1482  0.1057  0.0381
36079W        W39299  18.106   8.940   4.859 -0.3461 -0.2961  0.1359
36080W        W39300   1.853   0.134   1.986  0.0178  0.3721 -0.2199
36081W        W39301  12.262   4.830   6.505 -0.1725  0.1969 -0.0046
36082W        W39302   9.291  11.342   2.122  0.1066  0.0341  0.2191
36083W        W39303  13.231  11.603  10.623 -0.2208 -0.0856  0.0349
36084W        W39304   0.040   2.563   1.884 -0.0698 -0.1443 -0.1670
36085W        W39305  13.766  10.351   1.726 -0.0633 -0.6656 -0.2781
36086W        W39306  13.890   9.652   2.645  0.0163 -0.1004  0.0598
36087W        W39307   9.953  14.234  10.429 -0.1325 -0.0077  0.0835
36088W        W39308  11.846  10.049   7.168  0.0518  0.0508  0.2865
36089W        W39309  17.436  17.713   5.484 -0.0082 -0.3048 -0.0325
36090W        W39310   7.282  13.924  16.745 -0.1653 -0.1217 -0.0643
36091W        W39311  13.020  12.817  16.530  0.3749  0.1479 -0.0071
36092W        W39312  12.741  13.371   7.724  0.0987 -0.0459  0.0349
36093W        W39313  15.959   8.018  14.684  0.1809 -0.2652 -0.1474
36094W        W39314   6.580  10.995   5.298  0.2623 -0.2009  0.1026
36095W        W39315  16.689   1.659   1.970  0.0173 -0.1709  0.0360
36096W        W39316  17.683  13.248   3.694  0.1439 -0.2040  0.0641
36097W        W39317   8.879   6.124   1.058 -0.1734  0.0521  0.2159
36098W        W39318  14.270  15.677   9.510 -0.2273 -0.0330  0.0365
36099W        W39319  15.348  15.560   7.837  0.1793 -0.0045  0.0568
36100W        W39320  12.576  17.815   3.569  0.0832 -0.0769 -0.1733
36101W        W39321  12.377   1.204   6.144  0.2134  0.2002  0.2453
36102W        W39322   4.995  16.963  16.966 -0.0452  0.1855 -0.0825
36103W        W39323  15.561   9.424   5.830  0.2100 -0.2726  0.0877
36104W        W39324   9.712  14.839  10.527  0.0947  0.2461  0.0042
36105W        W39325  17.193   5.066  13.124  0.1806  0.1332 -0.2284
36106W        W39326  13.888   1.431   3.906 -0.0445  0.0669  0.2876
36107W        W39327  10.279  13.252  18.102 -0.0705  0.7480  0.0660
36108W        W39328  10.508   1.973   2.632 -0.2617 -0.0406 -0.3636
36109W        W39329  17.755  10.986  13.102 -0.0080 -0.1445 -0.0279
36110W        W39330  16.165   1.429   9.695  0.2479  0.0214 -0.0310
36111W        W39331  10.593  15.709  16.479 -0.1543  0.0095  0.1227
36112W        W39332  11.865  14.698   8.038 -0.0108 -0.0772 -0.5524
36113W        W39333   9.115  12.643  17.094 -0.0552  0.0094 -0.0551
36114W        W39334  16.287   9.013   6.294 -0.0115  0.1461 -0.2711
36115W        W39335  17.866  11.004   3.316  0.0108 -0.2039 -0.1626
36116W        W39336  15.509   1.026   8.287  0.1846 -0.0094  0.0820
36117W        W39337   4.197   5.642   6.866  0.2784 -0.1493 -0.0032
36118W        W39338  16.073  12.463   4.290  0.1434 -0.3427 -0.1347
36119W        W39339  15.702   7.912   3.522  0.0001 -0.0218  0.0628
36120W        W39340   3.291   7.681   9.247 -0.0379  0.0205  0.1744
36121W        W39341  10.475  16.131   4.660  0.1649  0.0065 -0.2057
36122W        W39342  13.351  15.599   7.683 -0.0502 -0.0577 -0.1093
36123W        W39343  17.359  10.295   3.778 -0.1098  0.2347  0.2026
36124W        W39344   9.784   7.098   7.318  0.2010 -0.2683 -0.0447
36125W        W39345  12.804   6.349  17.905  0.2510 -0.2919 -0.0306
36126W        W39346  10.362   8.959   7.351  0.0941  0.0644  0.0522
36127W        W39347   9.827  11.495   7.116  0.0077  0.1734  0.2145
36128W        W39348   0.924  11.065  10.087  0.0244  0.0906  0.0375
36129W        W39349  14.231  13.736   8.619 -0.1876 -0.1303 -0.1028
36130W        W39350  12.364  13.372  14.410 -0.0663 -0.4326  0.0413
36131W        W39351  15.179   8.670  10.778  0.1466  0.1903  0.2243
36132W        W39352  16.632  15.663   4.364 -0.0448  0.1088  0.0355
36133W        W39353  15.024   2.119   5.129  0.0873  0.4084 -0.0629
36134W        W39354   6.776  14.800   8.324  0.0435  0.0060  0.3708
36135W        W39355  12.052   6.563   1.387  0.1291  0.1651  0.1744
36136W        W39356  13.258   7.529   4.840  0.0433 -0.0079  0.0730
36137W        W39357  11.711  10.924   6.464  0.1376  0.0687  0.0995
36138W        W39358  14.907  11.563  16.433  0.3169 -0.2267  0.1153
36139W        W39359  11.310  17.057   5.378  0.0740  0.2691 -0.5081
36140W        W39360  17.453   8.578   3.950 -0.0265 -0.1334 -0.2370
36141W        W39361  12.597   5.337   3.203  0.3316 -0.2406 -0.1598
36142W        W39362  15.838  13.202  10.086  0.0182  0.1075  0.1385
36143W        W39363  10.920  11.139   3.946 -0.0992 -0.0223 -0.0847
36144W        W39364   1.792   3.748   4.588 -0.0938  0.2558 -0.1091
36145W        W39365   1.482   7.664   4.029 -0.1204 -0.1191 -0.0721
36146W        W39366   2.125   5.494   3.552  0.0496  0.0520  0.1149
36147W        W39367  13.250  17.313   6.085 -0.1851  0.1224 -0.2463
36148W        W39368   9.687   1.122  14.962 -0.0803  0.0836 -0.1023
36149W        W39369  16.525  13.635  10.140 -0.1847  0.1770 -0.0223
36150W        W39370  14.028   1.749   3.012  0.0277 -0.2707  0.2307
36151W        W39371   0.453   8.223   7.168 -0.0029 -0.0788 -0.1389
36152W        W39372  15.244  15.188  17.879  0.2479  0.0304  0.0863
36153W        W39373   1.366   9.911   9.084  0.0996  0.0465  0.1602
36154W        W39374   3.854  12.092   4.970 -0.1185  0.2147 -0.0979
36155W        W39375  13.035   9.482   5.895  0.1108 -0.1235  0.1176
36156W        W39376  14.591   0.592   7.932  0.1732  0.0992  0.2030
36157W        W39377  10.788  10.854   5.883 -0.4069  0.0628  0.0077
36158W        W39378  11.312   6.391   7.111 -0.1192 -0.0551  0.1047
36159W        W39379  12.404  12.684   5.748 -0.1632 -0.0409 -0.2220
36160W        W39380   1.107  10.245   5.943  0.1756 -0.1049  0.0529
36161W        W39381  13.431  17.010   9.484  0.0072  0.2837  0.0283
36162W        W39382  10.087   5.242  17.750 -0.0769 -0.0582 -0.3617
36163W        W39383   8.837  12.014   5.037 -0.2778 -0.2507  0.2573
36164W        W39384  16.221   7.910  15.624  0.0677 -0.0891  0.3425
36165W        W39385  13.259   8.866   3.828 -0.2128  0.2094  0.1376
36166W        W39386  14.137   0.990   4.536 -0.0611 -0.2419  0.0290
36167W        W39387  12.574   6.543   9.183  0.0283  0.1835  0.0700
36168W        W39388   8.085  16.086   3.528  0.0433  0.0494 -0.1512
36169W        W39389   8.660  17.758   6.680 -0.2490  0.0717 -0.0885
36170W        W39390   7.521   9.624   4.334 -0.0498  0.2578 -0.0669
36171W        W39391   3.082  14.147   0.633  0.1819 -0.3104  0.3513
36172W        W39392   8.303  15.311   7.404 -0.0592 -0.2171 -0.1012
36173W        W39393  16.731  11.401   1.773 -0.0099  0.1075  0.0847
36174W        W39394  15.900   9.194   2.452 -0.3044  0.1832 -0.2725
36175W        W39395  12.535  10.951  14.590  0.0452 -0.0741 -0.1875
36176W        W39396  16.896  16.019   7.845 -0.0070 -0.0421 -0.3224
36177W        W39397  10.243  15.420   8.622  0.1414 -0.0045  0.2958
36178W        W39398  17.438   9.292   5.635 -0.0213  0.1098 -0.0932
36179W        W39399   4.451   3.532  16.990  0.1178  0.0336 -0.1093
36180W        W39400   8.786  16.306   6.606 -0.0588 -0.4400  0.1184
36181W        W39401  17.496  12.160   7.136  0.1599  0.3963 -0.3645
36182W        W39402  13.443  14.636   4.155 -0.3157  0.2865  0.1162
36183W        W39403   0.458  12.313   7.654 -0.0505  0.0535 -0.1848
36184W        W39404   8.309  17.577   6.137 -0.1170 -0.3867  0.0635
36185W        W39405  14.845  13.022   1.605  0.0012  0.0451  0.0927
36186W        W39406   9.238  16.250   2.999 -0.0549  0.0837 -0.1671
36187W        W39407  13.456   9.499   5.609 -0.2353 -0.1409 -0.1995
36188W        W39408   8.836  11.436   6.764 -0.1234  0.1599 -0.2459
36189W        W39409  13.318   7.853   6.214  0.1378  0.2537 -0.0260
36190W        W39410  10.203   9.292   4.841 -0.4403 -0.0532 -0.1742
36191W        W39411   8.579   9.150   3.522 -0.1294  0.0328  0.0257
36192W        W39412   9.836  13.098   6.366  0.1279  0.2266 -0.1609
36193W        W39413  10.246  10.656   9.003  0.1241  0.3201  0.1515
36194W        W39414   7.073  15.915  10.171  0.1455 -0.3025 -0.3406
36195W        W39415  15.227  10.900  10.287 -0.3959 -0.2552 -0.1438
36196W        W39416  15.901  13.616   8.708  0.0137  0.1189 -0.1954
36197W        W39417   7.254  11.921   3.638 -0.2050  0.0016 -0.0109
36198W        W39418   0.274   5.916   5.053 -0.1709 -0.1036  0.4456
36199W        W39419  17.201  12.368  14.548 -0.1613  0.1041 -0.4880
36200W        W39420   9.702   0.176  17.400  0.1852  0.0258  0.3511
36201W        W39421   9.153   9.580  17.635  0.0820 -0.0253  0.1698
36202W        W39422  12.208  13.982   5.595  0.1391  0.1692 -0.2094
36203W        W39423   7.335  15.435  16.737 -0.1574  0.3003  0.1720
36204W        W39424  13.255  16.260   9.100  0.0950 -0.3067  0.1852
36205W        W39425   3.341  13.110   6.569  0.0214 -0.1725  0.0741
36206W        W39426  15.220   8.019   5.535  0.2026 -0.0994 -0.3233
36207W        W39427   6.174  10.541  14.653 -0.3729 -0.1666  0.0228
36208W        W39428  11.321  15.478   4.061 -0.1118  0.0377 -0.0902
36209W        W39429  16.176  12.362  12.107  0.0939  0.0872  0.0525
36210W        W39430   0.162  11.828   4.056 -0.4275  0.0182 -0.0982
36211W        W39431  14.665   9.290   8.085  0.2673 -0.0968 -0.2860
36212W        W39432  16.493   8.758   9.450  0.1824 -0.0222  0.0683
36213W        W39433   9.822  14.982  14.440  0.3451  0.3583  0.0583
36214W        W39434   8.136  13.430   2.343 -0.0433  0.0639  0.0554
36215W        W39435  14.145   8.868   0.838  0.0396 -0.2540  0.0730
36216W        W39436  15.098  10.600   0.772  0.2831 -0.0127 -0.1727
36217W        W39437  14.289  14.498   8.747  0.1285 -0.2086 -0.0837
36218W        W39438   5.295  14.575   5.984 -0.0735 -0.0937  0.0550
36219W        W39439  16.924   6.395   0.511  0.1411 -0.0917 -0.4205
36220W        W39440  13.113  11.534   1.240 -0.0530 -0.1997 -0.1167
36221W        W39441  17.447   0.866   4.965  0.0330  0.1607 -0.0391
36222W        W39442  10.923  10.904   4.917 -0.1499 -0.0773  0.0608
36223W        W39443  17.076  13.888  18.149 -0.0015  0.2419  0.0464
36224W        W39444  12.757  15.161  10.674 -0.0759  0.1506  0.0999
36225W        W39445  15.405  12.396  13.203  0.2820 -0.3722  0.3957
36226W        W39446  18.226  11.044  12.307 -0.1352 -0.0723  0.1116
36227W        W39447  13.828   9.864   8.853  0.0256  0.2749  0.0024
36228W        W39448  10.771  14.817   8.018 -0.2111 -0.3388  0.2074
36229W        W39449  15.580   7.751   5.405 -0.3169  0.2879 -0.0879
36230W        W39450  10.857   7.040   3.235  0.1263 -0.1567 -0.0377
36231W        W39451  12.192  11.567   8.307 -0.0163  0.1773  0.1192
36232W        W39452  13.923   0.455   8.864  0.0009 -0.1610 -0.0804
36233W        W39453  11.629  10.887   7.806 -0.0494 -0.2110  0.0634
36234W        W39454  13.510   7.422   4.211 -0.1363  0.0724  0.1335
36235W        W39455  16.042  14.831   7.588  0.0086  0.2130 -0.0613
36236W        W39456  17.205  16.828   6.481 -0.1419  0.2328  0.1543
36237W        W39457   0.412   1.302   5.053 -0.0347 -0.0785  0.1292
36238W        W39458  16.704  13.231   2.746 -0.2516  0.1761 -0.0502
36239W        W39459  16.411   8.914  14.381  0.0720 -0.1281  0.3750
36240W        W39460   0.384   9.171   7.076  0.0598 -0.3853 -0.1212
36241W        W39461  12.404   9.707   4.474 -0.1369  0.2550 -0.0897
36242W        W39462   6.762   6.797   9.742  0.1153  0.0211  0.2725
36243W        W39463  14.347  14.029  16.453  0.2063  0.1774 -0.1107
36244W        W39464  15.397   6.082   4.008  0.3319  0.0144  0.0675
36245W        W39465   8.019  12.289   5.191  0.0061  0.0458 -0.3640
36246W        W39466  16.937   2.116   2.029  0.0560 -0.2518  0.3002
36247W        W39467  13.281   4.151   1.734  0.0853 -0.0172 -0.4330
36248W        W39468   9.295   3.204   8.474  0.1130  0.3986 -0.1455
36249W        W39469  10.524  10.201   5.349 -0.1665 -0.0356  0.1312
36250W        W39470  15.762   1.968  14.169 -0.2061  0.1642  0.5996
36251W        W39471  16.960   8.070  10.316  0.4053  0.3222 -0.0740
36252W        W39472  10.366  16.260   6.879  0.1847  0.0192  0.0251
36253W        W39473   6.326  14.674   8.125 -0.2224 -0.0568 -0.0268
36254W        W39474  12.557  18.084   9.241  0.1155 -0.1418  0.2001
36255W        W39475  10.136  15.834  16.335 -0.0826 -0.0468 -0.0880
36256W        W39476  11.630   0.921   2.746 -0.1307 -0.1055 -0.1061
36257W        W39477  11.267  11.401  13.000 -0.0573  0.3658  0.2888
36258W        W39478  12.002  15.740   3.966 -0.1685  0.2185 -0.0610
36259W        W39479  14.219   9.202  11.829  0.0542  0.2208  0.0034
36260W        W39480   1.152  16.889  12.001  0.0774  0.1321  0.2891
36261W        W39481   9.486   9.318  11.335  0.4183  0.2697  0.1367
36262W        W39482   3.344   2.333   5.288  0.0134  0.1978 -0.3439
36263W        W39483  13.101  14.586   6.800 -0.5200 -0.1733 -0.1592
36264W        W39484   8.086   0.181  11.534  0.2178  0.0375  0.1481
36265W        W39485   4.835  14.351   4.902  0.0947  0.0930  0.2663
36266W        W39486   0.646  11.592   6.257  0.0826  0.4208 -0.0453
36267W        W39487  14.809   9.976   9.406 -0.1687  0.0947  0.0993
36268W        W39488  14.003   1.150   7.351  0.0174 -0.0021  0.3338
36269W        W39489   9.997   2.226   2.823  0.0315 -0.2519  0.0202
36270W        W39490   9.824   8.962  11.266 -0.1054 -0.0098  0.0395
36271W        W39491  15.048   6.814   4.488  0.2252  0.0439 -0.1074
36272W        W39492  14.138   7.957   8.860 -0.2182  0.1925 -0.4344
36273W        W39493  12.743   7.196  13.103 -0.3977  0.1140 -0.0285
36274W        W39494   9.495  14.546  13.904  0.3342 -0.0612 -0.1053
36275W        W39495   5.193   0.756   5.167  0.3118 -0.0881  0.1262
36276W        W39496  13.154  10.473   7.747  0.0011  0.0143  0.2022
36277W        W39497  16.208   5.902   8.895 -0.1663 -0.1946 -0.1159
36278W        W39498   5.633   3.062   9.065 -0.2983  0.1473  0.1365
36279W        W39499  11.438  11.656  10.849  0.0780  0.1188  0.1210
36280W        W39500  11.367  18.180  10.536 -0.2789 -0.3110 -0.2242
36281W        W39501  13.508   8.675  11.427  0.0761 -0.0263 -0.0214
36282W        W39502  11.304  16.132   7.835  0.1881 -0.2371 -0.0391
36283W        W39503   9.156   3.150   7.508  0.2912 -0.0618  0.1117
36284W        W39504   5.019  12.667  10.037  0.2468 -0.1536  0.2508
36285W        W39505  15.534  13.224  10.594  0.2072 -0.2717 -0.1328
36286W        W39506  10.342  17.982   9.339  0.0542  0.2492  0.1348
36287W        W39507   2.324   9.010   8.968  0.0824  0.0479  0.3160
36288W        W39508   0.093  15.360  17.715  0.1007  0.0665  0.0098
36289W        W39509   8.047   0.504   3.790  0.2555 -0.1050 -0.2149
36290W        W39510  14.904  17.504   7.854  0.0556 -0.1158 -0.3534
36291W        W39511  15.573   1.649   9.076  0.0285  0.0689 -0.0242
36292W        W39512  15.336   8.640  10.283 -0.1178  0.1931  0.1059
36293W        W39513  16.484  17.920   8.303  0.1561  0.0250  0.0776
36294W        W39514   3.000   5.209   9.612  0.1254  0.1233  0.1475
36295W        W39515  13.256   9.766   1.493  0.0782 -0.1623  0.0573
36296W        W39516  12.929   8.947   8.363 -0.3852  0.1123  0.0140
36297W        W39517   6.981  15.958   3.779 -0.0291  0.1344 -0.1395
36298W        W39518  14.002   0.328   1.244  0.1884  0.2008 -0.2095
36299W        W39519   3.944  10.771  15.581 -0.0913  0.3406 -0.0852
36300W        W39520  15.382   9.854  10.562 -0.0881  0.1124  0.1574
36301W        W39521   5.913  14.936   8.443  0.1416 -0.4558  0.0950
36302W        W39522  11.102   5.800   5.684  0.0009  0.1555  0.1293
36303W        W39523   9.743  11.508   5.151 -0.1431 -0.3460 -0.1148
36304W        W39524  13.081  16.309   6.011 -0.1632 -0.0520 -0.0245
36305W        W39525  11.169  14.195  11.275  0.0937 -0.0125  0.0383
36306W        W39526   2.144  12.713   7.656  0.2270 -0.1668 -0.0599
36307W        W39527   8.953   5.392   6.067 -0.4509 -0.0014 -0.1923
36308W        W39528   2.932  16.547   5.468 -0.2813 -0.0272 -0.1078
36309W        W39529   8.761  15.400   8.211 -0.0511 -0.0654  0.2140
36310W        W39530  12.848   7.994   8.773 -0.2808  0.0973  0.2008
36311W        W39531  14.662  14.790  16.320  0.1668 -0.0121 -0.0058
36312W        W39532   9.105   7.888   4.498 -0.3454  0.3474 -0.0613
36313W        W39533  14.142  17.280   8.031  0.0139  0.1186  0.2850
36314W        W39534  18.118   6.164  10.214 -0.1711  0.1229  0.0289
36315W        W39535  17.684  17.415   8.604  0.1960  0.1495 -0.1467
36316W        W39536  16.642   6.234  11.569  0.3234  0.0832 -0.0761
36317W        W39537   2.583  15.057   6.376 -0.3062 -0.0952  0.2848
36318W        W39538  13.213  14.602  14.853 -0.1204  0.2600 -0.0102
36319W        W39539   5.972  13.668   3.947 -0.1745  0.1142 -0.0840
36320W        W39540  17.182  17.849   1.797 -0.0177 -0.0750 -0.2520
36321W        W39541  18.225  11.464   6.855  0.3140 -0.1044 -0.4666
36322W        W39542  12.229  18.029   3.231  0.1230 -0.3085 -0.0199
36323W        W39543  13.476  12.693  15.888 -0.1483 -0.1033  0.0276
36324W        W39544   6.321   0.324   6.170 -0.2245 -0.0411 -0.0833
36325W        W39545  11.039  15.356   7.111 -0.2620  0.1735 -0.1205
36326W        W39546   0.406  10.640  16.027  0.2053 -0.1468 -0.1684
36327W        W39547  10.419   7.649  16.334 -0.1618 -0.1473  0.0305
36328W        W39548  10.949  13.392   6.431  0.0524 -0.0300 -0.0796
36329W        W39549  17.765  18.151  12.397  0.2315 -0.1366  0.0475
36330W        W39550  10.592   7.768   8.074 -0.2273 -0.1189  0.0884
36331W        W39551  14.957  14.519  14.576  0.1695 -0.0458  0.0462
36332W        W39552  11.720  15.399  14.553  0.0886  0.1000  0.0241
36333W        W39553   8.762   8.339  17.109  0.1734  0.1850 -0.0645
36334W        W39554  12.244   5.808  14.336  0.0646 -0.2038 -0.2199
36335W        W39555   8.850  16.002   4.069 -0.4338 -0.1710  0.2860
36336W        W39556  16.484  13.937  13.415 -0.4383  0.1013 -0.0377
36337W        W39557  13.176   8.476   9.672 -0.1641 -0.5232 -0.0899
36338W        W39558   1.719  18.169  13.419  0.0693  0.0236  0.3116
36339W        W39559  13.058  12.826  13.571 -0.0923  0.0894 -0.1012
36340W        W39560  11.438  14.434  10.768  0.0985 -0.1678 -0.2250
36341W        W39561  12.248  16.072  12.853 -0.1686  0.1526 -0.0721
36342W        W39562   0.214   8.100  13.974  0.4120 -0.1211 -0.0722
36343W        W39563  13.641  12.927  14.940  0.0701 -0.2591  0.1813
36344W        W39564   7.779  13.187   9.644 -0.0657 -0.0638 -0.0594
36345W        W39565  13.946  10.900   0.576  0.1781 -0.1334 -0.0631
36346W        W39566  17.044   7.901   7.439  0.3479 -0.1178  0.0794
36347W        W39567  15.308   1.107  11.574  0.0265 -0.1808 -0.0579
36348W        W39568   9.071  11.715   7.801 -0.0600 -0.1043 -0.0990
36349W        W39569  17.500  15.695   4.696 -0.3921  0.3067  0.2366
36350W        W39570  14.460  10.875   6.106  0.1070 -0.0698  0.0756
36351W        W39571  16.804  13.596  12.660  0.0289  0.0085 -0.1549
36352W        W39572  16.668  14.516   6.818 -0.0664  0.1391 -0.1475
36353W        W39573  11.754  16.948   4.919  0.0008 -0.1282  0.3409
36354W        W39574   8.908  14.317  10.537  0.0131  0.1575 -0.2664
36355W        W39575  12.460  10.310  15.405 -0.0978  0.1189 -0.0975
36356W        W39576  12.389  16.426   8.426 -0.0234 -0.1048 -0.1175
36357W        W39577  17.193  13.596   4.978 -0.0310  0.1292 -0.0298
36358W        W39578  14.065  11.323  11.770  0.0671 -0.1569  0.1037
36359W        W39579  14.426   4.806   9.143 -0.2121 -0.2167 -0.1145
36360W        W39580   0.340  11.117   5.005 -0.2480 -0.1291 -0.0228
36361W        W39581  10.440  10.082  11.098  0.2798 -0.1575  0.1415
36362W        W39582  16.052  11.110   9.589 -0.1126  0.1421 -0.3439
36363W        W39583  16.909   1.660   8.843 -0.0628 -0.1899 -0.1827
36364W        W39584  13.829  12.337  15.959 -0.0705  0.0008  0.1430
36365W        W39585   9.959  15.389   5.164 -0.2869  0.1399  0.2046
36366W        W39586   8.932  10.926   4.803 -0.3825  0.2610  0.2816
36367W        W39587  15.279  13.564   1.838  0.0945 -0.0250  0.2518
36368W        W39588  15.669  10.746   7.490  0.0923 -0.1652  0.1189
36369W        W39589   9.522   2.966   7.784 -0.3102 -0.1417 -0.2077
36370W        W39590   2.157  16.373   2.265  0.0123 -0.1140 -0.0802
36371W        W39591  17.850   9.531   8.907  0.3578  0.0091  0.1947
36372W        W39592   9.351   2.289  12.718 -0.1907  0.0777  0.1197
36373W        W39593  14.590  10.454   3.794  0.0131 -0.1747  0.1256
36374W        W39594  17.891  12.309  11.707  0.4196  0.0658  0.0441
36375W        W39595   6.527  12.500  15.907 -0.0763  0.2215  0.2447
36376W        W39596  14.973   8.045   1.937  0.2642 -0.2185  0.0034
36377W        W39597  13.261  12.317  17.778  0.1231  0.2996 -0.0193
36378W        W39598   1.361   7.742  11.449  0.0353 -0.3209 -0.0916
36379W        W39599  17.106  14.802   6.454  0.0815 -0.1554 -0.0083
36380W        W39600   0.107  15.708   4.867 -0.1076 -0.2337  0.0739
36381W        W39601   8.856  16.858   2.263 -0.2828  0.1471 -0.0013
36382W        W39602   9.624  15.426   6.788 -0.2695 -0.1296 -0.0037
36383W        W39603   2.048  10.085   2.959  0.2003  0.1533  0.0527
36384W        W39604  12.636   8.678  16.760 -0.3308  0.0568  0.1333
36385W        W39605  10.569   7.093   6.919 -0.3529 -0.1180  0.3218
36386W        W39606  10.993  15.178   9.831  0.1524 -0.0428 -0.0548
36387W        W39607  11.091  16.566  12.622 -0.0953  0.0234 -0.1269
36388W        W39608   9.159  12.113  13.481 -0.0649  0.0019  0.1215
36389W        W39609  12.400   6.892  14.945  0.0128  0.1452 -0.1002
36390W        W39610  15.519  14.458   8.078 -0.0603 -0.1316  0.0923
36391W        W39611  10.175  12.709   6.529 -0.0294 -0.1686 -0.1594
36392W        W39612  10.980  15.410   4.903  0.1900 -0.0013  0.1761
36393W        W39613   9.846  16.492   6.231 -0.1462  0.3146 -0.2538
36394W        W39614  12.318  15.322   9.281  0.0103 -0.1149 -0.1887
36395W        W39615   9.369  16.356   7.805 -0.0377 -0.1780 -0.1717
36396W        W39616  11.434  15.916   6.076 -0.0884 -0.0175  0.0707
36397W        W39617   9.608   9.760   7.181 -0.2596 -0.1597  0.0709
36398W        W39618   2.540   8.552  15.597 -0.0198 -0.0033 -0.2399
36399W        W39619   4.591   1.012   7.599 -0.1776 -0.1946 -0.1721
36400W        W39620  14.997   9.956   3.112  0.1952 -0.1836  0.1726
36401W        W39621   9.699  14.430   6.490 -0.3542 -0.0646  0.0779
36402W        W39622  17.507  12.713   8.658 -0.0701  0.1505  0.2052
36403W        W39623   7.163  15.634  14.324  0.1012  0.1062 -0.0004
36404W        W39624  11.102  15.312  10.718 -0.3349 -0.1498 -0.0309
36405W        W39625  13.462  17.598  13.802  0.1467 -0.1668  0.3368
36406W        W39626   9.876  14.286   7.927  0.1747 -0.2154  0.0013
36407W        W39627   2.287  13.576   9.239 -0.1168  0.2450  0.0537
36408W        W39628  14.493  11.105   3.769 -0.1074  0.0789 -0.1159
36409W        W39629   0.280   9.344   1.409 -0.1105  0.2124 -0.2012
36410W        W39630  15.863   9.441  14.295  0.0805  0.0066  0.0368
36411W        W39631  13.549   9.382   9.605 -0.0905 -0.0999  0.0124
36412W        W39632  15.672   7.162   9.135  0.0036 -0.0662  0.1128
36413W        W39633   6.530  17.523   7.666 -0.0846  0.3038  0.1770
36414W        W39634   0.840  12.581  11.495 -0.0168 -0.3558 -0.0278
36415W        W39635  14.678  13.211  16.135  0.2447  0.1217  0.2474
36416W        W39636  14.158  13.395  12.016  0.1539  0.0110 -0.3152
36417W        W39637  10.016  15.429   9.840 -0.2270  0.2141 -0.1883
36418W        W39638  13.113  12.166   4.130 -0.1040  0.0179 -0.2399
36419W        W39639  15.189  14.220  15.063  0.2456  0.2716 -0.3090
36420W        W39640   8.495  14.695  11.158  0.0306 -0.1121  0.3463
36421W        W39641  13.972  12.030   5.595  0.0214  0.2123 -0.0327
36422W        W39642   8.720  12.996   3.038 -0.0711 -0.0002  0.0285
36423W        W39643  15.414   5.908   5.191  0.2593 -0.1399 -0.0154
36424W        W39644  17.302  11.626   3.427 -0.0315  0.2115  0.0636
36425W        W39645  13.590   6.525   5.613 -0.1722 -0.1987  0.0460
36426W        W39646   8.772  12.485   9.805  0.1847  0.3067  0.1244
36427W        W39647  14.373  13.336  12.482  0.1536  0.2930 -0.4331
36428W        W39648   5.120  16.013   0.317 -0.0647 -0.2500 -0.2687
36429W        W39649  12.095  13.692   4.595 -0.1287 -0.0389  0.0097
36430W        W39650   6.180  14.680   7.197  0.2581  0.0456 -0.0249
36431W        W39651  10.446  18.072   8.585  0.1306 -0.0881  0.3318
36432W        W39652  13.537  10.447   9.379  0.1626  0.0413  0.1595
36433W        W39653  12.233  14.013   1.235 -0.0203  0.0059  0.0549
36434W        W39654  15.322  17.928   8.788  0.2204  0.1476  0.0246
36435W        W39655  12.788  10.325  12.031  0.2916 -0.1121  0.1534
36436W        W39656   3.023  12.253  11.986  0.0644 -0.1368  0.1651
36437W        W39657  13.389  12.710  10.380  0.1749  0.0030 -0.0104
36438W        W39658  12.627  14.913   1.630  0.0383 -0.3034 -0.1915
36439W        W39659  10.755  15.628   8.297  0.2111 -0.1557  0.2375
36440W        W39660  14.600  13.102  10.894  0.2477  0.1926  0.1473
36441W        W39661   7.465   7.798  15.499 -0.0594  0.0713 -0.1444
36442W        W39662   8.095  16.473   9.241 -0.1197  0.1629 -0.1403
36443W        W39663   0.948  12.844  10.590 -0.3718 -0.2064 -0.1308
36444W        W39664   0.927  13.713  10.309  0.1119 -0.2205  0.0617
36445W        W39665   8.285   6.942   6.218  0.1676  0.2748 -0.2791
36446W        W39666   7.365  10.911   5.579 -0.3523  0.0478 -0.2513
36447W        W39667  14.492   7.750   6.243 -0.1603 -0.1757 -0.0071
36448W        W39668  13.370  17.517   9.151 -0.1066 -0.0357  0.0869
36449W        W39669  13.044   0.220   5.119  0.0751 -0.3073  0.2464
36450W        W39670   2.025   8.107  12.686  0.0026  0.0531 -0.2539
36451W        W39671  10.149  10.052   8.451  0.3699 -0.0039  0.1026
36452W        W39672  15.247  13.130   6.563  0.0932  0.0502 -0.1146
36453W        W39673  15.315  12.963   7.120  0.0954  0.0463 -0.0960
36454W        W39674   9.081  16.076  11.715 -0.1555 -0.2794 -0.1015
36455W        W39675  16.348  16.284  15.976 -0.0241  0.2747  0.0779
36456W        W39676  15.233  14.815   9.876 -0.1084  0.0380  0.2300
36457W        W39677  11.114  17.010   2.914  0.2879 -0.3282 -0.1907
36458W        W39678  12.289   8.887   6.300  0.1612  0.0929 -0.0579
36459W        W39679   4.001  10.494  14.321 -0.1142 -0.1901 -0.1300
36460W        W39680  16.776  13.983  16.935  0.5498  0.0057  0.1298
36461W        W39681   2.340   3.116  12.367  0.1738  0.3445  0.2707
36462W        W39682  13.533   7.123  10.088 -0.3663  0.2177 -0.2682
36463W        W39683  16.149   7.821   9.560 -0.0617  0.0789 -0.0933
36464W        W39684   7.220  11.194   6.498 -0.1719  0.0591 -0.0550
36465W        W39685  14.014  12.865  15.653 -0.0032  0.2039 -0.1511
36466W        W39686   4.947  11.727  10.270  0.0424 -0.0206 -0.1271
36467W        W39687  12.241   2.391  14.410 -0.0856 -0.0529 -0.1467
36468W        W39688  12.548  16.455  13.979 -0.0434  0.0612  0.1272
36469W        W39689  11.243  13.884   9.257 -0.0059  0.1018  0.2233
36470W        W39690  11.684   6.832   8.016  0.2647  0.2285  0.1071
36471W        W39691  10.692  11.178   9.875 -0.1882  0.0391 -0.2753
36472W        W39692  16.619  13.003   4.008 -0.0869 -0.1562 -0.0744
36473W        W39693  16.486  13.824   2.829 -0.1527  0.1007 -0.2540
36474W        W39694  11.176   5.747   7.632 -0.1750 -0.1956 -0.1456
36475W        W39695  11.581  10.369   3.656 -0.3706 -0.2523  0.0880
36476W        W39696  12.299   5.808   9.449  0.2822 -0.1313 -0.2695
36477W        W39697  13.997  16.842  12.748  0.0344  0.0480 -0.0336
36478W        W39698  13.457  15.363   5.504  0.1420 -0.0978  0.1915
36479W        W39699  12.867  11.070  14.918  0.0153  0.0290 -0.0265
36480W        W39700   3.670  17.348  15.239 -0.2597  0.0377  0.1027
36481W        W39701   7.757   1.956   1.358  0.1643  0.0440 -0.0190
36482W        W39702  12.501  10.277   9.952 -0.2715 -0.0725 -0.1978
36483W        W39703  14.258  17.235   5.966 -0.2435 -0.2115  0.0922
36484W        W39704   9.910  14.292   7.299 -0.0248 -0.0032 -0.0727
36485W        W39705  10.247  13.495   8.199 -0.3533  0.0478  0.0497
36486W        W39706  17.195  16.714  14.103  0.2069 -0.1026 -0.3484
36487W        W39707   4.410  13.395   2.775 -0.1665  0.1778  0.1619
36488W        W39708   5.944  14.895  17.643  0.2440  0.0785 -0.1400
36489W        W39709  15.614  10.495  12.944  0.0823  0.1530 -0.1730
36490W        W39710  11.476  12.749  11.806  0.0733 -0.1197 -0.0349
36491W        W39711   5.413  17.106   9.041  0.2584  0.2316  0.3410
36492W        W39712  18.255   8.382   7.929 -0.0453  0.3591 -0.0128
36493W        W39713   5.013  16.797   9.610  0.2322 -0.0791 -0.0182
36494W        W39714  11.198  14.304   9.800  0.0498 -0.0907 -0.0424
36495W        W39715  12.176   4.679  10.554  0.1441  0.0250  0.0794
36496W        W39716  17.999   5.828   9.258 -0.2022 -0.0770  0.3091
36497W        W39717  13.979   8.641   4.532 -0.1814  0.0684  0.3951
36498W        W39718  11.292  11.610   7.523 -0.3740  0.3459  0.2347
36499W        W39719  14.835  10.208  13.430  0.2302  0.1308 -0.1519
36500W        W39720   1.050  13.642  10.853 -0.0638 -0.1537  0.2344
36501W        W39721  10.970   9.606  16.686  0.0942  0.1101 -0.1207
36502W        W39722  16.196  12.315   0.132  0.2684  0.0910 -0.0548
36503W        W39723   9.122  13.213   4.756  0.0915 -0.0866 -0.0734
36504W        W39724   3.873  11.941  10.590 -0.1515  0.1172 -0.0670
36505W        W39725  11.858  16.594   6.162 -0.1409  0.2056  0.0794
36506W        W39726  10.295  16.337   9.897  0.0672  0.1487  0.0098
36507W        W39727  15.929  15.058   6.929 -0.2164  0.1983  0.0395
36508W        W39728   9.744  11.019   6.861  0.2549 -0.1739  0.2741
36509W        W39729   3.339   4.943   3.945 -0.1433 -0.1361  0.2999
36510W        W39730  16.374   5.325   7.553  0.0024  0.1198  0.1890
36511W        W39731  12.752  10.734   7.491  0.1248  0.1069  0.1839
36512W        W39732  11.543  13.745  15.142  0.0921 -0.3604  0.2311
36513W        W39733   0.658  12.069  12.789 -0.0128  0.1224  0.1952
36514W        W39734  14.158  10.231  10.947 -0.0085  0.1925  0.2824
36515W        W39735  16.238  17.386  16.760 -0.1628 -0.1474  0.3719
36516W        W39736  13.111  10.092  10.385  0.0600 -0.3072 -0.0733
36517W        W39737   8.816  17.555   2.140  0.0306  0.1117 -0.0204
36518W        W39738   6.944  13.976   7.064 -0.2547  0.1837  0.1959
36519W        W39739  15.796  13.955  10.711  0.0368 -0.2886  0.1570
36520W        W39740  12.054  10.477   6.301  0.0081 -0.0698  0.1388
36521W        W39741   8.206  13.760  13.974  0.0255 -0.0375  0.2949
36522W        W39742  12.556  12.372   8.157  0.0067  0.2062  0.2574
36523W        W39743   2.674  10.065   8.666  0.0920 -0.1846  0.2469
36524W        W39744  11.453  13.800   9.749  0.0445 -0.0785 -0.2678
36525W        W39745  10.872   9.073  11.233 -0.2622 -0.0043  0.0016
36526W        W39746   8.004   4.707  15.354 -0.2464 -0.0672  0.0922
36527W        W39747  12.138  15.352   6.328 -0.1664  0.1931 -0.0347
36528W        W39748  15.392   8.789   8.959 -0.2001 -0.1709 -0.0859
36529W        W39749  14.120   7.325   4.235  0.1014  0.0755  0.2951
36530W        W39750  12.031   8.119  17.251  0.0763 -0.0102  0.1193
36531W        W39751   8.924  12.047   1.181 -0.1843 -0.4336 -0.0229
36532W        W39752   9.615  16.404   9.691  0.3031 -0.1928  0.2636
36533W        W39753  16.341   7.898   9.093 -0.0896 -0.1600 -0.0740
36534W        W39754   2.107   1.339  14.169  0.2639  0.2218 -0.1610
36535W        W39755  11.438  16.082  13.090 -0.4562 -0.2081  0.3130
36536W        W39756  18.180  12.982   4.246 -0.1414 -0.0140 -0.1987
36537W        W39757   6.274   7.115   4.478  0.1819 -0.0564 -0.1197
36538W        W39758  17.710  12.041  15.407 -0.0537  0.2375  0.2753
36539W        W39759  13.766  12.861  14.191 -0.0730 -0.1960  0.0084
36540W        W39760  11.492  13.428  13.758 -0.1064 -0.2244 -0.0309
36541W        W39761  13.042   9.918  13.737  0.1994 -0.0690 -0.1135
36542W        W39762  13.740  13.816  12.177  0.0703 -0.2373 -0.1047
36543W        W39763  12.478   5.451  10.897 -0.3223 -0.3525  0.0643
36544W        W39764  12.864  15.520   9.309 -0.0101 -0.1175  0.2202
36545W        W39765  13.616   5.197   3.001  0.4119  0.0179 -0.3288
36546W        W39766  11.442   7.257   1.004  0.3063 -0.3740  0.0336
36547W        W39767   5.729  18.066   2.528  0.2083 -0.1512 -0.3057
36548W        W39768   9.920  16.397   3.538 -0.1705 -0.0889  0.0642
36549W        W39769  12.046  12.367   6.073  0.2552  0.2529  0.1235
36550W        W39770   0.745  17.568  18.161 -0.3760 -0.1911 -0.1872
36551W        W39771  17.257   3.652   9.676  0.0144  0.0424  0.1000
36552W        W39772  12.825  17.337   3.208  0.2045  0.0508  0.1747
36553W        W39773   6.105  10.199  17.577  0.1293 -0.3706 -0.1006
36554W        W39774  12.181  11.388   9.775 -0.0027  0.2540  0.1106
36555W        W39775  18.131  15.627   9.932  0.0533 -0.3891  0.0176
36556W        W39776  11.997  10.856   9.835 -0.2339  0.0679  0.3197
36557W        W39777   0.122  16.415  16.445 -0.1710  0.1842  0.0462
36558W        W39778   6.509  17.648  11.086 -0.1204  0.0024  0.2023
36559W        W39779  13.239   0.033  15.408  0.0849  0.0061  0.1073
36560W        W39780  16.256  11.632  12.288  0.0152  0.0726  0.0925
36561W        W39781   9.096  15.889   7.911 -0.1365 -0.0083 -0.3166
36562W        W39782   2.937  14.638   4.541 -0.1847 -0.1704  0.2768
36563W        W39783  14.843   5.789   7.752  0.0414 -0.2113 -0.1558
36564W        W39784  11.039   3.734  11.524  0.0241 -0.0176 -0.0070
36565W        W39785   8.732  12.828   6.927 -0.2062 -0.0721  0.0831
36566W        W39786  12.458  11.332   4.555  0.3485  0.0713  0.2442
36567W        W39787   2.187   4.377   2.460  0.0685  0.3090  0.0353
36568W        W39788  10.513   5.075  11.762 -0.1414  0.3647 -0.1926
36569W        W39789  16.900   7.562   6.829  0.4016  0.0065  0.0445
36570W        W39790  15.678   4.743  14.551  0.0987 -0.1331 -0.2152
36571W        W39791  12.641  13.848   9.100  0.2393  0.1282 -0.0187
36572W        W39792  10.779   7.797  14.001 -0.0955 -0.0488  0.1625
36573W        W39793  10.239  10.224   9.347 -0.1044 -0.1033  0.1678
36574W        W39794  15.704   0.200  10.246 -0.0005 -0.0387 -0.0720
36575W        W39795  17.397  13.964  14.039  0.0343 -0.0634  0.0024
36576W        W39796   6.626  11.830  11.404  0.2703 -0.1939 -0.0252
36577W        W39797  14.989   0.704   3.028 -0.1158 -0.0699 -0.1689
36578W        W39798   5.147  16.616  11.517  0.0793  0.0059  0.3652
36579W        W39799   9.425  16.279  11.427 -0.0641 -0.1516  0.1796
36580W        W39800  15.954   7.462   8.888 -0.0694  0.0566 -0.1043
36581W        W39801   5.437  16.090  14.309  0.1209 -0.0917 -0.0315
36582W        W39802  11.688   7.519  10.376  0.0668 -0.1207 -0.1223
36583W        W39803   8.436   5.787   9.550  0.1289  0.1535  0.5019
36584W        W39804  14.410   1.078   9.302  0.1728  0.0969 -0.1438
36585W        W39805  13.063  13.739   5.806 -0.2179 -0.0114  0.0186
36586W        W39806  13.041  14.243   6.015  0.0186  0.2061  0.1339
36587W        W39807  15.263   8.807   4.216 -0.4348  0.1172  0.2862
36588W        W39808  10.144  11.414  11.505 -0.0465  0.0431  0.2191
36589W        W39809  13.676   3.967   4.848 -0.0283  0.0609 -0.2475
36590W        W39810   7.879  15.100  13.916  0.1062  0.1058 -0.0760
36591W        W39811  17.880  14.902   8.473 -0.2252  0.1520 -0.0547
36592W        W39812  11.706   4.035   4.160 -0.2435  0.3049 -0.2126
36593W        W39813  11.734   0.690   6.330  0.1246  0.0348 -0.2277
36594W        W39814  11.263   0.733  11.232 -0.0865  0.1956  0.2015
36595W        W39815  16.445  10.190  13.274 -0.1140  0.1383 -0.0782
36596W        W39816   5.370  12.219   9.377  0.0852  0.1937 -0.3956
36597W        W39817  15.688  10.356  11.322 -0.1032 -0.1960 -0.3840
36598W        W39818  10.220  15.304  10.576  0.1544  0.1630 -0.2098
36599W        W39819  10.761  10.925   0.042  0.1338 -0.1888 -0.0978
36600W        W39820  12.337  11.627   6.250  0.4363 -0.2109 -0.0416
36601W        W39821  14.065  10.478  11.393  0.0013  0.3028  0.1453
36602W        W39822  10.692  15.717   9.204 -0.1527  0.0022  0.3636
36603W        W39823  11.995  13.000  12.538 -0.0049  0.0602 -0.1692
36604W        W39824  16.135  10.559  11.413 -0.1288 -0.1823  0.1811
36605W        W39825   0.499   7.485   7.182  0.1506 -0.0184  0.0154
36606W        W39826  16.686  15.273   5.464  0.2350 -0.0494 -0.1338
36607W        W39827   8.283  13.191   7.971  0.3523  0.0754 -0.6019
36608W        W39828  13.767  14.265   0.193  0.2002  0.2503 -0.2113
36609W        W39829  15.643  11.154   4.946  0.0548 -0.3375 -0.2188
36610W        W39830  12.056   5.596  13.541 -0.4310  0.2285 -0.1747
36611W        W39831  15.158  14.979   5.638 -0.0446  0.2231  0.1423
36612W        W39832  14.127  16.570  10.672 -0.4433 -0.2049  0.0533
36613W        W39833  15.091  14.578   7.866 -0.3805  0.1386 -0.2780
36614W        W39834  11.264   9.545   9.270  0.0243 -0.2422  0.1033
36615W        W39835  15.781  14.162  16.005 -0.0516 -0.1202 -0.1906
36616W        W39836   7.740  17.414   6.147 -0.0159  0.0672  0.1410
36617W        W39837   7.879   0.278  11.016 -0.0711 -0.0314 -0.0735
36618W        W39838   9.920  15.889   9.564  0.1474 -0.1535  0.1417
36619W        W39839  16.383   6.080   5.592  0.0208  0.0588  0.0185
36620W        W39840  14.937   9.668  14.615 -0.1187  0.2275  0.3384
36621W        W39841  17.804  11.440  11.952 -0.1638 -0.1444  0.0275
36622W        W39842  12.689  13.602  11.424  0.2460  0.1753 -0.0019
36623W        W39843  11.712   0.079  16.601 -0.2227  0.1008  0.0416
36624W        W39844  11.697   9.315   9.461  0.0658  0.0417  0.0509
36625W        W39845   8.063   8.074   5.050  0.0008 -0.2355  0.2369
36626W        W39846   2.172  13.901   8.257  0.0256 -0.0444  0.1403
36627W        W39847   7.930   7.380  13.563 -0.0200 -0.1393 -0.2984
36628W        W39848   8.612  11.804   4.474  0.1966  0.0255  0.1275
36629W        W39849   0.742  12.985  13.933  0.0175  0.0032 -0.1527
36630W        W39850  11.015  17.773  15.295  0.0371 -0.0652  0.0625
36631W        W39851  13.736  12.255  10.816 -0.1674 -0.1287  0.2483
36632W        W39852  14.658  10.424   9.393  0.2185 -0.0506  0.1862
36633W        W39853   5.065  17.537  11.424  0.0129 -0.1452 -0.2965
36634W        W39854  16.649  11.409   9.581  0.1383 -0.0919 -0.2291
36635W        W39855   8.602  11.811   2.093 -0.1764 -0.2342 -0.0480
36636W        W39856  15.941  16.140  16.962 -0.0685 -0.1466  0.2562
36637W        W39857   4.612  15.184   8.537 -0.1547  0.1317 -0.0172
36638W        W39858  11.186  12.018  11.207  0.1820 -0.1243  0.0722
36639W        W39859   0.685  10.089  12.969 -0.2897  0.1187  0.0789
36640W        W39860  10.301  16.505  13.923  0.2740 -0.1824  0.2583
36641W        W39861   5.834  14.751   7.575  0.1309  0.2921 -0.1651
36642W        W39862   8.369  12.537  10.111 -0.1378  0.0792 -0.2246
36643W        W39863   6.803  13.339  15.463 -0.0777 -0.0504  0.0035
36644W        W39864  11.383  10.221   9.686 -0.2513 -0.0915 -0.1068
36645W        W39865  11.843  17.512   9.443 -0.1424  0.0752 -0.2324
36646W        W39866   5.286   8.079  15.106  0.1292 -0.0289 -0.1923
36647W        W39867   9.029   7.238  16.602  0.1230 -0.1713 -0.0342
36648W        W39868  13.682  16.623  10.419 -0.1073  0.2163  0.0283
36649W        W39869  14.095  17.537  16.946 -0.0851  0.1494 -0.0089
36650W        W39870   8.174  15.837   9.155 -0.0482 -0.1011 -0.0676
36651W        W39871   5.815  10.800  15.539 -0.3351 -0.0879  0.1252
36652W        W39872  12.518   3.043  11.100  0.0849  0.0298 -0.1131
36653W        W39873  11.697   9.524  14.879 -0.0671  0.1244  0.0649
36654W        W39874   5.592  17.417  12.296 -0.3883 -0.1786 -0.0479
36655W        W39875   5.046   5.629  17.349 -0.3456 -0.0173  0.0383
36656W        W39876  15.991  15.153  15.974  0.4126  0.2950  0.0399
36657W        W39877  12.770  16.533   9.876  0.1233 -0.0643 -0.0600
36658W        W39878  11.466  16.369  15.260  0.2476 -0.2499  0.3079
36659W        W39879  17.970  10.400   9.817  0.0978 -0.3989 -0.4460
36660W        W39880  13.347   8.337  17.549 -0.0089 -0.2188  0.1358
36661W        W39881   5.748  17.443   8.974  0.1859 -0.3116  0.0152
36662W        W39882  14.440  15.124   9.454  0.0838 -0.0806  0.1508
36663W        W39883   5.026  15.255   1.706  0.1301  0.0282 -0.2632
36664W        W39884   7.108  15.095  13.108  0.1153 -0.0804 -0.1064
36665W        W39885  15.339  15.358   1.935  0.3537 -0.1419  0.1121
36666W        W39886  13.284  13.063   6.908 -0.0743  0.0789 -0.1381
36667W        W39887  14.370  15.584  14.980 -0.0963  0.2028  0.3308
36668W        W39888  12.828  16.477   8.781 -0.3030 -0.2289  0.1657
36669W        W39889  10.692  14.075   4.833 -0.1511  0.1516 -0.3102
36670W        W39890  16.517  13.460   2.011  0.0036 -0.1360 -0.0387
36671W        W39891   5.646   9.875  15.452 -0.1381  0.0758  0.0566
36672W        W39892   6.408  16.670  13.410 -0.1847  0.1310 -0.0044
36673W        W39893  12.932  14.123   9.376  0.4896  0.2804  0.3437
36674W        W39894   9.350  14.156   9.347 -0.0478 -0.0699 -0.0660
36675W        W39895  10.918  17.790  11.915  0.1214  0.1268 -0.0713
36676W        W39896   2.100  10.114  13.372  0.3949 -0.0642 -0.0758
36677W        W39897  16.550  11.623  17.016 -0.0768  0.2324  0.1487
36678W        W39898  11.991  12.892  13.579 -0.0155 -0.0304  0.0643
36679W        W39899   1.599   0.086  14.098 -0.2416 -0.0142  0.0512
36680W        W39900  14.995   9.118   4.769 -0.0720 -0.3606 -0.4213
36681W        W39901   7.618   4.250  10.159  0.1276  0.2458 -0.1078
36682W        W39902  13.371  14.599  13.577  0.1808 -0.2625 -0.0031
36683W        W39903  17.598   9.860  14.982  0.0730 -0.0095  0.0370
36684W        W39904   3.642  11.181  10.391  0.1029 -0.2545 -0.0159
36685W        W39905   9.560  14.989   5.633 -0.3307 -0.0218  0.1859
36686W        W39906   6.148   8.803  13.089  0.2582  0.1023 -0.1514
36687W        W39907   5.842  12.326   9.083  0.1358 -0.0543 -0.2108
36688W        W39908  11.275  15.322  13.738  0.0965  0.2754  0.2027
36689W        W39909  14.564  13.707  16.148  0.2056 -0.0058 -0.0614
36690W        W39910  16.551  10.382   9.748 -0.5153  0.5759 -0.0800
36691W        W39911   9.954   4.624  16.446  0.0309  0.0044  0.0447
36692W        W39912   2.991  17.632  13.137 -0.3368 -0.2144 -0.0157
36693W        W39913  10.693  12.408   4.680  0.0971 -0.0554 -0.1858
36694W        W39914  12.515  13.244  17.117 -0.2611 -0.1874 -0.3752
36695W        W39915  14.262  12.917   8.152 -0.0516 -0.0582 -0.2886
36696W        W39916  16.946  15.797  10.396  0.0682 -0.0961 -0.3297
36697W        W39917  14.823  10.667  11.645 -0.2516 -0.2581 -0.0673
36698W        W39918  12.534   8.335  16.233  0.1179  0.1391  0.0725
36699W        W39919   8.270   8.348  13.167  0.0830  0.3373  0.0792
36700W        W39920  13.638  14.099  13.867 -0.0845  0.0023 -0.3751
36701W        W39921   4.216  11.687   9.660  0.0375 -0.1221 -0.2030
36702W        W39922  10.096   9.046   7.745  0.0212  0.1095  0.1303
36703W        W39923   6.117   0.949   6.162 -0.1321 -0.2261  0.0038
36704W        W39924  16.629  13.095   6.194 -0.2886  0.1236  0.0860
36705W        W39925  17.318  12.223  11.649 -0.0779 -0.0469 -0.3546
36706W        W39926   9.664  10.152   4.849 -0.0819  0.0192  0.1372
36707W        W39927  14.367  15.568  16.957  0.3406  0.0208  0.2650
36708W        W39928  17.599  10.404  15.046  0.0019  0.2289 -0.3009
36709W        W39929  10.866  13.494  14.414 -0.2063  0.0006  0.0023
36710W        W39930  13.995  16.154  14.566 -0.1992  0.2105  0.0530
36711W        W39931  13.479  13.093   1.533  0.0091 -0.1695 -0.0693
36712W        W39932  13.004  13.291  16.899  0.2069  0.0908  0.0505
36713W        W39933   3.889  11.108  13.230  0.1672  0.3610 -0.1062
36714W        W39934  10.240  10.334  12.796 -0.1807  0.2164  0.2018
36715W        W39935   1.223  14.549  10.613  0.0799 -0.1671  0.2649
36716W        W39936  15.644  16.334  15.295  0.0930  0.1289 -0.1600
36717W        W39937   7.398  13.298  10.029  0.2670  0.0185 -0.0675
36718W        W39938  14.860   9.812   0.380 -0.0001 -0.1839 -0.3755
36719W        W39939   5.852   7.175   9.539  0.0636  0.0731 -0.0320
36720W        W39940  15.080  11.816  14.618  0.0120 -0.1896 -0.0840
36721W        W39941  17.313   4.346  17.933  0.1383  0.1377 -0.1612
36722W        W39942   9.967  16.625  10.230 -0.0672  0.0230 -0.3617
36723W        W39943  15.306   8.978  13.140 -0.0221 -0.1068  0.0013
36724W        W39944   9.697  12.770  14.114  0.0608  0.2694  0.1186
36725W        W39945  11.606  14.068   8.945  0.0110 -0.0118 -0.0681
36726W        W39946  10.585   4.655  13.678  0.2766  0.0714  0.1084
36727W        W39947   7.398   5.306  11.883 -0.2254 -0.2393  0.5177
36728W        W39948   7.462  13.784   0.207 -0.5230  0.0290 -0.0688
36729W        W39949   7.715  18.190   7.583 -0.0343 -0.0155 -0.1880
36730W        W39950  10.310  13.611  11.858 -0.3022 -0.0557  0.2796
36731W        W39951   8.515  14.329   5.575 -0.0470  0.2694 -0.0904
36732W        W39952  13.882  11.834  13.761 -0.2764 -0.1974 -0.0098
36733W        W39953  12.657  12.901  14.984 -0.0372  0.1167 -0.0576
36734W        W39954   0.502  14.522   0.353 -0.1703 -0.2102 -0.0408
36735W        W39955  11.512   8.056  13.987 -0.0356 -0.2687  0.0645
36736W        W39956  15.126   2.789   9.603  0.0194  0.2955  0.1822
36737W        W39957   6.840  10.421  10.136 -0.0742 -0.1248  0.0715
36738W        W39958  12.068  10.748  14.310 -0.0333 -0.1391 -0.0346
36739W        W39959  11.350  18.263   8.037 -0.0017 -0.0665 -0.0148
36740W        W39960  10.652  12.624  12.177  0.2188 -0.0378 -0.2201
36741W        W39961  14.600   9.294   8.575 -0.0206  0.0641 -0.2132
36742W        W39962  16.651  16.714  10.731  0.2140 -0.0900 -0.0081
36743W        W39963  10.855  16.303   7.037  0.1394  0.1201 -0.1595
36744W        W39964  17.901   8.789  12.999 -0.2511 -0.4775  0.1253
36745W        W39965  10.363   5.650   7.466  0.2137 -0.2708  0.0038
36746W        W39966   7.825  16.476  15.481 -0.0218 -0.0818 -0.1055
36747W        W39967   8.498  13.295  12.973  0.0195  0.0447 -0.1398
36748W        W39968   6.949  12.334  10.451 -0.0208  0.1192 -0.0770
36749W        W39969  15.790  16.806  12.611 -0.1901 -0.0517  0.1804
36750W        W39970  12.479  16.773  16.105  0.2048 -0.1632  0.0721
36751W        W39971  15.217  15.949  11.738 -0.1467 -0.3643  0.1998
36752W        W39972  16.711  15.290  14.792 -0.1411 -0.0191  0.2433
36753W        W39973  14.602   5.559  10.711  0.2789 -0.1148 -0.1080
36754W        W39974  11.896  13.119  11.544 -0.2838  0.0295  0.2448
36755W        W39975   9.366   1.805  12.583 -0.0711 -0.3792 -0.0399
36756W        W39976  16.988  11.221  17.914 -0.3794  0.0980 -0.0257
36757W        W39977  10.501  12.659   1.041 -0.0650  0.1194  0.3916
36758W        W39978  15.045  10.241  10.651 -0.1904 -0.1372 -0.0187
36759W        W39979  10.826   7.307   4.212 -0.0670  0.0079 -0.0199
36760W        W39980   9.666  13.320  14.418 -0.1475 -0.0808 -0.1263
36761W        W39981  10.799   9.125  13.588  0.0369 -0.2413  0.0364
36762W        W39982  14.129   2.642  11.534  0.2241 -0.2509  0.2559
36763W        W39983   1.828  10.120   9.008  0.3611 -0.3002  0.0231
36764W        W39984  16.131  16.437  12.998  0.1475  0.2231 -0.2308
36765W        W39985  15.203  12.244   0.892 -0.0618  0.0416 -0.0601
36766W        W39986  15.701  16.686  13.911  0.0345  0.3231 -0.2062
36767W        W39987  16.109  16.748   2.719 -0.0023  0.2119  0.2750
36768W        W39988  13.149   9.977  13.209 -0.0234  0.0712 -0.0709
36769W        W39989  12.155  15.218  10.878  0.2060 -0.0455  0.3127
36770W        W39990   5.869   8.010   8.005 -0.1936  0.0059 -0.0359
36771W        W39991  13.873   0.046   1.777  0.0388 -0.1226  0.1188
36772W        W39992  13.220  13.009  14.340 -0.0644 -0.1826 -0.1236
36773W        W39993  10.070  10.065  14.356  0.0374 -0.1326 -0.1751
36774W        W39994  15.674  14.540   1.167  0.1184 -0.0643  0.3632
36775W        W39995   3.085  17.027  15.129  0.2311 -0.1125  0.0146
36776W        W39996  12.586   3.524  10.896  0.1391 -0.0510 -0.2324
36777W        W39997  14.899  10.731  17.970  0.0492  0.0018  0.0194
36778W        W39998   7.633   9.537  10.196  0.3432  0.1103  0.0111
36779W        W39999   9.638   9.797  11.089 -0.1295 -0.2246  0.3318
36780W        W40000  10.511   8.711  11.314 -0.0091 -0.0866  0.1065
36781W        W40001  15.606  15.712  13.935 -0.1090  0.0004 -0.1159
36782W        W40002  11.356  11.795  14.873  0.2362 -0.2696 -0.0089
36783W        W40003   8.831  10.177   7.483 -0.0595 -0.0081 -0.0993
36784W        W40004  13.153  11.576  11.807  0.0060 -0.1432 -0.2367
36785W        W40005  13.978  15.595  13.578  0.3452  0.3446  0.1819
36786W        W40006  12.843  14.461   7.737  0.0402  0.1077 -0.2761
36787W        W40007  13.257  15.597  17.876 -0.1206  0.0705 -0.0996
36788W        W40008  12.536  10.948   7.916 -0.2331 -0.3236 -0.1243
36789W        W40009   8.155  14.223  11.140  0.2425  0.1380 -0.2790
36790W        W40010  12.274  10.923   0.409 -0.1702 -0.2103  0.1768
36791W        W40011  11.030  12.016   5.602  0.1958  0.1578 -0.0371
36792W        W40012  12.478  11.196   8.405  0.1332  0.0883 -0.0559
36793W        W40013  10.350  15.925   0.578 -0.3449 -0.0610 -0.0681
36794W        W40014  11.571  14.469   4.952 -0.0834  0.0923 -0.2300
36795W        W40015  10.446  14.132  10.718  0.2599  0.1903 -0.1695
36796W        W40016   7.536   9.159  12.137 -0.1963 -0.1352 -0.2454
36797W        W40017  13.303  14.727  12.108  0.1846  0.2056  0.4230
36798W        W40018   2.610  15.270   4.566 -0.3083  0.0559 -0.0605
36799W        W40019  12.245  11.029   3.754 -0.3019 -0.0361  0.1090
36800W        W40020  14.706  14.273  11.125  0.0121  0.1718 -0.0842
36801W        W40021   0.811   5.049   8.191  0.2346  0.1410 -0.0727
36802W        W40022  10.419   9.287   8.136  0.2899  0.0613 -0.0588
36803W        W40023  16.314  15.361  17.549  0.2918 -0.2256  0.4034
36804W        W40024   1.484  14.589  14.268  0.4570 -0.0979 -0.1619
36805W        W40025   1.514  11.975  14.898  0.2502 -0.2376 -0.1199
36806W        W40026   5.563  11.651   7.939  0.1213 -0.0371  0.1690
36807W        W40027  13.116  14.045  17.260  0.1889  0.3425 -0.0865
36808W        W40028  17.710   8.012  13.683  0.1084 -0.0047 -0.0786
36809W        W40029  14.334  17.728  13.737 -0.3646  0.1467  0.1163
36810W        W40030   9.293  10.434  15.635 -0.0293  0.0914  0.1776
36811W        W40031  15.475  16.319  16.908  0.0201 -0.0354 -0.0382
36812W        W40032  14.184   6.814  16.686  0.1982 -0.0771  0.2346
36813W        W40033  12.392  12.542  14.642  0.1838  0.3667 -0.0654
36814W        W40034   8.836   9.950  11.765 -0.1462  0.0646 -0.0243
36815W        W40035  12.897  12.079  12.350 -0.4828 -0.0156  0.2415
36816W        W40036  18.182   2.852  18.002 -0.2221  0.0138 -0.0843
36817W        W40037  12.545  14.788   5.151 -0.3063 -0.0918  0.1544
36818W        W40038  11.733  11.391  10.554 -0.1867  0.0410  0.0529
36819W        W40039  17.553   9.130   8.801 -0.2135  0.0329 -0.3259
36820W        W40040  16.632  10.200  12.803 -0.0357 -0.1679  0.1139
36821W        W40041  13.168  11.812   6.761 -0.0754  0.0875  0.1745
36822W        W40042   1.240  13.812   1.372 -0.1130  0.1557 -0.1919
36823W        W40043  16.477   9.655  14.965 -0.1010  0.0003 -0.0945
36824W        W40044  16.170   9.935  15.235 -0.0751  0.1990 -0.0234
36825W        W40045  10.447  15.450  13.422  0.2019 -0.0695  0.2310
36826W        W40046   6.363   4.425  10.774 -0.1040  0.0615 -0.1542
36827W        W40047  14.595  14.139  11.604  0.2110  0.0287  0.0768
36828W        W40048  12.514   2.606   6.823  0.0873 -0.4728  0.2726
36829W        W40049  12.812   9.849  10.761  0.1380  0.1452  0.2178
36830W        W40050   2.857  12.724  11.886  0.2232 -0.2260  0.1933
36831W        W40051  17.860   8.679   9.952  0.1522 -0.2783  0.0714
36832W        W40052  12.418  15.635   1.010  0.3353  0.1924  0.0741
36833W        W40053  10.771   3.243   3.145  0.1870  0.1631 -0.5388
36834W        W40054  12.984   8.688   6.237 -0.1616  0.1667 -0.0414
36835W        W40055  13.513   7.005  13.226  0.1009 -0.0632 -0.4015
36836W        W40056  11.676  14.613  11.278  0.0227 -0.3185  0.0419
36837W        W40057  14.526  10.757  11.170  0.0981  0.0191  0.0740
36838W        W40058  11.720  11.529  13.683 -0.0196 -0.0600 -0.0864
36839W        W40059  13.090  14.854  10.383 -0.1192  0.2919  0.0672
36840W        W40060   0.591  13.337  12.403  0.1429  0.2859  0.1020
36841W        W40061   7.010   4.582  17.586  0.3822  0.2326 -0.0176
36842W        W40062   5.219   7.758   8.693 -0.0608  0.3944  0.2703
36843W        W40063  12.759   9.902  10.088  0.0313 -0.0972 -0.0423
36844W        W40064   0.908  12.763  10.042 -0.1938  0.0923  0.0189
36845W        W40065  17.983   5.391   8.696 -0.1916 -0.0022 -0.4610
36846W        W40066   9.353   3.891  15.297 -0.4434 -0.2459 -0.1280
36847W        W40067  11.221   2.386   8.450  0.1396  0.0008 -0.0506
36848W        W40068   9.862  14.070   9.387  0.0720 -0.0268 -0.1816
36849W        W40069  15.300  13.903   0.052 -0.1637 -0.0552 -0.1804
36850W        W40070  13.538   7.611  15.518  0.1879  0.1168  0.1476
36851W        W40071  11.538  10.543  13.380  0.0834  0.4166  0.1335
36852W        W40072   9.205   4.303  13.974 -0.1598  0.2260 -0.0863
36853W        W40073   6.214  12.951  11.158 -0.1931  0.1003 -0.0933
36854W        W40074   8.516  15.060   0.511  0.0616  0.2160 -0.1682
36855W        W40075   0.244  10.332  15.599 -0.0269  0.1741  0.0770
36856W        W40076   8.557  10.920  11.676  0.2049 -0.2851 -0.1935
36857W        W40077  10.509   7.538  13.673 -0.0942  0.0988  0.1194
36858W        W40078  12.431   8.904  14.434 -0.1787 -0.1185 -0.0536
36859W        W40079  13.832  15.764  18.197  0.1622 -0.3922  0.0487
36860W        W40080  15.172   6.824  14.593 -0.2278 -0.0596  0.1377
36861W        W40081   9.651   7.870   5.256 -0.2142  0.1317 -0.2037
36862W        W40082  14.927  10.179  14.655 -0.0982 -0.0965  0.0946
36863W        W40083  13.399   9.296  15.038 -0.0506  0.0732 -0.0292
36864W        W40084  17.625  12.898   0.829  0.0445 -0.1464  0.2041
36865W        W40085  10.783  15.199   6.638  0.0800  0.0767 -0.0657
36866W        W40086   2.248  10.323  12.867 -0.1132  0.3045  0.3576
36867W        W40087  11.772   8.506  12.852  0.1603  0.0102  0.2343
36868W        W40088   9.370  13.602  14.148 -0.2366  0.0347  0.0132
36869W        W40089  10.049  11.065   8.733 -0.2618  0.0758  0.0838
36870W        W40090  14.045  15.052  13.604  0.1022 -0.2765 -0.0367
36871W        W40091  13.153   1.532  12.342  0.0108 -0.4477 -0.1816
36872W        W40092  10.201  12.439  12.736  0.0626 -0.2293 -0.0635
36873W        W40093  12.917  11.904   8.666  0.2040 -0.0714  0.0740
36874W        W40094  11.590   2.461  15.019  0.2111  0.2695  0.0274
36875W        W40095  13.875  16.486  15.899  0.0457 -0.0082 -0.2311
36876W        W40096   3.785   0.010   7.686  0.0789 -0.2474  0.1619
36877W        W40097  15.775  13.501  11.797  0.0347  0.0359  0.1363
36878W        W40098   2.285  10.602  14.980  0.0655 -0.1108 -0.1328
36879W        W40099  11.082   8.607  15.495  0.1398 -0.2241 -0.0141
36880W        W40100   8.254  12.390  13.027 -0.0135 -0.3023  0.0650
36881W        W40101  11.762   6.778  13.861 -0.0842 -0.2506 -0.4168
36882W        W40102   4.634  14.840  13.737 -0.4210 -0.0547  0.2031
36883W        W40103  14.586   6.704   0.237 -0.0226 -0.0108 -0.3490
36884W        W40104  13.968  17.841   8.279 -0.0386  0.1350 -0.4122
36885W        W40105  14.145  11.177   6.665 -0.0626  0.1292  0.1829
36886W        W40106   9.271   8.124  15.640 -0.0218  0.1573  0.1751
36887W        W40107   6.075  15.349  10.068  0.0705  0.1776 -0.1053
36888W        W40108  13.336   9.996   9.773 -0.2513  0.3219 -0.2381
36889W        W40109   9.021  17.753   0.004 -0.0288  0.0119  0.0594
36890W        W40110  17.020   1.311  13.166 -0.1879 -0.0109  0.0944
36891W        W40111  10.107  11.941  10.211 -0.0116 -0.2071 -0.1515
36892W        W40112   0.691  13.314  14.944  0.1468  0.0049 -0.0439
36893W        W40113   3.857   9.345  14.173  0.2085 -0.0493  0.0270
36894W        W40114   3.697   7.325   9.096 -0.0042  0.2579 -0.0645
36895W        W40115  18.063   7.441  17.477  0.1183 -0.3258  0.0332
36896W        W40116  13.692   8.937  11.985 -0.2018  0.1932  0.1833
36897W        W40117   0.034   2.213  13.438 -0.1478  0.1169 -0.0950
36898W        W40118  11.787  17.324  14.569 -0.1761 -0.1166  0.1450
36899W        W40119   9.869   3.952  10.203  0.2227 -0.1927  0.0819
36900W        W40120   4.777   0.409  10.828  0.4135  0.0210  0.0524
36901W        W40121  11.587   0.534  16.433 -0.2447 -0.0417  0.0668
36902W        W40122  10.913   0.758  10.797 -0.0285 -0.0125 -0.0685
36903W        W40123  14.848  14.855  17.330  0.1983  0.1283 -0.3495
36904W        W40124  11.655  15.873   9.502 -0.2455  0.1192  0.0300
36905W        W40125   5.444  15.404  13.730  0.1569 -0.0130 -0.1019
36906W        W40126  11.823   9.041  12.733  0.0101  0.0334 -0.0464
36907W        W40127  16.778  13.063  13.978  0.1272 -0.1201  0.0059
36908W        W40128  16.276  11.420   9.894  0.0726  0.1872 -0.1149
36909W        W40129  13.269  10.983  15.583  0.1946 -0.1879  0.1139
36910W        W40130   7.001  10.841   9.835 -0.3104 -0.1944 -0.0991
36911W        W40131  14.484   2.635  10.724  0.2951  0.2659 -0.1261
36912W        W40132  13.663  11.968  14.598  0.1268 -0.2569 -0.2679
36913W        W40133  11.412   2.829   0.401 -0.0071  0.0918  0.0704
36914W        W40134   4.230   0.550  10.863  0.0068  0.2094 -0.2782
36915W        W40135  13.429  12.366   9.938  0.3277  0.2155  0.1216
36916W        W40136   3.520   1.329  10.810  0.1236  0.1062 -0.0020
36917W        W40137   5.125  13.494  17.143  0.1291 -0.3023 -0.3809
36918W        W40138   9.839  17.000   0.388  0.1249 -0.0164 -0.1488
36919W        W40139  16.998  16.982   1.131 -0.1373 -0.1158 -0.1043
36920W        W40140  14.688  17.102  16.128  0.2606 -0.1343  0.0123
36921W        W40141  15.604  13.684   1.474  0.0181  0.0440  0.0624
36922W        W40142  13.035  12.195   0.396  0.1797  0.1338 -0.0429
36923W        W40143   0.364  11.838  14.538  0.1093  0.0542 -0.0250
36924W        W40144  11.959  10.412   4.987  0.2202  0.2527  0.0498
36925W        W40145   0.230  12.553  15.130 -0.2301 -0.1168 -0.0907
36926W        W40146   7.098   1.687  13.840  0.1395  0.1373 -0.1260
36927W        W40147  17.508  11.041  11.788  0.2471 -0.0957 -0.0009
36928W        W40148   2.562   1.479   9.291  0.2028 -0.4499  0.3840
36929W        W40149  10.171   3.341   0.559  0.2607  0.2222 -0.1547
36930W        W40150  12.032  10.541  15.627  0.0552  0.0814 -0.4981
36931W        W40151   5.300   8.376  10.079 -0.2340 -0.2488  0.1988
36932W        W40152  14.004  13.258  10.790  0.0357  0.1200 -0.2836
36933W        W40153  14.490  10.038  12.012 -0.1122  0.1966 -0.0393
36934W        W40154  17.692  15.187  12.821  0.1075  0.1287 -0.0264
36935W        W40155   0.670  14.822  13.776 -0.2574 -0.0363 -0.4003
36936W        W40156   9.404  15.261   1.250 -0.0915 -0.0947 -0.3956
36937W        W40157   9.890  12.066  12.578 -0.2052  0.1218 -0.1714
36938W        W40158   3.690  13.188  14.769  0.1681 -0.0771  0.0555
36939W        W40159  13.299   9.787  16.349 -0.3182  0.4439  0.1158
36940W        W40160  13.705   0.865   7.647 -0.0682 -0.3845  0.0711
36941W        W40161  12.187   9.396   0.050  0.1758 -0.0821 -0.1086
36942W        W40162   9.140   0.053  11.835 -0.1291  0.1682 -0.2403
36943W        W40163  15.160  13.867   9.990 -0.0502 -0.0999 -0.0191
36944W        W40164  18.103   7.189   5.385 -0.0526 -0.0447  0.2509
36945W        W40165  10.866   4.754  16.274 -0.0225 -0.0127  0.1167
36946W        W40166   9.344  11.887  11.374 -0.0271 -0.1868  0.0232
36947W        W40167   7.112  17.335  14.396  0.1408  0.1298 -0.0925
36948W        W40168  10.247  11.050  11.229  0.0141  0.1068  0.3110
36949W        W40169  13.282   4.902  14.824 -0.1940  0.0001 -0.3483
36950W        W40170  12.615  18.015  14.925  0.0991 -0.1694 -0.3388
36951W        W40171   5.029  16.711  10.503  0.0767  0.0398  0.3691
36952W        W40172  16.821  15.636   2.618  0.2604 -0.0537 -0.1593
36953W        W40173   8.562  13.710  15.774 -0.4187  0.2307  0.0448
36954W        W40174  12.144  13.781  16.564  0.0860 -0.0478  0.2152
36955W        W40175  13.936  15.404  11.635  0.2052  0.0839 -0.2884
36956W        W40176   9.000   4.985   8.492 -0.2838 -0.1628  0.1643
36957W        W40177  14.081  11.642  12.769 -0.2525 -0.0430 -0.0941
36958W        W40178  16.322  12.025   9.113 -0.4346  0.2595  0.1425
36959W        W40179  11.403   3.702   1.312  0.2775  0.0012 -0.0931
36960W        W40180   7.991  12.925   4.422 -0.3386 -0.0311  0.0978
36961W        W40181  15.258  11.253   2.792 -0.0199 -0.1816 -0.1445
36962W        W40182  10.570  15.661  12.963 -0.0441  0.0667  0.1411
36963W        W40183  10.645  13.867  14.174 -0.0358  0.0348 -0.1757
36964W        W40184  16.393  10.932   7.273  0.4442 -0.0023  0.1073
36965W        W40185  13.540  17.284  10.027 -0.2433  0.1850 -0.0986
36966W        W40186  16.343  11.648  15.577  0.3841  0.0169  0.3465
36967W        W40187   9.408  11.094  13.380 -0.0876 -0.2491  0.1277
36968W        W40188  14.680   5.003  15.303 -0.2510  0.1735  0.0389
36969W        W40189   7.854   9.239   5.295  0.2652 -0.2030 -0.0123
36970W        W40190   8.377  11.615  10.483 -0.1658  0.0675 -0.1676
36971W        W40191  10.889   7.859  15.485  0.1802  0.0135 -0.0189
36972W        W40192   9.322  11.995   8.464 -0.0195 -0.2855  0.2090
36973W        W40193  10.172  14.069   9.825 -0.1123 -0.1374 -0.0209
36974W        W40194  15.743  16.884  10.286  0.0591  0.1655  0.2033
36975W        W40195   0.034   0.057  16.725  0.2129  0.1021 -0.1016
36976W        W40196  16.269   8.580  15.461 -0.3607  0.2816  0.1473
36977W        W40197   8.338   2.251   8.655  0.0646 -0.0680 -0.0851
36978W        W40198  12.684  12.477  12.046  0.2625  0.0914  0.2426
36979W        W40199   8.487   8.060   8.341  0.0080  0.0580 -0.2474
36980W        W40200  12.281  13.417  11.672 -0.1369 -0.3258 -0.1294
36981W        W40201  13.572  11.277  13.334 -0.0469 -0.2305  0.0013
36982W        W40202   9.175  13.972  13.750 -0.0654  0.0431 -0.1329
36983W        W40203   7.760   6.623  13.036 -0.0317  0.0327  0.1306
36984W        W40204   9.863   4.816  14.914 -0.3454 -0.0040 -0.0400
36985W        W40205   8.012  14.091  14.292 -0.0684  0.1084 -0.0714
36986W        W40206  11.763   9.415   0.373  0.0730 -0.0654  0.0811
36987W        W40207  15.315  14.296   3.276 -0.1221 -0.1728 -0.2200
36988W        W40208   3.400   8.625  15.921 -0.0470  0.0720 -0.4264
36989W        W40209   7.620  18.149  15.286 -0.0016  0.0335 -0.2982
36990W        W40210  17.320   7.614  11.574 -0.1702 -0.5658  0.1273
36991W        W40211   5.431   0.437  12.759 -0.2645 -0.2332 -0.1741
36992W        W40212  14.833   9.574   5.596  0.3665 -0.3706  0.0190
36993W        W40213  10.976   8.155  13.677  0.1343 -0.0348  0.1661
36994W        W40214  14.479  13.960  17.875 -0.2227  0.1340  0.0300
36995W        W40215   7.880  10.203   3.557 -0.0341  0.0518  0.3090
36996W        W40216  15.054  13.629  16.984  0.0200 -0.2108 -0.0484
36997W        W40217  11.502  12.543  16.674  0.0324 -0.2589  0.3894
36998W        W40218  13.317  13.640   9.443  0.0512 -0.3602  0.0805
36999W        W40219   4.086  15.863  16.074  0.0343 -0.5225  0.1900
37000W        W40220   7.716   9.883  11.462  0.1690 -0.1926 -0.0089
37001W        W40221  16.164  15.546  10.918  0.2472  0.2016 -0.0075
37002W        W40222  16.504  11.313  18.011 -0.2649 -0.2382 -0.0220
37003W        W40223   9.594  16.985  13.299  0.0334  0.3184 -0.0614
37004W        W40224  10.891  13.477   7.257  0.1311  0.0112 -0.2325
37005W        W40225   4.370  13.602  10.449  0.0699  0.0363 -0.1487
37006W        W40226  13.499   9.997   7.823 -0.0069 -0.1733  0.2059
37007W        W40227  18.207  16.736  11.907 -0.2287  0.1622 -0.0686
37008W        W40228   8.104  16.256  15.064 -0.0320 -0.1518 -0.2282
37009W        W40229  11.068  16.265  13.458  0.0330 -0.0185 -0.1226
37010W        W40230  11.986   0.941  14.683 -0.2749 -0.2221  0.2256
37011W        W40231  16.778   5.361  15.763 -0.0107  0.1998 -0.0535
37012W        W40232  17.603  15.170   1.468 -0.1967 -0.2318  0.1531
37013W        W40233  10.806  11.276  13.210  0.1319  0.2661 -0.3054
37014W        W40234  17.596   3.370   9.265 -0.0836 -0.1563 -0.0869
37015W        W40235  16.490  14.011   9.827  0.0883 -0.0091  0.1930
37016W        W40236  11.192  15.918  16.725  0.0579  0.1124  0.1774
37017W        W40237   9.742  11.503  13.499  0.0365  0.1323 -0.1284
37018W        W40238  15.089  10.702  14.370 -0.2066  0.1382  0.3566
37019W        W40239   9.192  14.082  10.836 -0.0277  0.1303 -0.1802
37020W        W40240   2.351  12.292  11.844  0.0471  0.1668  0.1093
37021W        W40241   8.769  11.631  14.669  0.0574  0.0714  0.1060
37022W        W40242   9.335  13.006  15.696 -0.2216  0.0293  0.1196
37023W        W40243   1.958   3.348  13.847  0.1406 -0.2162  0.1290
37024W        W40244  15.934  17.187   2.806  0.1425  0.2567 -0.1025
37025W        W40245   7.916  12.683  13.236 -0.0581  0.0933  0.0616
37026W        W40246   2.243  14.860  16.731  0.0103  0.5076  0.0024
37027W        W40247   8.746   7.858  14.734  0.1683  0.1805 -0.0878
37028W        W40248  16.371   1.560  10.522  0.0289 -0.0647 -0.1084
37029W        W40249  15.105   1.109  15.878 -0.0025 -0.1416  0.1860
37030W        W40250   7.122  12.980   8.601 -0.0935  0.1612  0.1301
37031W        W40251  13.708  13.489  16.285  0.2371  0.2579 -0.2424
37032W        W40252   9.516  11.249  10.691  0.2123  0.4758 -0.0749
37033W        W40253   7.861  17.559  10.841  0.1422  0.1204 -0.1590
37034W        W40254   9.409   8.996   8.947  0.3990  0.0641  0.0343
37035W        W40255  11.653  10.927  14.787 -0.1319 -0.0633 -0.1391
37036W        W40256   9.921  11.437   9.391  0.2972  0.2127 -0.2489
37037W        W40257  15.799  13.639  18.267  0.0644  0.0250 -0.3445
37038W        W40258  15.799   8.376  10.992  0.0041 -0.0680 -0.0878
37039W        W40259  12.962   8.879  18.007  0.0048  0.1026  0.1926
37040W        W40260  11.798  16.345  12.723 -0.0800 -0.0419 -0.1918
37041W        W40261  11.436   1.810  16.420 -0.0087  0.2680  0.2591
37042W        W40262   9.016  17.396   6.663  0.2353 -0.1398  0.1417
37043W        W40263   9.091  17.256  13.397  0.0825  0.1160  0.2242
37044W        W40264  11.903  12.603  14.962 -0.0633  0.0796  0.0372
37045W        W40265  12.886   0.420  17.600 -0.0943  0.1023  0.3010
37046W        W40266  13.045  15.497  17.388 -0.0303 -0.1060  0.1156
37047W        W40267  10.864   6.876   4.425 -0.1058  0.2388 -0.0029
37048W        W40268  12.341  17.038  11.803  0.0672 -0.2744  0.0814
37049W        W40269   0.382  16.055   3.391  0.2161  0.0887 -0.0877
37050W        W40270   2.810   9.756   3.642  0.3030 -0.3420 -0.1486
37051W        W40271  12.693  13.746  14.227  0.2216 -0.0259  0.0160
37052W        W40272  12.861  15.497   0.083 -0.0959 -0.3657  0.0152
37053W        W40273  11.800   8.840  14.543  0.2062  0.1186  0.3574
37054W        W40274  12.187  14.327  14.731 -0.3070 -0.0538  0.2106
37055W        W40275  18.180   6.316  16.769  0.0632  0.3582 -0.0961
37056W        W40276   1.636  11.394  17.836 -0.3430  0.0301  0.2442
37057W        W40277  16.796   6.860   0.071 -0.1028 -0.1263  0.0368
37058W        W40278  16.060  15.649   2.506 -0.2228  0.2778 -0.0085
37059W        W40279  10.416  18.029   9.878 -0.1668  0.0746  0.1494
37060W        W40280   0.113   9.236   1.877  0.1226 -0.2932 -0.1842
37061W        W40281  14.171   7.940  18.111  0.1166  0.0598 -0.0653
37062W        W40282  14.395  12.848   2.336  0.0716 -0.1451 -0.3115
37063W        W40283  15.291  17.127  15.146  0.0740  0.2231 -0.1867
37064W        W40284   4.103  13.221  10.635 -0.0216  0.1285 -0.2874
37065W        W40285   7.671  13.492   7.462 -0.0692  0.0287 -0.0634
37066W        W40286   5.706  14.567  10.040  0.1720 -0.1637  0.1100
37067W        W40287  11.097  12.201   9.969  0.0735 -0.2139 -0.1218
37068W        W40288  17.144   4.445   8.104 -0.3065  0.0494  0.0312
37069W        W40289  13.671  17.825   9.983  0.1490  0.1874  0.1516
37070W        W40290   6.227  18.053  13.843 -0.1619  0.0914 -0.3760
37071W        W40291   7.812  17.094  15.523 -0.1384 -0.1874 -0.0853
37072W        W40292  11.150  15.291  12.383  0.1869 -0.0107  0.1779
37073W        W40293  17.954  13.138   0.092 -0.2460  0.0046  0.3083
37074W        W40294  17.483   5.941   1.886 -0.0689 -0.0013 -0.0236
37075W        W40295  10.549  12.145   0.063 -0.2319 -0.0216 -0.2535
37076W        W40296  15.009   9.384   2.124 -0.0594 -0.3652 -0.2567
37077W        W40297  12.426   0.469  17.741 -0.2034 -0.0988  0.1458
37078W        W40298  15.001  13.924  15.442 -0.1794  0.0862 -0.2644
37079W        W40299  14.060  10.960  12.609 -0.3660 -0.0197 -0.0126
37080W        W40300   3.180  13.425   7.896  0.0357 -0.0714  0.2474
37081W        W40301   5.372   5.378   6.560 -0.2692 -0.0907 -0.2530
37082W        W40302  11.370  10.617   0.645 -0.0448  0.0194 -0.1197
37083W        W40303  15.489   3.479  16.537 -0.0242  0.3185  0.1634
37084W        W40304   7.953  16.184   1.602 -0.0307  0.1036  0.0837
37085W        W40305  13.291  14.673   0.504 -0.0859  0.0472 -0.0958
37086W        W40306  15.197   9.591  13.740 -0.2797  0.1107 -0.1263
37087W        W40307   7.802  10.124  15.773  0.0126 -0.1452  0.0885
37088W        W40308   1.045   7.328   7.005  0.4989  0.1525 -0.1987
37089W        W40309  11.323   7.107   3.321 -0.0138 -0.1512 -0.1055
37090W        W40310  12.292   6.834   7.919  0.0863  0.0133  0.3063
37091W        W40311  14.149  16.222  16.241 -0.1686  0.1375  0.0055
37092W        W40312   2.560  11.338  17.231 -0.4025  0.1575 -0.3222
37093W        W40313   8.585  14.707  16.866  0.1482  0.2152 -0.0857
37094W        W40314  13.517  15.441  16.585 -0.3139 -0.1160  0.2063
37095W        W40315  18.042   1.641  17.910  0.1820 -0.1741 -0.1830
37096W        W40316  12.364   9.471  14.678  0.0689  0.2642 -0.3847
37097W        W40317   9.593  17.830  14.673 -0.0305 -0.1721  0.0615
37098W        W40318  11.133  11.005  10.117  0.1515  0.3510 -0.0785
37099W        W40319  12.569  10.445  16.638  0.1558 -0.0015  0.1079
37100W        W40320  14.182   4.252  15.367 -0.3991  0.2272 -0.2131
37101W        W40321   9.331   3.973  14.392  0.0904  0.2708 -0.2932
37102W        W40322   7.197  15.674  16.307  0.2788  0.1637  0.2029
37103W        W40323  17.064   1.890   0.708 -0.3197  0.0075  0.2444
37104W        W40324  14.539  14.455   9.887 -0.2016 -0.1406 -0.1877
37105W        W40325  15.539  11.206  16.479  0.4778  0.4250  0.0183
37106W        W40326   9.706  15.195  16.967 -0.0241 -0.2621  0.2407
37107W        W40327  13.132  13.501   0.342  0.0882 -0.0789 -0.1658
37108W        W40328   6.893   2.877  14.356  0.1171  0.0475  0.0402
37109W        W40329   5.079   9.687  15.647  0.0309  0.0781  0.1163
37110W        W40330  17.539  15.288  15.379 -0.5091 -0.3186 -0.0079
37111W        W40331  15.184  11.074  14.997 -0.3045  0.2097 -0.2017
37112W        W40332  12.127  11.082  12.456 -0.0266  0.1722 -0.2557
37113W        W40333   6.032   8.364  14.814 -0.2131  0.3513  0.2072
37114W        W40334   7.110  10.903  17.241 -0.0156 -0.2949 -0.0570
37115W        W40335   6.613  10.802  11.302 -0.1343 -0.1613  0.1071
37116W        W40336   2.894  17.244  14.633  0.3546  0.0716 -0.2148
37117W        W40337  17.478  14.276   2.131 -0.2968  0.0474  0.1089
37118W        W40338  15.487   0.120  10.844  0.3145  0.3430  0.2069
37119W        W40339   8.861  11.822   1.659  0.1031 -0.0894  0.0013
37120W        W40340  12.930  13.762  13.288  0.2196 -0.0168 -0.0331
37121W        W40341  17.216  14.172   2.559  0.1568 -0.0915 -0.0968
37122W        W40342  11.386  10.503  12.010 -0.1419 -0.2097 -0.1303
37123W        W40343  16.539   7.780  10.461  0.0134  0.1237  0.1925
37124W        W40344   4.984  15.095   3.656  0.0273  0.2027  0.0500
37125W        W40345  16.871  12.865  15.300 -0.1418  0.1331 -0.0666
37126W        W40346   7.375  12.388  15.007  0.0391  0.2848  0.0132
37127W        W40347   3.051   8.736  16.960  0.1807 -0.0760  0.1735
37128W        W40348   4.710  15.289  17.869 -0.0794  0.0300 -0.1947
37129W        W40349   4.311   0.610  13.493 -0.0798 -0.2301  0.2921
37130W        W40350  14.392  13.517  18.207 -0.1964  0.0730 -0.1794
37131W        W40351   9.941  11.308  17.519 -0.0110  0.0188 -0.3581
37132W        W40352  16.133   8.240  17.634  0.2328  0.0571 -0.2666
37133W        W40353  14.112  11.219  14.576  0.0696 -0.2709 -0.0883
37134W        W40354  12.679  14.896  17.631 -0.1140  0.0628 -0.2885
37135W        W40355  10.942  13.368  17.692 -0.2063 -0.0902 -0.0902
37136W        W40356   5.559   5.887   1.148  0.1083  0.0177  0.1112
37137W        W40357   0.343   0.781  17.867 -0.0193  0.0330 -0.2506
37138W        W40358  15.048   9.777  16.147 -0.4080  0.0382  0.0401
37139W        W40359  10.392   8.262   1.085 -0.0690 -0.1496 -0.0393
37140W        W40360   5.775  10.873   3.305  0.0181 -0.0522 -0.0219
37141W        W40361   6.088  11.739   0.580  0.0493  0.1356  0.2939
37142W        W40362  13.968  18.195  13.483 -0.2384 -0.1296 -0.3052
37143W        W40363  17.502   8.522   1.023  0.1596  0.1620  0.1983
37144W        W40364  15.687  18.046  14.628  0.0671  0.0384 -0.0226
37145W        W40365  11.416  12.163  12.695 -0.0146 -0.1699  0.1837
37146W        W40366   4.623   9.609  14.414 -0.3572  0.0386 -0.3079
37147W        W40367  11.878  11.168   4.531  0.1648 -0.4197  0.0576
37148W        W40368  10.965   7.105   1.456 -0.1618  0.2016 -0.3142
37149W        W40369  14.754  13.423  16.567 -0.2641  0.0427  0.1215
37150W        W40370   1.681  13.400  17.193 -0.1360 -0.1246 -0.3584
37151W        W40371  12.917  10.802  18.129  0.1336 -0.0061  0.0765
37152W        W40372  14.431  16.238  12.780  0.3473  0.3925  0.1467
37153W        W40373  11.329  14.668   1.339 -0.2585  0.0570 -0.1026
37154W        W40374  10.081  14.237  16.334  0.0208  0.1339  0.1354
37155W        W40375   2.514   9.442  17.543  0.2848  0.2534 -0.3061
37156W        W40376  12.620  12.752  11.042 -0.2435  0.2403 -0.3090
37157W        W40377  12.138  13.379  16.853  0.2143 -0.0673 -0.1534
37158W        W40378   6.723  16.171  11.246 -0.2253 -0.0369  0.0689
37159W        W40379  15.659  12.729  16.158 -0.0975 -0.0454 -0.1506
37160W        W40380   2.452  14.954   0.858  0.0689  0.0698  0.0970
37161W        W40381  11.142  10.136   6.398 -0.0496  0.0603  0.0536
37162W        W40382  16.667  15.128   4.512 -0.3831  0.0167 -0.0423
37163W        W40383  15.077  16.252  16.462  0.0610 -0.2328 -0.0868
37164W        W40384  13.394  10.730   0.028  0.0983 -0.0013 -0.1671
37165W        W40385  12.969  16.069   9.545  0.1689 -0.1932  0.0117
37166W        W40386  15.381   3.802   4.132 -0.2263  0.1779  0.3161
37167W        W40387  10.752  14.602  16.522  0.0065  0.2310  0.2619
37168W        W40388  12.179   9.112  17.370  0.1983 -0.3464 -0.1628
37169W        W40389  17.755  15.105   4.153 -0.0173 -0.2564 -0.1161
37170W        W40390  11.298  17.626  14.942 -0.0886 -0.0774  0.0515
37171W        W40391  17.538   9.489  15.910  0.0459  0.2943 -0.0320
37172W        W40392  15.032  10.919  12.868  0.0085 -0.0532 -0.0964
37173W        W40393  11.636  16.673  14.545 -0.1844 -0.2366 -0.2865
37174W        W40394  13.029  13.156   8.142  0.0685  0.0712 -0.3277
37175W        W40395  10.807  10.432   0.151  0.0019 -0.4884 -0.0291
37176W        W40396  12.260  10.778  18.166  0.1951 -0.1217  0.0020
37177W        W40397  12.025  13.857  10.858 -0.1240  0.0727  0.1017
37178W        W40398   4.487  10.769  12.101 -0.3609 -0.1658  0.0618
37179W        W40399  15.561  11.363  12.210  0.1117 -0.0564  0.0635
37180W        W40400   9.366  12.062   0.864 -0.0482 -0.4219  0.3038
37181W        W40401  11.793   5.216   2.218  0.2056 -0.0198  0.0331
37182W        W40402   6.686   5.331   2.309  0.0713  0.2752 -0.2060
37183W        W40403  11.179  12.555  11.394 -0.0138 -0.0402  0.1152
37184W        W40404  12.441   9.510  12.274 -0.2441  0.0329  0.0146
37185W        W40405  10.426   8.044   1.524 -0.1954 -0.1299 -0.3235
37186W        W40406   9.494   1.883   9.731  0.0838  0.1978 -0.0863
37187W        W40407   6.922  10.037  15.159  0.1436 -0.0976  0.1182
37188W        W40408   2.870  10.953   1.463 -0.4164  0.3042 -0.2230
37189W        W40409  12.912  13.271   0.947 -0.0242  0.2487 -0.0175
37190W        W40410  17.340  10.927   2.377 -0.2135  0.0038 -0.4000
37191W        W40411  12.380   7.256  15.883 -0.0570 -0.1457 -0.2501
37192W        W40412   9.456  16.180   6.209  0.0842 -0.0098  0.3928
37193W        W40413   9.009   8.522   4.681  0.1193  0.3127 -0.1606
37194W        W40414  14.222  10.637   1.861  0.0608 -0.1748 -0.1071
37195W        W40415   7.917   9.378  16.909 -0.0530 -0.1595  0.0511
37196W        W40416  15.009   2.861  18.248  0.0926 -0.3002  0.2793
37197W        W40417  17.947  15.217   8.056  0.0475 -0.0802 -0.0377
37198W        W40418   0.685  17.839   0.888 -0.0756 -0.0202  0.0950
37199W        W40419  11.086   3.291  17.240  0.0168 -0.1671  0.0540
37200W        W40420   8.332   5.031   4.260 -0.2778 -0.0289  0.0451
37201W        W40421  14.221  14.797  15.083  0.0192 -0.0465 -0.0404
37202W        W40422  12.394  13.954  17.920 -0.0051 -0.2531 -0.0272
37203W        W40423   9.421  14.617  13.098 -0.3077  0.4150 -0.1556
37204W        W40424  12.890   4.673   2.452  0.0326 -0.3452 -0.2442
37205W        W40425  13.261   5.829  15.844 -0.1340 -0.1873 -0.0465
37206W        W40426  14.502   3.331  14.405 -0.2765 -0.3717  0.0917
37207W        W40427  11.775  14.536   3.354  0.1679 -0.1337 -0.3265
37208W        W40428  17.101   9.441  15.542 -0.0972  0.1432 -0.1599
37209W        W40429  14.382  16.257  17.575 -0.0978  0.1613 -0.0187
37210W        W40430  13.803  14.641   4.968  0.2011  0.1223 -0.1063
37211W        W40431  11.447  12.620  18.246 -0.0308  0.2613  0.1314
37212W        W40432   9.581  12.286  12.168 -0.3269  0.0827  0.1752
37213W        W40433  14.829  12.551  15.942 -0.3452  0.0446  0.3316
37214W        W40434  16.241  12.770   0.680 -0.2260  0.0228 -0.0542
37215W        W40435  14.725   6.566  16.469 -0.0205  0.2447 -0.2868
37216W        W40436  12.294  14.658   8.302  0.1676  0.0746  0.1508
37217W        W40437   8.215  13.712  10.915  0.1906 -0.0706 -0.3146
37218W        W40438  15.035  15.930  17.166  0.0775 -0.0914  0.1780
37219W        W40439  12.411  16.118   3.963 -0.1111  0.0469  0.1624
37220W        W40440   1.203  15.000  16.500  0.0992 -0.0364 -0.0683
37221W        W40441   3.625  15.263  12.871 -0.0856 -0.1649 -0.1933
37222W        W40442   9.872   4.398   2.088  0.4514 -0.0263 -0.1036
37223W        W40443   9.752   9.446   3.375  0.1646  0.0892  0.1421
37224W        W40444  11.552   9.974  15.040  0.1421 -0.0438  0.1959
37225W        W40445   9.049   1.200   2.076  0.1570 -0.0760 -0.1313
37226W        W40446  11.144  13.947   0.476 -0.0929  0.2271  0.0506
37227W        W40447  12.545   8.895  17.726 -0.3927  0.0797  0.0648
37228W        W40448  12.738   6.261   3.602 -0.0352  0.1869 -0.2588
37229W        W40449  16.703   9.680  13.984 -0.0016  0.0236 -0.2171
37230W        W40450  13.357   7.808  12.600 -0.0728 -0.0385  0.1964
37231W        W40451  12.577  12.482   6.384  0.1673  0.0411 -0.0270
37232W        W40452  12.750  10.236   5.723  0.0248  0.2657 -0.1515
37233W        W40453  13.240  10.230  10.821 -0.0615  0.1377 -0.0961
37234W        W40454  10.547  13.698  11.053 -0.1897 -0.0636 -0.2693
37235W        W40455  10.989   9.143   6.242  0.1169  0.1285 -0.0087
37236W        W40456  10.107   5.531  14.066 -0.2211  0.0671  0.0763
37237W        W40457  10.656  12.184  13.113 -0.1494  0.1389  0.0443
37238W        W40458  16.445  16.614   4.200 -0.1832 -0.1236 -0.1107
37239W        W40459  12.749  16.103   1.124  0.1852  0.3658  0.2601
37240W        W40460  11.403  11.982  18.008  0.1238  0.1989 -0.0657
37241W        W40461   9.622  11.884   4.314  0.0364  0.0066 -0.1795
37242W        W40462  12.672  11.265   0.570 -0.1107  0.2906  0.1936
37243W        W40463  12.323   6.331   1.035 -0.2512 -0.2618  0.1615
37244W        W40464  13.487  12.952  15.427 -0.3533 -0.0657 -0.1438
37245W        W40465  11.147  10.320   8.227  0.1763 -0.0974 -0.3324
37246W        W40466  14.732  14.758  13.360  0.2354 -0.0621  0.0542
37247W        W40467   6.777  11.598  15.734 -0.1032  0.0066 -0.0673
37248W        W40468   2.653   4.107   5.277 -0.2059  0.0910 -0.0727
37249W        W40469  12.582  12.783   4.902 -0.1166  0.4003 -0.2151
37250W        W40470   7.647  14.495  14.265  0.1227  0.2118  0.2541
37251W        W40471   9.903  18.163  17.034  0.1428  0.1120 -0.1088
37252W        W40472   9.907  15.559  14.158  0.2862 -0.2524 -0.0973
37253W        W40473   7.375   7.482   9.338  0.2439  0.1920 -0.1767
37254W        W40474   0.616  15.725   0.163  0.0467 -0.0927  0.0583
37255W        W40475  11.501   8.230   6.195 -0.1723 -0.1846 -0.1658
37256W        W40476   2.568  11.898  13.560 -0.0015 -0.1422  0.1104
37257W        W40477   9.954  14.064   2.108  0.2315  0.1541 -0.1006
37258W        W40478  13.039  10.390  15.838 -0.2504 -0.0129  0.0221
37259W        W40479  17.449   1.504  15.750  0.0695 -0.0357  0.1373
37260W        W40480  11.917  10.241   8.173 -0.1525  0.0255 -0.0320
37261W        W40481  12.442  15.983  10.670 -0.0933  0.2967 -0.0111
37262W        W40482   9.156  11.549  13.488 -0.4309  0.4233  0.3062
37263W        W40483  10.075   5.446   8.314  0.0043  0.2047 -0.2727
37264W        W40484  16.878  13.340  16.062  0.1658 -0.4093  0.0998
37265W        W40485  14.245  14.264  17.554  0.2161  0.1670  0.1700
37266W        W40486   9.879  13.047  15.368  0.0157 -0.0359 -0.0922
37267W        W40487  17.189   8.257  12.669  0.2999 -0.1141  0.0768
37268W        W40488   5.868  11.859  15.179  0.2813  0.4983  0.0408
37269W        W40489   9.443   0.028  14.779 -0.0749  0.2587  0.1187
37270W        W40490   8.003  12.190   0.427 -0.0153 -0.2293 -0.1349
37271W        W40491   9.510   0.241  13.523  0.1032  0.0921  0.1236
37272W        W40492  15.935  14.974   5.983  0.2228 -0.0269  0.0372
37273W        W40493  12.235  17.019  15.215 -0.0732  0.0401  0.0192
37274W        W40494  17.888  14.411   3.867 -0.0802 -0.0078  0.0523
37275W        W40495  10.980  11.906  16.530 -0.0587  0.0092  0.0399
37276W        W40496  10.233  13.717  16.426 -0.0853 -0.2868  0.0609
37277W        W40497  12.995  18.157   1.444 -0.2085 -0.0645  0.0995
37278W        W40498  11.217  17.167  15.215  0.0484  0.0535  0.1683
37279W        W40499  16.162   7.268  17.794 -0.0848 -0.0860 -0.2104
37280W        W40500  11.276  11.244  17.129 -0.0135  0.1241  0.0059
37281W        W40501  12.550   8.205  17.042 -0.0621  0.0707 -0.0509
37282W        W40502   1.444   2.648  12.792  0.0991  0.0338 -0.1054
37283W        W40503  11.743   8.576  17.944 -0.2493 -0.2732 -0.0210
37284W        W40504  11.077   8.800   3.546  0.1221  0.1066  0.0603
37285W        W40505   4.580  16.333  14.923  0.0673  0.1540 -0.0646
37286W        W40506  16.624  14.756  13.423  0.0736  0.0425  0.0208
37287W        W40507   9.971  13.189  11.672  0.0877 -0.2397  0.0854
37288W        W40508  12.000  17.730   5.458 -0.2505 -0.0303  0.0693
37289W        W40509  16.587   0.176  14.310 -0.2522  0.1297  0.1249
37290W        W40510   5.207   6.703   0.890 -0.0969 -0.0611  0.0415
37291W        W40511   2.090  14.861  15.698  0.0622 -0.2744  0.1474
37292W        W40512  10.144  10.007  12.365  0.4186 -0.0287  0.1624
37293W        W40513  14.200   0.068  18.091 -0.1326  0.1534  0.2198
37294W        W40514   0.228  12.910   1.812 -0.1480  0.1729  0.1513
37295W        W40515  11.198   9.447   6.752 -0.0364 -0.0679 -0.0680
37296W        W40516  12.419  14.758   2.123 -0.0468 -0.0496  0.1660
37297W        W40517  12.724   9.957   2.665 -0.0534  0.3247  0.1262
37298W        W40518   8.239   6.703   5.739  0.1277  0.0501 -0.0123
37299W        W40519  11.683   8.148   2.211  0.3913 -0.1231  0.1247
37300W        W40520   6.417  13.060  17.393  0.2399 -0.0412 -0.2969
37301W        W40521  14.935  14.240  18.250 -0.0207  0.1439 -0.1252
37302W        W40522  10.830  15.223  13.908  0.2170 -0.1724  0.2043
37303W        W40523   5.286  11.198  12.590  0.0318 -0.0520 -0.0314
37304W        W40524  13.600  11.235  14.500  0.0313 -0.1159 -0.1776
37305W        W40525  12.520  10.790  12.657 -0.0457  0.3105  0.1034
37306W        W40526  14.051   4.546   3.403  0.1345 -0.0831 -0.0106
37307W        W40527  14.882  10.352  12.456 -0.2808  0.0739 -0.0402
37308W        W40528  12.411   9.664  11.060 -0.1316  0.1314 -0.2413
37309W        W40529   8.404  14.040  12.660  0.6809 -0.2796  0.0795
37310W        W40530  14.344   3.934   0.315  0.0172 -0.2232 -0.0315
37311W        W40531  12.711   9.385  14.208  0.3192  0.2647 -0.2148
37312W        W40532  13.656  14.017  17.472 -0.2519 -0.3898 -0.0286
37313W        W40533   9.909   9.078   8.821  0.1100  0.2791  0.0079
37314W        W40534  15.896  11.352   8.939 -0.1343  0.2327  0.2045
37315W        W40535  14.555  12.029   5.361 -0.1289 -0.0546 -0.0284
37316W        W40536   7.597  12.971  13.451  0.0683 -0.1572  0.2146
37317W        W40537  15.142  15.063   9.406  0.2937 -0.3003  0.2656
37318W        W40538   5.007   6.566   4.188  0.0547 -0.0651  0.0446
37319W        W40539  15.495  11.731   3.839 -0.1650  0.0385  0.0330
37320W        W40540   6.323  13.398   9.916 -0.1197  0.0175 -0.3153
37321W        W40541  15.696  14.938  13.990 -0.0335 -0.1435  0.2773
37322W        W40542  11.957   7.096   1.249  0.1733  0.0851 -0.0371
37323W        W40543  17.910   9.453  12.643  0.1987 -0.0289 -0.0731
37324W        W40544  10.753   9.042  17.451 -0.5326  0.1475  0.2167
37325W        W40545   4.018  13.051  13.781  0.1869  0.1379 -0.1756
37326W        W40546  11.834   6.918   1.724 -0.0628  0.2131 -0.0778
37327W        W40547  14.870  11.485  15.024  0.2684 -0.2699 -0.0104
37328W        W40548  13.593   5.756  15.464 -0.0235 -0.0867  0.0764
37329W        W40549  10.915   9.767  15.435  0.0847  0.1636  0.3730
37330W        W40550  10.225  15.179  14.259 -0.3147 -0.0488  0.2965
37331W        W40551  12.454  16.256  16.288 -0.2144 -0.0999 -0.0097
37332W        W40552   6.614   5.367  18.174 -0.0733  0.0751  0.1273
37333W        W40553  10.930   2.808  12.435 -0.0068  0.0711 -0.2462
37334W        W40554  10.861   9.169   9.290  0.2595 -0.0575 -0.1236
37335W        W40555  11.390  12.544   5.147  0.1165 -0.2282 -0.0230
37336W        W40556   9.890   8.041  10.243 -0.1853  0.1950 -0.1314
37337W        W40557  12.758  13.987  10.391 -0.1870 -0.0748 -0.3708
37338W        W40558  11.001   9.438   4.195  0.0101  0.0334  0.0900
37339W        W40559   9.119   2.131   1.848  0.5209 -0.0995 -0.1129
37340W        W40560  11.766   7.471   6.233 -0.0295 -0.0245 -0.0007
37341W        W40561  15.799  15.591  16.767 -0.0973  0.0039  0.3308
37342W        W40562  14.052   9.527   3.089 -0.2693 -0.0912 -0.2031
37343W        W40563   8.649   6.580  15.671  0.2009 -0.0889  0.0416
37344W        W40564  14.753  11.111   1.900 -0.1891  0.1136 -0.0649
37345W        W40565  15.572  17.831  12.340  0.0840  0.2144  0.0210
37346W        W40566  15.858  10.163   5.046  0.2519 -0.0688  0.1070
37347W        W40567   2.470   0.661  13.295  0.0135  0.3114  0.2961
37348W        W40568  17.725  15.513  14.691  0.1590  0.2258  0.1204
37349W        W40569  14.185   7.316  11.547 -0.0620  0.0937  0.0721
37350W        W40570  14.838  13.533   1.673  0.1664 -0.2229  0.1556
37351W        W40571   1.446  15.974  12.721 -0.1516 -0.0664 -0.1028
37352W        W40572  17.490  15.105  13.286 -0.1875 -0.0089  0.1785
37353W        W40573   9.105   6.650  14.791 -0.0021 -0.2378  0.2135
37354W        W40574   9.101  10.801  16.687 -0.1471 -0.1302 -0.0343
37355W        W40575  10.843   7.385  17.884  0.0940  0.0073  0.2219
37356W        W40576  15.124   0.640  11.618 -0.2264 -0.0490  0.4816
37357W        W40577  14.906  14.601   6.986  0.1136  0.1235 -0.1068
37358W        W40578  11.243  17.232  15.687  0.0342  0.0311 -0.1533
37359W        W40579  14.108  16.529   8.184  0.1456  0.3523  0.0118
37360W        W40580  11.013   6.501   2.259  0.0079 -0.1197 -0.1571
37361W        W40581   0.313  11.663   1.892 -0.0864  0.2980  0.1653
37362W        W40582   9.285   5.862  13.702 -0.2701  0.2309 -0.2337
37363W        W40583   0.003  14.895  17.520  0.0565 -0.1219  0.2810
37364W        W40584  11.918  13.503  15.389  0.3459  0.1348 -0.0151
37365W        W40585   9.725  12.615  11.889  0.0624 -0.3228  0.2824
37366W        W40586  10.455  11.791   8.198 -0.2235  0.2657  0.0009
37367W        W40587  10.833   6.769  18.002 -0.1385 -0.2120 -0.1092
37368W        W40588  15.925   5.143   6.352  0.1300 -0.2479  0.0345
37369W        W40589   5.301   9.119   1.191 -0.1797 -0.0399  0.1758
37370W        W40590  10.161  10.431   5.653 -0.1816 -0.0624 -0.0518
37371W        W40591  13.894  11.736   2.637  0.1538  0.1512  0.1924
37372W        W40592  10.365  11.594  15.070  0.0461 -0.0283  0.2523
37373W        W40593  10.438  12.885  13.491 -0.3053  0.3293 -0.3191
37374W        W40594  14.780  10.690  15.985  0.2286  0.0751 -0.1779
37375W        W40595  15.903  13.539  15.114  0.2909 -0.0426 -0.2090
37376W        W40596  12.737  12.430  13.599  0.2927  0.3903  0.2150
37377W        W40597  12.318   9.657  17.422  0.2245  0.2145 -0.2179
37378W        W40598  17.913  14.449  12.077  0.0583  0.0894  0.2034
37379W        W40599  12.342   0.014  17.786 -0.1524 -0.0412 -0.0955
37380W        W40600  14.732  10.606   6.708 -0.1674  0.1070 -0.2612
37381W        W40601   7.251  10.396  12.843 -0.0317  0.0107 -0.3406
37382W        W40602   9.836  10.148  16.191 -0.1095  0.0545 -0.3273
37383W        W40603  17.209  15.753   0.836  0.2080  0.0454  0.0486
37384W        W40604   4.935  10.491  17.255 -0.0165  0.0236  0.1136
37385W        W40605  13.027  10.478  13.356  0.0208 -0.0072  0.2302
37386W        W40606  12.853  16.193   3.382  0.0524  0.0124  0.2929
37387W        W40607   7.560   3.481  18.247 -0.1295 -0.3764  0.1993
37388W        W40608  17.398  10.636   9.313  0.1136 -0.0482 -0.2430
37389W        W40609   9.545   7.921  16.694 -0.1002  0.2043 -0.1862
37390W        W40610  13.684  17.891  17.682 -0.1185 -0.0423 -0.3520
37391W        W40611   5.827  11.534  13.381  0.1435  0.1897  0.3466
37392W        W40612  12.833  11.338   8.163  0.1817  0.0255  0.2152
37393W        W40613  17.287   3.922  16.540 -0.1122  0.0074  0.0860
37394W        W40614  14.166   9.486   1.688 -0.2435  0.3496  0.2776
37395W        W40615  14.928   0.292  11.007 -0.1096 -0.1483 -0.1611
37396W        W40616   9.994  17.350  17.354 -0.0601 -0.2703 -0.2250
37397W        W40617  10.093  12.323  18.102 -0.2926  0.0219 -0.1445
37398W        W40618  14.833  13.593  10.323  0.0661  0.1604 -0.2097
37399W        W40619  15.633  14.415  15.008 -0.1938 -0.1600  0.1456
37400W        W40620  11.366  11.202  11.367  0.0988 -0.2056 -0.0146
37401W        W40621  14.508  13.866   5.866 -0.1183 -0.1086 -0.0397
37402W        W40622   8.403   9.286   0.938  0.1904 -0.0321 -0.2267
37403W        W40623   1.112  16.761  17.065 -0.0174 -0.2818 -0.0258
37404W        W40624  13.434  14.496   9.265 -0.0579  0.2403  0.2636
37405W        W40625   1.535  16.722   5.471 -0.0534 -0.0101 -0.2296
37406W        W40626   8.946   8.906   9.699  0.3124 -0.0670 -0.3799
37407W        W40627  12.997  17.368   4.724 -0.0873 -0.3457  0.3152
37408W        W40628  11.929  10.986   9.379  0.2693  0.1616  0.2639
37409W        W40629  17.581  13.859  12.582 -0.0123  0.0130 -0.1651
37410W        W40630   9.071  14.797   2.693  0.3330 -0.0589 -0.3178
37411W        W40631  13.107  17.576   0.051  0.1148 -0.0722 -0.0553
37412W        W40632   7.547  12.401  13.419  0.0914  0.0262  0.0241
37413W        W40633  12.312  13.822  14.647 -0.2879  0.1423 -0.0464
37414W        W40634  10.624  13.949  12.075 -0.1042  0.0791  0.0434
37415W        W40635  11.486  10.901  15.730 -0.0414  0.4909 -0.2848
37416W        W40636   4.317   2.192   1.078  0.0532 -0.2543 -0.0153
37417W        W40637  15.480   7.702   0.342  0.2129  0.0679  0.0816
37418W        W40638  11.484  13.669  15.670  0.3580 -0.0210 -0.2284
37419W        W40639  12.627   9.200  18.163 -0.0120 -0.1260  0.2173
37420W        W40640  17.005   2.032   6.347  0.0096 -0.1383 -0.0761
37421W        W40641  13.571  15.841   5.263 -0.1246 -0.1969  0.4090
37422W        W40642  17.072   1.209  17.291 -0.3302 -0.1100 -0.0071
37423W        W40643   0.513  16.686  11.396 -0.1827  0.1810 -0.2554
37424W        W40644   6.969  16.762  12.629 -0.3147 -0.0319  0.1886
37425W        W40645   9.820  14.977   3.055  0.0921  0.1399  0.0106
37426W        W40646  12.798   3.358   0.588  0.3138 -0.0158  0.2758
37427W        W40647   0.982  12.972   0.276 -0.0713 -0.0377  0.0741
37428W        W40648  11.512  10.608  17.593  0.1063 -0.2017 -0.1691
37429W        W40649  14.624   3.125   0.211  0.3293 -0.3942  0.0531
37430W        W40650  14.060  13.223   0.187 -0.1775  0.1947 -0.0719
37431W        W40651  13.569   5.499   4.880  0.0825 -0.2025 -0.0044
37432W        W40652  12.356  15.794  14.762 -0.2594 -0.2950 -0.0319
37433W        W40653   9.364  17.938   4.985 -0.4240  0.1550  0.0291
37434W        W40654   9.258   4.366   0.999  0.1327 -0.1052 -0.0826
37435W        W40655   0.556   0.797   1.536 -0.0176  0.0864 -0.1346
37436W        W40656   4.728  16.554  13.508 -0.0344 -0.1351  0.0777
37437W        W40657  16.039  17.363  13.615 -0.0038  0.2353 -0.0334
37438W        W40658  16.009  15.463   3.435 -0.2078  0.3396  0.4763
37439W        W40659   8.095  15.965   1.100 -0.0007  0.0209 -0.1370
37440W        W40660  14.295   1.389  17.970  0.3401  0.1254  0.0048
37441W        W40661  10.789  12.089   7.420 -0.5483 -0.0754  0.1145
37442W        W40662  12.055  17.638   5.934  0.1039 -0.1163 -0.1797
37443W        W40663   4.992   4.766   4.956 -0.0848 -0.0199  0.3636
37444W        W40664  12.351   5.157   5.651 -0.0962  0.1522 -0.0209
37445W        W40665   5.407  15.575   0.023  0.0712  0.0634  0.5123
37446W        W40666  11.410  14.052  18.142  0.0679  0.1256  0.0347
37447W        W40667   7.084  13.730   3.488 -0.0987 -0.1775 -0.1017
37448W        W40668   6.406   8.910   6.238 -0.1706 -0.1457  0.0060
37449W        W40669  15.094  10.780   1.675  0.0826 -0.0976  0.5121
37450W        W40670  18.010  12.245   7.453 -0.0129  0.0714 -0.3326
37451W        W40671  15.872  12.778   3.222  0.3070  0.0580 -0.1037
37452W        W40672   8.830   1.586  17.662  0.0465 -0.0639 -0.1259
37453W        W40673  11.203   0.495   4.646  0.2875 -0.2332 -0.0447
37454W        W40674  11.801  15.384  16.616 -0.1272  0.1698  0.0994
37455W        W40675  14.730   3.705  11.025 -0.0541  0.0878 -0.1147
37456W        W40676  14.427  16.527   6.596 -0.2599  0.0931 -0.0335
37457W        W40677  12.866   3.589  10.456 -0.3706 -0.2059 -0.3221
37458W        W40678  14.377  14.544  16.729 -0.1766  0.2432 -0.1350
37459W        W40679  13.671  17.089   1.271 -0.1973  0.3668 -0.1422
37460W        W40680  11.235   2.894  17.596  0.0669 -0.0229  0.1424
37461W        W40681   3.259  15.866   3.518  0.1631  0.1014 -0.1995
37462W        W40682  10.408   4.787   4.159  0.4643 -0.1328 -0.1671
37463W        W40683   7.149  17.986   0.340  0.0197  0.0391  0.1293
37464W        W40684  17.276  17.523  15.636  0.0450  0.0728  0.0726
37465W        W40685  12.905   2.260  11.089 -0.2802 -0.3289 -0.2628
37466W        W40686  10.428  14.109  15.928  0.2062 -0.1374 -0.0871
37467W        W40687  13.243   4.069  14.472 -0.2362  0.4326  0.2454
37468W        W40688   5.294  13.877   2.270 -0.3302 -0.1133 -0.0133
37469W        W40689   8.256  15.819  14.783 -0.1295 -0.2299 -0.0261
37470W        W40690  15.282   3.033   3.407  0.2522  0.1846  0.0884
37471W        W40691  13.097  10.747   6.229 -0.1227 -0.1560  0.1378
37472W        W40692   9.500  14.190  15.634  0.0148 -0.1163 -0.0678
37473W        W40693  17.602  11.223  18.028  0.2244  0.0554 -0.0524
37474W        W40694  11.094  15.045   5.684 -0.1400 -0.1944  0.0097
37475W        W40695  15.420  18.164  17.253 -0.0009 -0.1221 -0.2394
37476W        W40696   6.530  17.827   5.580 -0.0228 -0.0553 -0.1302
37477W        W40697   4.521  13.330   2.148 -0.0424  0.0063  0.1700
37478W        W40698  11.413   7.202  13.685  0.1652  0.1952 -0.0412
37479W        W40699   8.434  10.956   8.847  0.3330 -0.1095  0.2198
37480W        W40700  16.182  13.651  13.653 -0.2102  0.0287  0.2203
37481W        W40701  11.796  18.006  17.577  0.0789 -0.2972  0.1429
37482W        W40702   7.025  17.050   0.974 -0.0029 -0.3116  0.2286
37483W        W40703  15.412   3.549   1.061  0.1363  0.3387  0.0680
37484W        W40704  12.758  16.756   8.289 -0.2792 -0.2732  0.1648
37485W        W40705  14.419   1.859  14.243  0.1275 -0.1334  0.0729
37486W        W40706  12.388   1.160   0.002 -0.1735 -0.0004  0.0048
37487W        W40707  11.084   1.643   3.885  0.2088  0.0831  0.2435
37488W        W40708  11.442   6.193   7.603 -0.0079  0.0664  0.1167
37489W        W40709  10.641  13.911   9.028  0.1885  0.3342 -0.0473
37490W        W40710  18.202   2.770   0.793  0.1564 -0.2483  0.0201
37491W        W40711  11.053  17.197   1.077  0.3495 -0.0563  0.1804
37492W        W40712   7.906  13.415   1.531 -0.1371  0.1101 -0.4484
37493W        W40713   9.415   0.138  16.958 -0.2934 -0.3001  0.2273
37494W        W40714   4.824  11.590  14.244 -0.0637 -0.4478  0.2890
37495W        W40715   8.985  12.770   6.100  0.0163  0.0793  0.1396
37496W        W40716  10.744   9.590   3.234 -0.2379  0.3922 -0.3541
37497W        W40717   5.739   5.213   7.521 -0.1978 -0.0097 -0.2014
37498W        W40718  14.364   7.469   1.358  0.0226 -0.0341 -0.0425
37499W        W40719   4.203   0.805  14.298 -0.1615  0.0254 -0.1389
37500W        W40720  11.550  17.444   5.151 -0.0764  0.2738  0.0031
37501W        W40721   8.309  16.646   5.743 -0.0428 -0.1994  0.0896
37502W        W40722  13.751  17.628   4.409  0.0451 -0.1163  0.0125
37503W        W40723   0.012  16.342   6.575  0.0204  0.1609 -0.1321
37504W        W40724  10.136   1.237   5.287 -0.0719 -0.0448  0.0735
37505W        W40725   9.782  14.861  17.427  0.0283 -0.3695  0.0899
37506W        W40726   9.509   1.036   6.812 -0.0207 -0.3789  0.1047
37507W        W40727  10.108  10.463  16.678 -0.2604  0.3374 -0.2341
37508W        W40728  15.939   0.426  15.172  0.1020 -0.1016  0.1123
37509W        W40729   8.315  16.545  17.708 -0.0397  0.0072  0.1110
37510W        W40730  13.563  12.642   1.772  0.0057 -0.0783 -0.2291
37511W        W40731  16.687   3.947   3.458 -0.1225  0.2071 -0.0465
37512W        W40732  16.272   2.160  14.301  0.2126 -0.0855 -0.2685
37513W        W40733   7.732  12.957  13.959  0.1898  0.4158  0.3269
37514W        W40734  12.041  12.905  13.053  0.0206 -0.1187  0.2055
37515W        W40735   4.510  16.147  13.210  0.4957 -0.2672 -0.0805
37516W        W40736  14.354  13.340   3.993 -0.0143 -0.3533 -0.1368
37517W        W40737  10.039   1.356   4.117  0.0244  0.2963  0.2737
37518W        W40738  13.628   0.360   0.720  0.0479  0.0679  0.2853
37519W        W40739   0.833  16.468   0.840 -0.2145  0.1623  0.0342
37520W        W40740  13.115  15.817   3.485  0.1516 -0.0497 -0.0658
37521W        W40741  10.197   0.682  15.716 -0.0018 -0.0191 -0.1071
37522W        W40742  15.526  13.293  14.739 -0.2744  0.1039 -0.1733
37523W        W40743   6.381  17.252   2.631  0.0562  0.0151  0.1735
37524W        W40744   8.614  10.060  16.479  0.3229 -0.0315 -0.1069
37525W        W40745  15.735   5.202   4.529 -0.1589 -0.1112 -0.1748
37526W        W40746  13.333  17.152  16.420 -0.3361  0.1450  0.0763
37527W        W40747  13.789  17.098   7.075  0.0064  0.1327 -0.1236
37528W        W40748  10.225  15.356   2.973  0.1712  0.1535 -0.0131
37529W        W40749   9.679   8.304   4.044  0.1382  0.2859  0.1304
37530W        W40750   9.837  13.857   2.933 -0.3847 -0.1451 -0.1079
37531W        W40751  14.333  12.919   1.777  0.1856  0.0792 -0.0240
37532W        W40752   0.806  16.808  12.394 -0.1751  0.1123  0.0170
37533W        W40753  15.302  16.696   2.978 -0.4110  0.1902  0.1491
37534W        W40754  14.350   2.918   1.027 -0.0060 -0.1436  0.3532
37535W        W40755   9.804  13.647  11.414  0.2348 -0.3728  0.0922
37536W        W40756  12.203  13.042  17.781  0.0638  0.0355 -0.1291
37537W        W40757   9.043  16.801   0.019  0.0024 -0.1088  0.0965
37538W        W40758  10.362   1.108   7.324  0.2415  0.1616 -0.1075
37539W        W40759   8.358  15.131  13.663  0.1189  0.2414 -0.1820
37540W        W40760  14.457  18.154   2.898  0.2046 -0.0605  0.1084
37541W        W40761  14.856   0.251   2.829 -0.2741 -0.0633  0.2820
37542W        W40762  12.667   4.330   0.135 -0.0328  0.1472  0.0334
37543W        W40763  11.319  16.077   2.184  0.0853  0.3330 -0.1681
37544W        W40764  11.578   2.251   1.262  0.1514 -0.3152 -0.0014
37545W        W40765  16.451   1.534   2.888  0.0666 -0.0424  0.1544
37546W        W40766  12.135  12.930   3.019  0.1140 -0.1545 -0.2632
37547W        W40767   7.278   6.011   7.621 -0.0297  0.0319 -0.2755
37548W        W40768  12.885   1.655   1.299 -0.2400 -0.0679 -0.0462
37549W        W40769  15.725   5.783   3.802 -0.0231 -0.2142 -0.0378
37550W        W40770   9.462   3.289   3.447 -0.2933  0.0505 -0.0435
37551W        W40771  12.906   2.880   5.486 -0.0611  0.1501 -0.0639
37552W        W40772  11.903  14.488   2.210 -0.0019  0.0235 -0.1651
37553W        W40773  10.647  15.523   0.409 -0.0945 -0.3360  0.0690
37554W        W40774  16.644   3.136  11.309  0.0961 -0.2478 -0.3141
37555W        W40775  13.164   1.813   2.125  0.1215  0.2518 -0.1471
37556W        W40776  12.962  16.538   6.394 -0.1331  0.0064 -0.2085
37557W        W40777   9.889  13.738  14.265  0.1543  0.0836 -0.0471
37558W        W40778  14.508  14.185  15.992  0.1751 -0.0648  0.0883
37559W        W40779   0.592   5.423   2.593 -0.2543  0.0037 -0.0150
37560W        W40780  13.797   6.112   1.356 -0.0136 -0.2247 -0.0270
37561W        W40781   9.015   0.258   1.129  0.1621 -0.3713 -0.0397
37562W        W40782   0.610  15.085   2.319 -0.1383  0.1130  0.0614
37563W        W40783   9.658  12.633  15.474 -0.0833  0.2122  0.0171
37564W        W40784   1.470  18.023   3.525  0.0305  0.2091 -0.1669
37565W        W40785  11.811  14.377  18.022 -0.1535 -0.1232 -0.3816
37566W        W40786   0.520  10.194   0.816  0.4348 -0.0161 -0.1706
37567W        W40787  12.850  17.432  15.471 -0.0061  0.0753 -0.1628
37568W        W40788   9.895  16.027   1.185  0.2182 -0.0304  0.0670
37569W        W40789  14.428  16.649   1.146 -0.1598  0.0157 -0.1227
37570W        W40790  14.742   9.050   0.874 -0.2022 -0.0946 -0.1067
37571W        W40791  14.984   2.128  17.341  0.1452 -0.1236  0.2900
37572W        W40792  13.683   5.768  14.701  0.1349  0.0660 -0.3204
37573W        W40793  13.791  16.140   4.485  0.2369 -0.1094  0.1169
37574W        W40794  17.855  16.098   3.559 -0.0727  0.0884 -0.1899
37575W        W40795   4.142  12.682   9.967  0.1011  0.1113 -0.2736
37576W        W40796   7.573   0.639   9.593  0.0521  0.1706 -0.0023
37577W        W40797   7.942  15.374  18.114 -0.0602 -0.0130  0.0113
37578W        W40798   7.487  16.783  16.367 -0.1770 -0.0055 -0.1811
37579W        W40799   8.521   2.871  13.506  0.1910  0.0226 -0.0709
37580W        W40800   7.440  11.974   1.585 -0.0485  0.2474  0.1467
37581W        W40801  11.774  15.797   0.793  0.1132  0.0628 -0.0283
37582W        W40802  12.002  11.735  10.156  0.1615  0.0683 -0.3070
37583W        W40803   1.562  17.704   5.290 -0.1489  0.0947  0.2769
37584W        W40804   8.576   0.411  17.410  0.0194  0.0278  0.1075
37585W        W40805  17.245   0.178   1.286 -0.0590 -0.0116  0.2351
37586W        W40806  15.194   3.737   2.014 -0.0568 -0.1547  0.1303
37587W        W40807   9.735   3.872   2.037  0.0526 -0.1793 -0.0025
37588W        W40808  10.077  17.705  16.999  0.1245 -0.2127 -0.0766
37589W        W40809  10.397  12.105   2.300  0.2880 -0.1967 -0.0442
37590W        W40810   9.067  11.435  12.010 -0.1557  0.0742 -0.2183
37591W        W40811  11.227   0.208  18.138  0.0188  0.2240  0.3006
37592W        W40812  17.520  13.460  17.525 -0.0474  0.3510 -0.1967
37593W        W40813   7.326  13.306  15.314  0.0227 -0.1269  0.0151
37594W        W40814   9.969   0.395   1.538  0.1048  0.0098 -0.0037
37595W        W40815   0.133   3.088   3.317  0.1047 -0.1028 -0.0439
37596W        W40816  10.086   8.846  15.664  0.2644 -0.0211  0.2802
37597W        W40817   2.183  13.949  15.308 -0.2221 -0.3223 -0.3214
37598W        W40818  14.437   1.012  18.233  0.1402  0.3356  0.0764
37599W        W40819  17.299   7.946   1.200  0.0604 -0.0552  0.2239
37600W        W40820   4.766   0.906   2.283 -0.1016 -0.2226 -0.0154
37601W        W40821   9.341  15.561  17.858 -0.0299  0.1515  0.0535
37602W        W40822   9.284  16.587  16.890  0.2649  0.0007  0.2521
37603W        W40823  15.302   1.082   7.804 -0.0806  0.0256  0.1501
37604W        W40824  17.230   2.312   1.098  0.0844 -0.1171  0.1935
37605W        W40825  15.060   1.442  15.441 -0.1330 -0.0168 -0.1285
37606W        W40826  11.767   8.239  10.624  0.1190 -0.0016  0.1048
37607W        W40827   8.539   0.523   2.394  0.0995 -0.2692 -0.0574
37608W        W40828   9.783  16.916   3.728 -0.2427 -0.0557  0.0456
37609W        W40829   9.005  14.640  17.345 -0.0511 -0.0503  0.0996
37610W        W40830  11.052  16.397  16.281 -0.2892  0.0682 -0.0666
37611W        W40831  14.356   4.372   5.020 -0.0782 -0.1610 -0.1138
37612W        W40832  11.253  16.601   0.918 -0.0364  0.2188  0.0394
37613W        W40833  16.825  14.613   0.488 -0.1551  0.1453  0.0966
37614W        W40834  13.839  10.942   4.532  0.0078 -0.1781  0.1582
37615W        W40835   0.088   1.881  15.275  0.0661 -0.4315 -0.4382
37616W        W40836  12.510  16.443   1.463  0.0459  0.1351  0.1611
37617W        W40837  12.434  12.931  16.688 -0.1655  0.1227 -0.0675
37618W        W40838  13.202   0.158  17.805 -0.2382 -0.1956 -0.0398
37619W        W40839   6.699   4.171   2.441  0.1403  0.0403  0.0325
37620W        W40840   4.635   9.317   3.327 -0.0283 -0.3276  0.0068
37621W        W40841  16.800  10.178  14.613  0.0173  0.0676  0.1063
37622W        W40842   7.518  16.128   3.629  0.1563 -0.0327 -0.0786
37623W        W40843  14.257   4.060  16.254 -0.1530  0.2680 -0.0511
37624W        W40844   9.600  16.938   6.052 -0.0214 -0.0036 -0.0191
37625W        W40845   8.324  14.016   4.783 -0.1139 -0.0471  0.1562
37626W        W40846   9.097   3.647   2.115 -0.1779  0.0164 -0.0752
37627W        W40847   0.709   9.674  10.182 -0.0564 -0.0677  0.0558
37628W        W40848  12.827  14.205  18.215  0.2261 -0.2301  0.0195
37629W        W40849   2.277  11.076   5.799 -0.0619 -0.2246 -0.1408
37630W        W40850   2.241  12.960  14.191  0.0930  0.0056  0.1877
37631W        W40851  12.619   6.752  17.160  0.0632  0.1687  0.1948
37632W        W40852   6.330   7.317   0.400  0.2101  0.0038 -0.3012
37633W        W40853   9.471  17.810  12.907 -0.2465  0.0390 -0.0398
37634W        W40854  12.104   0.851   2.877  0.2595 -0.0112  0.1646
37635W        W40855  15.759   1.807   0.994 -0.0775  0.0110  0.1607
37636W        W40856  14.669   0.874   3.800 -0.0156  0.1385  0.0529
37637W        W40857  13.315   9.755   8.720 -0.0877  0.2688 -0.3622
37638W        W40858   9.781  13.286   1.207 -0.2240 -0.1102 -0.0956
37639W        W40859   7.051   0.028  14.319  0.1247  0.0360  0.1326
37640W        W40860  10.562  11.190   3.465 -0.0672 -0.0636  0.2854
37641W        W40861   1.807  15.910   9.553 -0.0180  0.2104  0.1433
37642W        W40862   6.033   0.781  13.840  0.1260  0.0109  0.2980
37643W        W40863  10.878  15.775   3.312  0.1823  0.0181  0.0921
37644W        W40864  15.205   9.650   3.973 -0.0302  0.1470  0.1266
37645W        W40865  10.408  16.588  17.612  0.0873  0.3113  0.1460
37646W        W40866  11.316  11.355   3.689  0.2101 -0.0206  0.0188
37647W        W40867  15.824  17.857   4.688 -0.2365 -0.0564 -0.3087
37648W        W40868  13.860  15.904   9.286  0.2081  0.0979 -0.0552
37649W        W40869   2.960  10.098   4.610  0.0378  0.0889  0.0944
37650W        W40870   9.261  11.811   6.325 -0.0124  0.0736  0.0542
37651W        W40871  13.794  13.454   1.704  0.1540 -0.1281 -0.0445
37652W        W40872  14.587  17.582  16.061  0.1494  0.2322  0.0834
37653W        W40873  11.395  15.787   3.684 -0.1240  0.1435  0.2067
37654W        W40874  10.729  16.424   3.794 -0.3365  0.2058 -0.0215
37655W        W40875  15.158   9.071   1.754  0.0160 -0.0990  0.2781
37656W        W40876   7.383  15.670   0.835  0.0741  0.0403 -0.2388
37657W        W40877  10.751   1.400   3.572 -0.1641 -0.0020  0.2030
37658W        W40878   7.154   4.181   2.747 -0.1100 -0.1699 -0.2428
37659W        W40879   6.887   2.706  18.078  0.1104  0.0275 -0.1879
37660W        W40880  17.203   7.817  17.330 -0.1700 -0.0568  0.0167
37661W        W40881  10.831  16.305  17.609 -0.0590 -0.0206  0.1311
37662W        W40882  15.924   5.146   4.994  0.0180 -0.0854  0.3544
37663W        W40883  13.862   8.117   1.806  0.0263 -0.0200  0.1668
37664W        W40884  14.066   8.692  16.860 -0.1232 -0.0307 -0.0827
37665W        W40885  13.478  13.942   6.091 -0.0505 -0.3176 -0.1778
37666W        W40886  10.132  14.618  14.637  0.1191 -0.1180  0.0094
37667W        W40887   7.026   2.826   4.890  0.1060 -0.0926 -0.0665
37668W        W40888   5.347  17.518   1.457  0.2419 -0.3441  0.1224
37669W        W40889   3.190   0.225  15.748  0.0077  0.2083  0.0334
37670W        W40890  10.768  15.757   6.151 -0.3199  0.0944 -0.1980
37671W        W40891  15.045   5.601   4.755 -0.2204 -0.2435 -0.2047
37672W        W40892  12.076   9.366  17.812 -0.1671 -0.1003 -0.3442
37673W        W40893   9.185   5.356  15.659  0.3825 -0.0950  0.1990
37674W        W40894  13.080  13.137   9.274 -0.1013  0.0531  0.0399
37675W        W40895  14.008   3.264   4.348 -0.0713 -0.0116  0.1790
37676W        W40896  11.682  11.966   3.088 -0.0621  0.1175 -0.1090
37677W        W40897  13.534  10.745   7.953  0.2060  0.2227 -0.0475
37678W        W40898  10.710   2.464   6.381  0.0245  0.0731  0.1043
37679W        W40899   8.761   1.120   1.585 -0.1096 -0.1343 -0.3571
37680W        W40900   9.827   1.904   6.143 -0.0920  0.0421  0.0350
37681W        W40901  10.119   1.933  17.250 -0.0797 -0.0618  0.0016
37682W        W40902   7.934  13.565   5.548  0.1195  0.2121  0.0638
37683W        W40903   5.999  13.259  16.004 -0.0443 -0.1360 -0.0707
37684W        W40904  10.283   0.238  16.714  0.0176 -0.0666  0.0023
37685W        W40905   6.161   0.242   3.876  0.0334 -0.1881  0.0632
37686W        W40906  13.360  14.731   2.703 -0.0061 -0.0866  0.0117
37687W        W40907  17.155   0.962  12.849 -0.1598  0.0556  0.2227
37688W        W40908   6.390  11.884  10.593  0.1013 -0.2488  0.2231
37689W        W40909  11.289   4.081   0.860 -0.0575 -0.1398  0.0508
37690W        W40910   7.595  10.553   7.504  0.1179  0.1905  0.0106
37691W        W40911   9.750  17.824   1.318  0.1602 -0.2033 -0.0139
37692W        W40912  14.603  17.560   6.443  0.0244  0.0910  0.3158
37693W        W40913  15.045   1.534   9.869  0.0060 -0.0266 -0.0494
37694W        W40914   2.726  11.112   4.433 -0.2685  0.1042 -0.0750
37695W        W40915  12.621  10.563   0.230  0.0008  0.0947  0.1688
37696W        W40916  16.971   1.714   2.902  0.3254 -0.1755  0.2126
37697W        W40917   0.410  13.315  11.405 -0.0169 -0.4461 -0.1502
37698W        W40918  10.378  15.069   0.125 -0.1534 -0.1360 -0.0378
37699W        W40919   2.670   0.673  14.252 -0.0936  0.1636 -0.0220
37700W        W40920   9.519   5.338  15.310  0.2180 -0.1400  0.0547
37701W        W40921   8.934  12.057   0.617  0.2041  0.2449  0.0066
37702W        W40922  10.379  13.475  17.313 -0.0718  0.0314  0.0033
37703W        W40923   5.488   0.203  16.853  0.1264 -0.0620  0.0328
37704W        W40924  13.945   5.718   0.496  0.2988  0.2783  0.1495
37705W        W40925  15.479  10.427  17.330  0.1701  0.1162 -0.4246
37706W        W40926   1.324  17.972  12.916 -0.1706  0.1061  0.0854
37707W        W40927  10.108   0.190   6.630 -0.1036  0.1422 -0.0721
37708W        W40928  10.745  15.081  16.199  0.2476  0.3263 -0.0116
37709W        W40929  17.472  17.531  16.127  0.2516 -0.0070  0.1332
37710W        W40930  14.700  17.511   0.256 -0.3449 -0.1091  0.1177
37711W        W40931  17.792   4.972   5.535  0.2393 -0.1161 -0.0459
37712W        W40932   4.421  14.686   4.515 -0.0332 -0.0285 -0.2034
37713W        W40933   8.300  13.141   0.454  0.2631 -0.0226  0.2553
37714W        W40934  16.007  13.588   2.059 -0.4017 -0.0719 -0.1144
37715W        W40935   5.178   2.306   0.271 -0.0684 -0.0773  0.2809
37716W        W40936   9.614   1.537   0.629 -0.0645  0.0734  0.1561
37717W        W40937  13.329   2.525   4.269 -0.3353 -0.2650 -0.1020
37718W        W40938   3.011  15.344   1.310 -0.2908  0.3178 -0.2368
37719W        W40939  10.400  16.026   1.103 -0.1713  0.0911  0.0600
37720W        W40940   9.229  17.510   4.168  0.0653 -0.1716 -0.0517
37721W        W40941   8.679  11.740  16.028 -0.1357  0.1089 -0.1578
37722W        W40942   8.925   1.703   9.642 -0.0810  0.1598  0.2798
37723W        W40943  15.241  11.246   7.771  0.1479 -0.1277  0.1257
37724W        W40944   4.540   0.085  14.283 -0.4759 -0.0451 -0.4495
37725W        W40945   6.688  15.558  14.445  0.2118 -0.0567  0.0659
37726W        W40946   5.708  18.032   7.936  0.0679 -0.0383  0.0117
37727W        W40947  15.114   4.348  15.749  0.0752  0.0514  0.1338
37728W        W40948  10.978   8.701   7.301 -0.2685  0.2317  0.0585
37729W        W40949  11.259  15.555   0.624  0.2457  0.2610 -0.1295
37730W        W40950  13.419   1.361   1.814 -0.0703  0.1790  0.1855
37731W        W40951  15.518   4.229   7.855 -0.1114 -0.1491  0.3469
37732W        W40952  13.176   1.595   0.084 -0.0392 -0.0902 -0.0061
37733W        W40953   9.799  13.057   0.671 -0.0915 -0.0216 -0.3718
37734W        W40954  10.305   5.361   3.829 -0.0347  0.2275  0.1219
37735W        W40955  13.864  16.297  18.162  0.0809 -0.3531  0.2350
37736W        W40956   5.965  14.011   5.727  0.2535  0.0710  0.2040
37737W        W40957   9.794  12.328   3.971 -0.0578  0.0906  0.0257
37738W        W40958  18.118  14.858   3.822 -0.3282  0.1894  0.1692
37739W        W40959  13.801  14.956  15.997  0.3893 -0.3179 -0.1298
37740W        W40960  13.033  16.434   4.453  0.1519 -0.0643  0.0652
37741W        W40961  13.447  13.447   6.476 -0.0278 -0.0704 -0.1299
37742W        W40962  14.646   2.212   0.796 -0.3472  0.0929  0.0433
37743W        W40963  10.041   3.519   9.368  0.0911  0.0535 -0.0691
37744W        W40964  11.313  14.250   0.946  0.0842  0.0491  0.1714
37745W        W40965  17.900   1.112  17.941 -0.2093  0.0257 -0.2924
37746W        W40966   7.189   3.255  16.373  0.3209  0.0181  0.0482
37747W        W40967   7.281  16.173   4.774  0.0842 -0.1421  0.4039
37748W        W40968   6.021  11.321  14.221 -0.0913  0.0226 -0.0930
37749W        W40969  17.507   1.051  17.114  0.1827  0.0285  0.0521
37750W        W40970  11.364  13.650  17.875  0.2944  0.1782  0.0144
37751W        W40971   9.034  16.084  15.035  0.1091  0.0163  0.0477
37752W        W40972  10.393   3.912   3.542  0.1405  0.2832  0.2624
37753W        W40973   5.079   0.440   2.362 -0.3068 -0.1462 -0.0720
37754W        W40974   7.635  12.145  16.832  0.1419 -0.0045 -0.0083
37755W        W40975  16.492   6.825   1.184  0.2697 -0.1896  0.1845
37756W        W40976   8.726   9.573   3.703  0.3618 -0.0700 -0.0560
37757W        W40977  11.633  16.214  16.188  0.2910 -0.2216  0.0370
37758W        W40978   6.682   5.233   5.020  0.1421  0.1060  0.0900
37759W        W40979  13.141   0.706  18.070 -0.1604 -0.0934  0.1005
37760W        W40980  12.525  13.421   1.240  0.1785 -0.3323 -0.1066
37761W        W40981  14.449  14.766   7.149  0.1640  0.1320  0.2268
37762W        W40982  10.785  17.805  17.709  0.0008  0.1210 -0.0814
37763W        W40983   6.708   1.387  14.593 -0.2666  0.1119  0.1532
37764W        W40984   7.455   2.995   0.255  0.2814  0.2957 -0.0271
37765W        W40985   9.906   1.040   3.752 -0.0489 -0.0318 -0.0091
37766W        W40986   2.172  12.742   4.091  0.1222 -0.0816  0.2476
37767W        W40987  10.783   1.801   8.354  0.0100 -0.1918 -0.3024
37768W        W40988  11.798  13.821   6.330  0.1703  0.1240  0.2091
37769W        W40989  11.333   6.841   3.781  0.1395 -0.0461  0.0274
37770W        W40990  15.710   6.199   4.413 -0.0378  0.0474 -0.3466
37771W        W40991   2.592   3.856   5.733 -0.1085  0.1095 -0.1102
37772W        W40992   7.029  12.194   0.875 -0.2152 -0.0383 -0.0442
37773W        W40993  10.122  15.939  13.328  0.2197  0.2680 -0.1925
37774W        W40994   1.653   9.006   0.960  0.1803 -0.2515 -0.1004
37775W        W40995   8.466  14.163  10.751  0.0081  0.0875  0.1515
37776W        W40996   7.255   1.968  15.357 -0.0130 -0.3802  0.0755
37777W        W40997  10.332  12.185   8.498  0.3358  0.0336  0.1843
37778W        W40998  16.129  14.422   9.832  0.2150  0.1979 -0.0652
37779W        W40999   3.107  17.208   5.503  0.0532  0.0399 -0.0068
37780W        W41000   6.914   4.158   3.788 -0.0736  0.3302  0.0558
37781W        W41001  12.007  16.901   2.530  0.0782 -0.2099  0.0142
37782W        W41002  13.943  17.480   5.210  0.2677 -0.0568  0.4080
37783W        W41003   2.069  10.194   5.971 -0.2966 -0.1635 -0.4420
37784W        W41004  14.957  15.850  16.262  0.4215  0.0478  0.1812
37785W        W41005  12.047  15.106   8.172 -0.1492  0.2165 -0.0742
37786W        W41006  13.548  15.385  17.210 -0.0138  0.2172  0.0879
37787W        W41007   2.221  14.721  17.752 -0.0896  0.0125  0.0533
37788W        W41008  13.689   0.840   4.642  0.0565 -0.0750 -0.0587
37789W        W41009   5.948  18.067  13.073  0.1154 -0.1796  0.0845
37790W        W41010  16.960   3.878  15.686  0.0256 -0.0804 -0.2244
37791W        W41011   2.778  10.553   6.955  0.1947  0.0192  0.1450
37792W        W41012   8.478  10.521  11.331 -0.3890 -0.2436 -0.2476
37793W        W41013  10.960   4.057   1.182  0.0767 -0.1123 -0.2966
37794W        W41014   0.441   5.959   4.543  0.2759  0.1145  0.1516
37795W        W41015  11.386   4.978   0.629 -0.0104  0.1083  0.2093
37796W        W41016  11.632   1.270  15.786 -0.1873  0.0478 -0.1967
37797W        W41017  16.956   2.303   3.008 -0.0948 -0.1250  0.1828
37798W        W41018   6.626  12.787  16.823 -0.0069 -0.1540  0.0495
37799W        W41019  15.360   2.934   5.169  0.0723 -0.2648  0.1181
37800W        W41020  17.418   2.092   1.469 -0.0649 -0.2927  0.1308
37801W        W41021  17.154  13.886   4.221  0.0070 -0.1792  0.1594
37802W        W41022  12.745  17.997  11.122  0.1008  0.1220  0.0019
37803W        W41023  14.518  17.828  17.030  0.0635  0.1563  0.0725
37804W        W41024   3.632   6.239  10.146  0.2566  0.0939 -0.1771
37805W        W41025  15.015  14.411  15.470 -0.2687 -0.1248 -0.0408
37806W        W41026   1.030   1.324   6.662 -0.3640  0.0525 -0.0060
37807W        W41027  16.488  12.979   4.926 -0.1671 -0.0339 -0.1453
37808W        W41028  11.247  12.395   2.433  0.1740 -0.1984  0.1096
37809W        W41029   1.555   5.341   9.200 -0.1668 -0.1073  0.1248
37810W        W41030  12.137  17.401   4.211  0.1278  0.1864  0.3866
37811W        W41031  11.970  17.633   2.922  0.1081 -0.0819 -0.0483
37812W        W41032   0.207  10.193   3.788  0.1476 -0.1090 -0.0705
37813W        W41033  15.848  13.049  13.456 -0.1132  0.2379 -0.0015
37814W        W41034   6.910  13.730   4.652  0.1711  0.2298 -0.1483
37815W        W41035   9.583  17.233   2.257 -0.5613 -0.1750 -0.1178
37816W        W41036  10.860  18.012   4.711 -0.1755 -0.2325  0.2918
37817W        W41037  14.773   1.041   8.611  0.0281 -0.1035 -0.1161
37818W        W41038  14.349  11.601   5.319  0.2664 -0.1566 -0.1695
37819W        W41039  14.909  12.771   2.496  0.2245 -0.0026 -0.2183
37820W        W41040  13.627  13.453   0.476 -0.2476  0.1555 -0.1219
37821W        W41041  10.998  10.084   5.478  0.0003  0.1354  0.2775
37822W        W41042  14.381  16.937   4.914  0.1363 -0.0043 -0.2475
37823W        W41043  16.452  16.757   4.717  0.0827 -0.4511 -0.2496
37824W        W41044  12.662   8.173   6.700 -0.0363 -0.0142 -0.4166
37825W        W41045  14.812  11.020   8.693  0.3383 -0.1812  0.5188
37826W        W41046   8.895  17.234  16.022  0.1218 -0.0018 -0.0897
37827W        W41047  11.573  16.912   7.526 -0.1477 -0.3655  0.0020
37828W        W41048  17.144  14.846   4.663 -0.0591  0.1622  0.4256
37829W        W41049  12.481  13.271   4.913 -0.0614  0.2699 -0.3014
37830W        W41050  14.603  16.677  13.314 -0.0393  0.0247  0.2461
37831W        W41051  13.805  16.427  12.969 -0.1013 -0.0613 -0.0441
37832W        W41052  12.340   0.119  10.332  0.0197  0.1685  0.0595
37833W        W41053  11.382  10.998   5.136 -0.2418  0.0279 -0.1396
37834W        W41054  14.918  14.034   9.074 -0.1549 -0.5275 -0.0453
37835W        W41055  15.333   4.915   8.604  0.0348 -0.1642  0.0383
37836W        W41056  10.994  15.749  11.076  0.2125 -0.2282 -0.0190
37837W        W41057   0.361   4.415   3.020  0.1900 -0.2131 -0.0560
37838W        W41058  10.710   0.286   4.667 -0.0847  0.0113  0.0655
37839W        W41059  15.764  17.622   5.634  0.0383  0.1930 -0.1153
37840W        W41060   8.286   0.881  17.420  0.1912 -0.0491 -0.2928
37841W        W41061   9.385   2.551   8.705 -0.0100  0.0364  0.0938
37842W        W41062  13.391  12.645   2.782  0.0600  0.1049  0.0658
37843W        W41063  14.682   3.783   4.023  0.1831 -0.1585 -0.0704
37844W        W41064   8.396   6.902   9.004 -0.0072 -0.0922  0.1873
37845W        W41065  13.502  16.041  15.591 -0.2085  0.0460 -0.0808
37846W        W41066   9.043   4.394   4.643 -0.1817 -0.0774  0.0540
37847W        W41067   1.525   1.345   0.047  0.0569 -0.0706  0.1210
37848W        W41068  10.140  16.491   1.062 -0.0407  0.5128 -0.1637
37849W        W41069  12.338  15.997   3.510  0.1601  0.1219  0.2339
37850W        W41070  17.457   8.244  17.476 -0.2430  0.2157  0.0142
37851W        W41071  14.889  14.955   8.152 -0.1050  0.1367 -0.0234
37852W        W41072  13.906   5.733   4.211 -0.0431 -0.4603  0.0377
37853W        W41073  11.452  11.862   6.724 -0.4892  0.0842 -0.3173
37854W        W41074   9.795   2.441   8.309 -0.1600 -0.1447 -0.1963
37855W        W41075  12.755   1.470   4.796  0.2833 -0.1039  0.1396
37856W        W41076  13.508  15.735   4.394  0.0061  0.1799 -0.2652
37857W        W41077  17.278   7.172  16.906  0.1877  0.0298  0.0363
37858W        W41078   9.297  18.241   4.620 -0.0560 -0.1692  0.2818
37859W        W41079  11.581  12.429   2.110 -0.2764 -0.0530 -0.3117
37860W        W41080  14.008   7.478   0.561 -0.0263 -0.1250 -0.1184
37861W        W41081  10.881  12.116   3.492  0.0741  0.2624  0.0551
37862W        W41082  12.301   1.272   3.296  0.2957  0.1881  0.0069
37863W        W41083  11.094  13.198   2.901  0.1606  0.0598 -0.2038
37864W        W41084  11.962   9.128   9.035 -0.2468 -0.2759 -0.0029
37865W        W41085  10.112  17.260   3.850 -0.0452  0.0862 -0.3298
37866W        W41086  17.642   2.067   1.892 -0.1901 -0.1133  0.1738
37867W        W41087   9.783  13.171   4.500  0.2853  0.1103  0.1803
37868W        W41088   7.474  16.315   9.876  0.1862  0.1387 -0.0650
37869W        W41089   0.166   4.310  10.525 -0.1245 -0.2808  0.0272
37870W        W41090  12.181  15.499  17.805  0.1619  0.5291  0.2965
37871W        W41091  17.253   6.272   1.454 -0.0217  0.1607  0.1495
37872W        W41092   0.976  10.400   5.144  0.2072 -0.2807 -0.2347
37873W        W41093  17.417  11.128   7.209 -0.0438 -0.1330  0.2640
37874W        W41094   6.339  10.561   7.842 -0.0218 -0.0628  0.1374
37875W        W41095  16.285   9.541   4.599 -0.0305 -0.1730 -0.3892
37876W        W41096   6.968   0.394   9.318  0.0052  0.3658  0.1800
37877W        W41097  12.497  12.377   9.220  0.1207 -0.0373  0.2320
37878W        W41098  11.492  12.093   4.323  0.0390  0.2260  0.5085
37879W        W41099  16.562  14.056   7.075 -0.1731  0.1253  0.1296
37880W        W41100  11.441   9.073   9.102 -0.3176  0.3469  0.0987
37881W        W41101  12.217   0.115  16.789  0.0464  0.1571 -0.0431
37882W        W41102   2.418  15.757   4.800 -0.2685 -0.1833 -0.0314
37883W        W41103  12.624   1.495   7.920  0.3985 -0.2126 -0.2809
37884W        W41104  12.491  14.288   9.217  0.1252 -0.0159 -0.2543
37885W        W41105  13.039  14.122   7.021  0.0151  0.0063 -0.1113
37886W        W41106   9.671  14.386   4.699  0.0882  0.0094  0.0083
37887W        W41107  15.514   1.453   9.698  0.0947 -0.0315  0.0933
37888W        W41108   8.793   8.623   0.994  0.0991 -0.1898  0.0420
37889W        W41109  11.467  11.693  12.502  0.1588  0.0023 -0.0647
37890W        W41110  13.028  11.061   5.175  0.1131 -0.0298 -0.0683
37891W        W41111  12.423  13.455  15.012  0.1136 -0.0838  0.2526
37892W        W41112  12.607   0.321   3.873  0.4612 -0.1286  0.1517
37893W        W41113  13.334  14.986   2.291  0.3239  0.1005 -0.1408
37894W        W41114  14.066  14.420   9.188 -0.4032 -0.1136  0.1732
37895W        W41115   0.124  14.111   7.177  0.1777 -0.1973 -0.0290
37896W        W41116  10.860  12.686   4.313 -0.0396  0.2263  0.2905
37897W        W41117  13.872  12.447   4.240  0.1988  0.1197  0.1722
37898W        W41118  13.147   0.408   0.672 -0.2065 -0.4669  0.0397
37899W        W41119  15.942  13.936   4.104 -0.0199  0.1651  0.3341
37900W        W41120  12.934   8.021   3.033 -0.1339  0.0030 -0.2849
37901W        W41121  11.752  16.757   3.347 -0.1056  0.0051  0.2729
37902W        W41122  17.125  12.993   8.751 -0.1204  0.1967  0.1336
37903W        W41123   4.465   7.590   4.601 -0.0528 -0.0294  0.0386
37904W        W41124  12.479  14.919   1.143 -0.0379 -0.0251 -0.0940
37905W        W41125   9.073  14.560   7.693 -0.0817 -0.0578 -0.1240
37906W        W41126  12.612   0.917   6.507 -0.0866 -0.0592  0.0234
37907W        W41127  12.129  14.358  11.458  0.3620 -0.1345  0.1199
37908W        W41128  15.900  16.304   5.737 -0.4529 -0.2474 -0.0147
37909W        W41129  10.550  13.144   2.025  0.1033 -0.0153 -0.2043
37910W        W41130   9.113  14.034  11.797 -0.0211 -0.2060  0.0205
37911W        W41131  16.548   1.676  12.146 -0.1440  0.0409  0.2432
37912W        W41132  13.595  14.948   4.629  0.2328  0.2039 -0.1696
37913W        W41133   0.515  13.508   4.726  0.2794 -0.0026 -0.0297
37914W        W41134  12.483  16.753   8.993 -0.0082 -0.0494  0.0607
37915W        W41135   9.306  14.063   6.994 -0.1174 -0.0719  0.2553
37916W        W41136  14.529   9.099   2.100 -0.3030 -0.0963 -0.1188
37917W        W41137   0.164  12.226   1.277  0.3992  0.3978  0.3109
37918W        W41138   9.789  12.154  11.689 -0.2519  0.1308  0.1283
37919W        W41139  12.161  15.874   4.621 -0.2162 -0.0660  0.2230
37920W        W41140   0.496   2.266   1.865  0.1923 -0.2810 -0.0200
37921W        W41141  13.695  15.800  16.882 -0.3368  0.1837  0.1803
37922W        W41142   1.584  16.030   2.925 -0.0521 -0.0125  0.0840
37923W        W41143   0.456  10.714   1.930  0.1336 -0.0022 -0.1498
37924W        W41144  11.103   7.882  17.532  0.0728  0.1594  0.2745
37925W        W41145   7.116   2.768   2.168  0.0543  0.1662 -0.4529
37926W        W41146  13.685   0.153  10.670  0.0420  0.3791 -0.1341
37927W        W41147  17.523   5.258  11.295 -0.2796 -0.0251 -0.3520
37928W        W41148  12.369  10.897   2.194  0.1664 -0.1030  0.2175
37929W        W41149   1.119  14.040   7.962  0.2487  0.0799  0.2285
37930W        W41150  10.532  10.569   4.942 -0.0130  0.0734 -0.0231
37931W        W41151  11.936   9.299   2.645  0.0130 -0.2146 -0.0497
37932W        W41152  11.224  13.786   5.590  0.3135 -0.0174 -0.0018
37933W        W41153  10.714   6.151   2.972 -0.1314  0.2663 -0.0374
37934W        W41154  14.319   0.242   5.837  0.1855 -0.0406 -0.2997
37935W        W41155  16.975   5.904   0.064 -0.1710 -0.2453  0.1569
37936W        W41156  14.049  16.094   3.930  0.1930  0.0513  0.1395
37937W        W41157  13.273  10.245   8.228  0.1085 -0.2485 -0.2806
37938W        W41158  12.026  11.064   1.830  0.0071 -0.2857 -0.4216
37939W        W41159  13.627   6.974   5.825  0.1868  0.3334 -0.2929
37940W        W41160  13.412  18.143   6.882  0.1380 -0.3237  0.1849
37941W        W41161   8.886   0.312  14.092 -0.0054  0.1186 -0.2467
37942W        W41162  10.796  14.093   5.337 -0.1495 -0.0802  0.1764
37943W        W41163  16.913   2.326   7.798 -0.0764  0.0497 -0.0667
37944W        W41164  14.379  13.898   3.302  0.0194 -0.1068  0.2472
37945W        W41165  17.997  18.251   7.730 -0.0929 -0.2497 -0.0329
37946W        W41166   8.400  18.102   3.467 -0.1126  0.0347  0.1284
37947W        W41167  10.548  13.653   2.281  0.1389  0.1342 -0.1201
37948W        W41168  16.768   1.875   4.194  0.0982  0.3813  0.1676
37949W        W41169  14.255  17.898   1.993  0.0865 -0.0889 -0.0360
37950W        W41170  17.083  18.249  14.052  0.1542  0.1753 -0.1043
37951W        W41171   8.482   7.505   3.171  0.0799  0.0528  0.1835
37952W        W41172  14.632  12.497   1.584 -0.1551 -0.1718  0.2894
37953W        W41173  12.909  10.545   3.906 -0.2812  0.3073 -0.3333
37954W        W41174  13.593  15.775   3.363  0.1634  0.2353  0.2649
37955W        W41175  11.855  16.832  13.449 -0.2131  0.2979  0.0652
37956W        W41176  10.351   0.752   2.341 -0.1858  0.0951 -0.1888
37957W        W41177  12.412  17.373   6.160 -0.0274 -0.2521 -0.5722
37958W        W41178  10.525  13.963   8.067 -0.0341 -0.1027 -0.1455
37959W        W41179  11.524   3.257   0.648  0.1934  0.2669  0.0958
37960W        W41180  14.943   3.018   4.323  0.1633  0.0298 -0.2649
37961W        W41181   0.224  11.626   6.457 -0.2788  0.2397 -0.3464
37962W        W41182  12.092   0.730   3.375  0.1573 -0.0501 -0.1614
37963W        W41183  15.160   1.458   3.593 -0.0527  0.2637 -0.1326
37964W        W41184  16.194  16.625  10.948  0.2340 -0.0817 -0.0972
37965W        W41185  14.775  14.635   0.300 -0.0188  0.0830  0.0975
37966W        W41186  17.824  16.164  17.885  0.2100 -0.0469 -0.1301
37967W        W41187  11.990  14.622   4.295 -0.0874  0.0379  0.1849
37968W        W41188   8.452   4.862   4.728 -0.3968 -0.3546  0.2342
37969W        W41189  15.092  16.029   2.527  0.0088  0.0645  0.1761
37970W        W41190  12.052   3.867   6.278 -0.1124 -0.1296 -0.2053
37971W        W41191   8.588  13.101   6.198  0.0869  0.0626 -0.1286
37972W        W41192  14.563  12.086   4.653  0.0051 -0.0670  0.0441
37973W        W41193  16.411   0.341   0.704  0.0291  0.1028 -0.0762
37974W        W41194  12.407  17.911   6.407  0.1473  0.0158 -0.2210
37975W        W41195  12.699   3.024   6.460  0.1611  0.5867  0.1291
37976W        W41196   9.632  15.058   4.383  0.0219 -0.2943 -0.0203
37977W        W41197  11.266  15.453   9.407 -0.0528  0.2003  0.2449
37978W        W41198  14.684   7.046   7.898  0.0681 -0.4914  0.1147
37979W        W41199  18.107  14.157   9.416  0.1316  0.0955 -0.0963
37980W        W41200   9.687  16.226   2.748  0.3712 -0.0205  0.1641
37981W        W41201  13.395  17.439   3.376 -0.0235  0.0968 -0.2010
37982W        W41202   0.260  16.566   4.621 -0.2269  0.0751 -0.0251
37983W        W41203   6.683   0.095  10.697  0.2380 -0.2628 -0.1971
37984W        W41204   5.026  18.210   5.611  0.0272 -0.3096  0.0779
37985W        W41205   7.564  16.459   2.826  0.0990 -0.1054  0.0689
37986W        W41206  17.152  13.054   4.088  0.0777 -0.0910  0.2149
37987W        W41207  16.625   2.625  15.479 -0.1280 -0.0519  0.1653
37988W        W41208  17.297  10.491  11.031  0.1923 -0.1757  0.4730
37989W        W41209  14.152  12.457   1.286  0.2199  0.0465  0.2135
37990W        W41210  10.591   0.380  16.037 -0.0889 -0.0683  0.0308
37991W        W41211   0.055  12.648   4.584 -0.0466 -0.1615  0.1104
37992W        W41212   4.009   3.846   2.560 -0.0869  0.1132 -0.1202
37993W        W41213  12.703   2.348   4.625  0.0595  0.0491 -0.0854
37994W        W41214  10.042  15.082   4.760  0.1232  0.0751  0.0379
37995W        W41215  10.533  10.019   7.518  0.0304 -0.0477 -0.2256
37996W        W41216  11.849  16.765  10.143 -0.2290 -0.0351  0.1467
37997W        W41217  14.773  16.260   4.606  0.1982 -0.0890 -0.0547
37998W        W41218  16.011   1.436   3.054  0.0373 -0.2383 -0.1647
37999W        W41219   3.837  14.976   6.385 -0.1964  0.0200 -0.1371
38000W        W41220  15.647  15.941   9.149 -0.0003  0.1091 -0.0252
38001W        W41221  14.999   9.277   4.246 -0.1803  0.0527  0.0795
38002W        W41222  12.122   2.878   6.465  0.0023  0.0390 -0.0752
38003W        W41223   0.499  14.586   8.890  0.0320  0.0899  0.2454
38004W        W41224  11.895  12.075   6.929  0.2780  0.2367 -0.0699
38005W        W41225  15.720   6.486   9.968 -0.4278  0.0549 -0.1138
38006W        W41226  15.999   7.381  11.297  0.1055 -0.1911  0.3179
38007W        W41227   7.147   2.808   8.518 -0.1821  0.0062 -0.0391
38008W        W41228   4.254  17.022   5.980  0.1279 -0.3047  0.0552
38009W        W41229  15.340  18.100   5.504 -0.1461 -0.2602  0.2766
38010W        W41230  12.632  14.681   3.070  0.0533  0.0658 -0.0785
38011W        W41231  16.556   1.165   6.647  0.2853  0.2229  0.0486
38012W        W41232  13.194  10.518   2.551 -0.0381 -0.2444  0.0711
38013W        W41233  14.378   0.312   2.557  0.1314 -0.1034 -0.1329
38014W        W41234   2.739   3.434   4.737  0.0581 -0.0144  0.0833
38015W        W41235   7.680  13.300   6.553  0.0092  0.1266 -0.1355
38016W        W41236  12.053   6.536   9.186 -0.0124 -0.0840 -0.0795
38017W        W41237   1.010  10.230   8.886 -0.0538 -0.2009  0.3472
38018W        W41238  16.396   1.653   6.563 -0.1429 -0.0550 -0.0082
38019W        W41239  17.031  10.926  10.706  0.0854 -0.0397  0.1395
38020W        W41240  10.884  17.118   8.129  0.1882 -0.0465  0.1033
38021W        W41241   7.597  11.396   8.489  0.1273  0.1213 -0.1001
38022W        W41242  14.345  16.759   2.842 -0.1779  0.0430 -0.0914
38023W        W41243   8.532  15.026   1.033 -0.2313 -0.0956 -0.0470
38024W        W41244  13.361   0.475  15.200 -0.1047  0.0092 -0.1668
38025W        W41245  16.956   0.938   3.547  0.0149 -0.1197 -0.0837
38026W        W41246  13.005  10.960   7.136 -0.2281 -0.0397  0.2607
38027W        W41247  12.579  14.161   9.726 -0.3039  0.0684  0.5457
38028W        W41248   9.824  15.875  17.067 -0.3932  0.2428 -0.0856
38029W        W41249  14.367  12.022   1.531 -0.1876 -0.1711  0.3043
38030W        W41250  12.106   0.063   8.735 -0.2745 -0.1625  0.2074
38031W        W41251  11.387   5.616   4.170  0.0723 -0.0578 -0.2637
38032W        W41252   2.178   2.858   4.166 -0.0681  0.2056  0.1297
38033W        W41253  15.188  13.574   1.263 -0.1715  0.0776 -0.1090
38034W        W41254   8.645  15.788   6.851 -0.2004  0.1499 -0.4062
38035W        W41255  12.859   9.932  17.690 -0.0021  0.1681  0.1268
38036W        W41256  11.005  15.398   8.969  0.4382  0.0012 -0.0440
38037W        W41257  17.587   2.206   8.409  0.1364 -0.2879 -0.0099
38038W        W41258  13.375   1.277   5.943  0.0878  0.1728 -0.2113
38039W        W41259   8.535   9.081  16.229  0.0134 -0.0343 -0.5214
38040W        W41260   9.870   1.204   3.230  0.2751  0.1075 -0.1742
38041W        W41261  12.482   0.701   8.741  0.1215  0.0108  0.0815
38042W        W41262  14.764   0.021   8.615  0.1164  0.2518 -0.1138
38043W        W41263  16.356  15.864   3.828  0.0224 -0.1079 -0.2109
38044W        W41264   7.726   2.782   6.355 -0.1395 -0.2047  0.0234
38045W        W41265  15.216   0.913   4.423  0.1116 -0.0304  0.0727
38046W        W41266  13.335  12.298   2.056 -0.1904 -0.0432  0.1524
38047W        W41267  11.081  17.807   3.169 -0.0345  0.4140  0.0163
38048W        W41268   3.219  16.190  10.639  0.3328  0.1484  0.1115
38049W        W41269  10.550   7.303   3.789 -0.2360  0.0072 -0.1218
38050W        W41270  13.238   0.273   0.111  0.0078  0.0314  0.5277
38051W        W41271   2.742  17.992   2.787  0.0836  0.0975  0.1143
38052W        W41272   8.887  13.196  11.622  0.0975 -0.0208 -0.0209
38053W        W41273  18.245   4.299   3.425 -0.0017 -0.0568 -0.1025
38054W        W41274   9.953   9.317   7.152  0.0626 -0.0544 -0.1289
38055W        W41275   8.038   0.014   2.698  0.1663 -0.1057  0.0688
38056W        W41276  15.366   3.514   1.590  0.0101 -0.1386  0.0008
38057W        W41277  14.125  16.138   7.506  0.0667 -0.1838  0.2490
38058W        W41278  13.758  15.430   4.060 -0.0792  0.0911  0.0741
38059W        W41279   9.557   1.840   5.631 -0.0702  0.1328 -0.1517
38060W        W41280  14.568  17.254   9.921  0.1361 -0.0586  0.0374
38061W        W41281  11.248  16.753  15.510  0.1813  0.2788 -0.0165
38062W        W41282   9.732   6.573   6.953 -0.1903  0.2795  0.0836
38063W        W41283  10.786   8.360   9.218 -0.2310  0.2008  0.4516
38064W        W41284   8.706   0.915   6.307  0.0146 -0.3773  0.0859
38065W        W41285   8.825  12.632   7.376  0.0302 -0.1148  0.1454
38066W        W41286   8.396  12.498   7.553 -0.2949 -0.2352  0.3732
38067W        W41287   7.971   9.512   3.601 -0.0795  0.1266  0.1363
38068W        W41288  10.261   4.702  14.638 -0.1021 -0.1183 -0.2482
38069W        W41289  12.052  14.330   0.606  0.1958 -0.2291 -0.2464
38070W        W41290  11.434   3.237   3.919 -0.0286  0.0992  0.0553
38071W        W41291  12.313  11.830   9.324  0.1314 -0.1244  0.0506
38072W        W41292  11.279   0.072   7.374 -0.1803  0.1173  0.1394
38073W        W41293   1.422  14.551   0.924 -0.2548 -0.1373 -0.0432
38074W        W41294  10.589  17.142  17.968 -0.1628  0.3548 -0.0578
38075W        W41295  15.347   1.364  10.832  0.1148 -0.1581 -0.0855
38076W        W41296  15.671   4.339  17.257 -0.0424 -0.1144 -0.2542
38077W        W41297  15.714   4.808   0.699 -0.0431 -0.2525 -0.0641
38078W        W41298  13.061  17.743   2.343 -0.0790 -0.3032  0.1202
38079W        W41299  12.918  14.936   2.575 -0.3518  0.2341  0.0186
38080W        W41300   2.253   4.999   4.406 -0.0235 -0.0403 -0.0775
38081W        W41301   8.098  12.668   7.056  0.2731  0.2313  0.0265
38082W        W41302  16.161   4.562   3.675 -0.1444 -0.1195 -0.1441
38083W        W41303  12.164  15.230   2.261  0.0526  0.2520 -0.2329
38084W        W41304  12.190   9.727   6.242  0.0911  0.0860 -0.1457
38085W        W41305  14.395   0.485   6.237  0.0863 -0.1247 -0.0799
38086W        W41306   8.492  12.269   7.968 -0.1399  0.3309  0.0648
38087W        W41307   9.797   9.006   4.594 -0.1468  0.0694 -0.1685
38088W        W41308  16.847   0.524   4.105  0.2876 -0.0245 -0.3087
38089W        W41309   6.663  16.052   9.965 -0.1898  0.0407 -0.1962
38090W        W41310   1.116  17.068  12.682  0.2217 -0.3236 -0.1404
38091W        W41311   8.570  10.391   2.946 -0.1234  0.2407 -0.0210
38092W        W41312  15.537   2.810   8.009 -0.1406 -0.0280  0.0036
38093W        W41313  13.066   6.465  16.967  0.1691  0.1058  0.0209
38094W        W41314   5.635   0.613   1.129  0.0208  0.1028 -0.1489
38095W        W41315  17.432  18.110   2.257  0.0397 -0.0865 -0.2407
38096W        W41316  10.915  15.802   7.798  0.0122  0.3689 -0.1400
38097W        W41317  17.614  18.053   4.234  0.3010 -0.0551  0.1402
38098W        W41318   9.441  11.838  10.275 -0.0743 -0.1392 -0.0515
38099W        W41319   1.304  14.483   8.994  0.1554  0.2666  0.1225
38100W        W41320  12.157  18.269   5.404 -0.0172 -0.0404  0.0916
38101W        W41321  15.894  14.439   4.419 -0.0024  0.1605  0.2002
38102W        W41322  12.168  16.328  12.361 -0.1426  0.0221 -0.0473
38103W        W41323  10.608  12.328   1.852  0.0712 -0.0350  0.2321
38104W        W41324  12.992  16.410   1.414 -0.2964  0.1703 -0.2805
38105W        W41325  13.871   5.090   4.961  0.3040  0.3663  0.2232
38106W        W41326   0.641   3.812   1.824 -0.0180 -0.2843  0.0103
38107W        W41327   0.388  18.056   6.016  0.0574  0.0665  0.0003
38108W        W41328  17.225   3.079  15.299  0.2046  0.0970 -0.1980
38109W        W41329  10.919  11.245   2.743  0.4818 -0.0083 -0.0536
38110W        W41330  10.798   3.295   5.601 -0.1751  0.1246 -0.2566
38111W        W41331  14.855  16.168   5.836 -0.0383 -0.0363  0.1675
38112W        W41332  14.315  13.710   9.524 -0.0827  0.0982 -0.0717
38113W        W41333  15.578  10.607   9.085  0.2186  0.2217 -0.3253
38114W        W41334   8.186  12.376   1.462 -0.1142  0.1880 -0.0945
38115W        W41335  12.095  16.211   1.853 -0.0324 -0.1855  0.0022
38116W        W41336  14.814   4.668   2.647  0.0390 -0.0632  0.0223
38117W        W41337  15.651  15.158  13.147 -0.1775  0.2237 -0.0859
38118W        W41338  11.104   2.205   4.574  0.1048  0.0525  0.1797
38119W        W41339   0.867  12.889   4.629  0.0008  0.2074 -0.1212
38120W        W41340  13.940   5.262  11.170 -0.1306 -0.1089  0.0019
38121W        W41341  16.609   0.326   1.927  0.0896 -0.0495 -0.3105
38122W        W41342  15.927   3.597   4.333 -0.2973  0.0644  0.1270
38123W        W41343  16.445  16.344   2.289  0.0242  0.1855  0.2584
38124W        W41344   7.527  11.723  12.028  0.2006  0.1569 -0.1043
38125W        W41345  11.477  17.469   4.164 -0.0652 -0.4308 -0.2907
38126W        W41346  11.765   2.330   0.809  0.4764 -0.2517  0.0819
38127W        W41347   0.026   8.355   7.408 -0.0609 -0.2609 -0.0087
38128W        W41348   9.648  16.150   4.501 -0.0603  0.2575  0.3263
38129W        W41349  15.568  12.784   9.151  0.0767 -0.0923 -0.0800
38130W        W41350  10.213   1.304  17.285 -0.2975  0.0317  0.1414
38131W        W41351  10.796  15.631   4.451  0.1662  0.2464 -0.3088
38132W        W41352   8.762  13.780  10.985  0.3745  0.1095  0.0846
38133W        W41353   9.315   3.122  10.215 -0.1366 -0.4190  0.0866
38134W        W41354  11.701   8.266   2.681  0.1590  0.1002  0.0225
38135W        W41355  10.425  12.650  10.366 -0.0789 -0.1151 -0.0940
38136W        W41356  16.963  13.400   3.220  0.3087 -0.0782  0.2826
38137W        W41357   6.558   3.891   7.945 -0.0007 -0.0973  0.0525
38138W        W41358  18.086   0.437   2.260  0.0049 -0.0613  0.3778
38139W        W41359   0.041  16.800   1.311  0.2956 -0.0319 -0.0971
38140W        W41360  15.477   9.084  10.509  0.1305 -0.0908  0.1836
38141W        W41361  14.277   0.476  15.016  0.0883  0.0441 -0.2979
38142W        W41362  12.488   8.331   6.243 -0.0360  0.0606  0.0588
38143W        W41363   3.242  15.703  10.753 -0.0244 -0.1748  0.0976
38144W        W41364  11.804  17.863   6.318 -0.2109  0.1151 -0.3338
38145W        W41365   7.368  16.363   9.320  0.2574 -0.3638 -0.3718
38146W        W41366  10.572   0.989   2.708  0.0969  0.0552  0.1350
38147W        W41367   9.494   0.388  16.241  0.0424  0.0173  0.0502
38148W        W41368  13.050  17.794   7.426 -0.0878 -0.0664  0.0939
38149W        W41369  15.631  12.320   9.237 -0.0862  0.1219  0.2720
38150W        W41370  10.911   7.536   8.629 -0.1490 -0.2084  0.0943
38151W        W41371  17.302   1.433  12.766  0.0231  0.1256 -0.0947
38152W        W41372   6.737  16.044   3.357  0.2047  0.1272 -0.0439
38153W        W41373  10.771   7.226   0.107  0.2696  0.1301 -0.0774
38154W        W41374   0.202   3.826   8.233  0.2663  0.0251 -0.0328
38155W        W41375  15.036  17.366   1.389 -0.0317 -0.0812  0.1016
38156W        W41376  10.812  12.484   5.613  0.1832 -0.2350  0.0320
38157W        W41377  14.707  12.055   5.979 -0.1042 -0.1317  0.1557
38158W        W41378  16.870  18.214  17.215  0.3466  0.0675 -0.1950
38159W        W41379   8.498  17.326  13.814  0.3539 -0.0509 -0.0583
38160W        W41380  10.133  14.018   8.912 -0.2114 -0.0016  0.0033
38161W        W41381  17.207   3.308   2.262 -0.4533  0.0156 -0.4861
38162W        W41382   9.159  11.507   8.637 -0.2049  0.1738  0.1481
38163W        W41383  16.685   9.915   9.831 -0.0185 -0.3887 -0.1506
38164W        W41384  10.374  15.530   4.790  0.0205 -0.0174  0.0673
38165W        W41385  12.706   9.191  16.555  0.3752  0.1634 -0.3503
38166W        W41386  15.026  10.891  11.149  0.1696  0.1357  0.3256
38167W        W41387  16.957  14.976   1.505  0.0816 -0.1233  0.2049
38168W        W41388  16.371   3.558   3.071 -0.1876 -0.0032  0.1102
38169W        W41389   9.411  17.424   6.252  0.2906 -0.1344  0.2705
38170W        W41390  12.556  12.417   3.696  0.0070 -0.0088 -0.2789
38171W        W41391  13.901  14.108   9.574 -0.0137 -0.0709  0.0177
38172W        W41392  12.191  17.297  14.164  0.1721 -0.0809  0.2193
38173W        W41393   6.083  15.458  16.917  0.0577  0.1995 -0.1261
38174W        W41394   2.288   3.677   4.766 -0.0039  0.1523 -0.0123
38175W        W41395  10.688   9.668  11.958 -0.0536  0.1458  0.0415
38176W        W41396  14.117   0.546  10.772 -0.1742  0.0173 -0.0113
38177W        W41397  16.083  13.620   9.794 -0.0854  0.2583  0.0260
38178W        W41398  17.400  17.693   6.031  0.0676  0.1936 -0.0806
38179W        W41399  10.682   1.877   6.399 -0.1004 -0.0558 -0.1546
38180W        W41400  15.596  12.331   1.981  0.1126  0.0755  0.0936
38181W        W41401   9.853   1.059  16.883 -0.0132 -0.1164 -0.1339
38182W        W41402  11.845   2.412   1.633  0.0403 -0.0880 -0.3273
38183W        W41403  11.633  13.047   2.902  0.1613  0.3887 -0.2311
38184W        W41404  11.733  10.581  13.935  0.0362 -0.1506  0.0302
38185W        W41405  12.076   0.995  12.687 -0.0426 -0.0337  0.0999
38186W        W41406   1.466  18.263  16.067 -0.2427 -0.1393 -0.2306
38187W        W41407   2.831   3.011  12.414 -0.0971  0.2538  0.2043
38188W        W41408  13.130   5.271  10.333 -0.0886  0.0500  0.2690
38189W        W41409  15.308  16.819   6.175 -0.1198  0.2551  0.1802
38190W        W41410  14.606   0.054   9.720  0.1431  0.1710  0.1883
38191W        W41411   8.982  17.303   8.353  0.1765  0.4799 -0.1212
38192W        W41412   9.227  17.984   4.062 -0.0763 -0.0667 -0.0362
38193W        W41413   9.523  10.569   6.961 -0.0756  0.3120 -0.0676
38194W        W41414   4.343  15.440   9.625 -0.0388  0.0543 -0.3252
38195W        W41415   7.991  18.054   4.407  0.0892  0.0199 -0.1005
38196W        W41416  13.057  12.520   3.164  0.2018  0.1058  0.0500
38197W        W41417  11.333  12.005  17.442 -0.2284  0.1588 -0.2401
38198W        W41418   0.975   0.342  15.253  0.0708 -0.1328 -0.1223
38199W        W41419   8.614  13.585   8.255 -0.1579  0.5196 -0.0715
38200W        W41420  14.333   6.409  16.274 -0.2822  0.0981  0.2134
38201W        W41421  17.964  13.804   7.192  0.0278 -0.0164 -0.1137
38202W        W41422  10.110  12.031  14.263 -0.0218 -0.0481 -0.3309
38203W        W41423  10.755   1.205   9.156 -0.3410 -0.1152  0.0232
38204W        W41424  10.343   1.231   3.279  0.1498 -0.0432 -0.1803
38205W        W41425  15.978   4.005   7.589  0.1767  0.2813 -0.3106
38206W        W41426  11.897   9.636  14.083  0.4138 -0.1860  0.1010
38207W        W41427  10.824   2.269  13.137 -0.4841 -0.0476  0.1645
38208W        W41428  11.074  11.187   7.482  0.2618  0.3675 -0.2774
38209W        W41429   7.885  16.611   4.832  0.1280 -0.1930  0.0390
38210W        W41430  11.139  15.383  15.349  0.3083  0.0659  0.1050
38211W        W41431  14.125  10.051  12.409 -0.2173 -0.1890 -0.0073
38212W        W41432   9.966  14.162   4.308 -0.1483 -0.2521  0.1412
38213W        W41433  14.097  15.398  13.084 -0.3101 -0.0326  0.2465
38214W        W41434  12.626  14.560   2.530  0.3200  0.0457  0.0656
38215W        W41435   7.350  14.765   3.451 -0.1795  0.3473 -0.2388
38216W        W41436  10.533  16.591   9.392 -0.0901 -0.1432 -0.0546
38217W        W41437  16.042  14.703   9.437  0.2327  0.1855 -0.0245
38218W        W41438  15.756  16.485   7.828  0.2230 -0.0784  0.0896
38219W        W41439  12.942  10.386   8.587 -0.1536  0.3593 -0.2632
38220W        W41440  16.881  16.063  10.917 -0.1195  0.1358 -0.0874
38221W        W41441  10.332  16.106   9.414 -0.2207  0.2342  0.4691
38222W        W41442  11.072  16.092   8.243  0.0252 -0.5494 -0.1953
38223W        W41443  14.397   0.944  11.540  0.0432  0.2982  0.1897
38224W        W41444  16.004   3.687   9.044 -0.2280  0.3284 -0.1492
38225W        W41445   6.158  13.321   8.016 -0.0718  0.1489  0.0235
38226W        W41446   7.433  11.426   3.449 -0.0523  0.2103 -0.1126
38227W        W41447  12.200   0.282  13.759 -0.2790 -0.2931  0.0037
38228W        W41448  13.131   1.205   3.861  0.0099 -0.4560  0.1550
38229W        W41449   7.042   6.692   3.355 -0.0850  0.0203 -0.0118
38230W        W41450  12.864  16.048  10.980 -0.4606 -0.5444  0.2104
38231W        W41451  16.423   0.375   9.785 -0.0067 -0.0466  0.1471
38232W        W41452   7.217  17.403   6.562  0.1253 -0.1345 -0.0866
38233W        W41453  14.008   4.620   1.516 -0.2073  0.1486 -0.2204
38234W        W41454  11.313  13.044   1.780  0.0739  0.1391 -0.1688
38235W        W41455  12.297  17.361   9.742 -0.2097 -0.2279 -0.1551
38236W        W41456   2.599  15.062  17.787  0.0790  0.1850 -0.1344
38237W        W41457  14.522  17.702   8.221  0.0275  0.1892  0.0548
38238W        W41458  10.999   1.186   1.690 -0.0880 -0.0503  0.0795
38239W        W41459   7.495   8.895   1.969  0.0948 -0.0604  0.1557
38240W        W41460  10.494   3.150   8.006 -0.0119  0.3384  0.2948
38241W        W41461  10.364  17.890   5.452  0.2843  0.2693  0.0299
38242W        W41462  12.011   1.667   7.323 -0.0818 -0.1799  0.1214
38243W        W41463  12.529  14.123  11.654 -0.3097  0.0050  0.0664
38244W        W41464  18.127   0.859  16.091 -0.0072  0.2772 -0.0257
38245W        W41465   2.147  12.518   5.889 -0.2746 -0.0469 -0.2999
38246W        W41466   9.687   5.574  11.689  0.1206 -0.1768  0.0238
38247W        W41467  16.340   7.791   1.284  0.4311 -0.1557  0.2011
38248W        W41468  13.038   4.246   9.464  0.0043 -0.3678  0.0877
38249W        W41469   9.993  16.020   8.894 -0.1818 -0.2419  0.3470
38250W        W41470   4.925  17.836  11.881 -0.0503  0.4746  0.0657
38251W        W41471  14.286   2.519  13.925 -0.1771  0.0513 -0.1649
38252W        W41472   8.291  10.474  11.817 -0.1201 -0.2717  0.1248
38253W        W41473  14.252  17.496   4.268  0.1705  0.2961  0.1321
38254W        W41474  13.083   2.778   8.046  0.1633  0.3443  0.1083
38255W        W41475   7.458  14.141  13.473  0.1220  0.2541  0.1511
38256W        W41476  13.301  17.555   4.138 -0.1631 -0.0260  0.0635
38257W        W41477   4.297   0.054  12.370 -0.1463  0.4307 -0.0507
38258W        W41478  13.617   9.643  16.021  0.2423 -0.0195  0.0152
38259W        W41479  17.278   4.667   4.736 -0.1886 -0.0940  0.2405
38260W        W41480  15.276   1.318  13.623 -0.0586 -0.1183 -0.3872
38261W        W41481   7.870   4.563   6.324 -0.0584  0.2403  0.1684
38262W        W41482   2.530  11.350   8.533 -0.2598 -0.0635 -0.2244
38263W        W41483   7.372  14.845   7.655  0.1342  0.2702 -0.4858
38264W        W41484  11.212  17.207   4.811  0.0443  0.1759  0.0167
38265W        W41485  13.182  12.037  13.134 -0.0995  0.1869  0.0824
38266W        W41486  10.705  13.267  11.696  0.1886 -0.2069 -0.4071
38267W        W41487  14.927  11.218   5.455 -0.1668  0.0549  0.2086
38268W        W41488  13.609  16.565   9.266  0.1815 -0.0596 -0.0276
38269W        W41489  14.834  10.840   9.766  0.0453 -0.4086 -0.0661
38270W        W41490  12.324   3.926  13.365 -0.0254 -0.3526 -0.0076
38271W        W41491   1.683   3.363  11.787 -0.4494  0.0768  0.2359
38272W        W41492  11.734  16.545  13.903 -0.1838 -0.0711  0.4109
38273W        W41493   9.373   1.608  13.073  0.1616 -0.0141 -0.1441
38274W        W41494  17.113  12.012  13.567  0.3188 -0.1715 -0.0603
38275W        W41495   9.892  17.890   5.055  0.6002  0.2447 -0.1452
38276W        W41496  12.748   2.035  10.630  0.0359  0.0922 -0.6550
38277W        W41497   7.675   1.208  12.627 -0.1801  0.0959  0.0983
38278W        W41498   9.605  16.111  12.483  0.2548  0.2528  0.4325
38279W        W41499  14.375  10.875  11.656  0.1313 -0.1545 -0.0889
38280W        W41500  11.094  14.180   4.536 -0.0397 -0.1958 -0.0071
38281W        W41501  11.967   4.932  11.558  0.2654  0.1458  0.1544
38282W        W41502   7.693  17.075  10.762  0.2250 -0.3960  0.0296
38283W        W41503   9.198  15.289  10.049  0.0509  0.1340  0.0997
38284W        W41504   1.216  18.134  11.652 -0.1273  0.2660 -0.1154
38285W        W41505  16.792   1.144   7.187 -0.1897  0.1461  0.0414
38286W        W41506   4.943   4.113  17.365  0.0814  0.2795 -0.0130
38287W        W41507  10.711   4.326   6.030  0.1280  0.0991  0.0549
38288W        W41508   5.592  15.811   8.528 -0.0282 -0.2257 -0.1379
38289W        W41509   9.563  11.627   7.660  0.2338 -0.0526  0.1109
38290W        W41510  12.148   0.724  18.255  0.2031 -0.0973  0.1255
38291W        W41511  12.208  16.568  11.537 -0.3912  0.0203  0.2548
38292W        W41512  15.322  16.736  17.175 -0.0991 -0.0457 -0.0744
38293W        W41513   7.974  14.659  11.180 -0.1398 -0.2204  0.0823
38294W        W41514  10.420  15.353  11.568  0.1310 -0.1356 -0.0497
38295W        W41515  12.239   3.152  13.140  0.1103 -0.1182 -0.4627
38296W        W41516  15.048   1.054   3.392  0.0527  0.2361 -0.0971
38297W        W41517  15.483  17.400   8.673  0.1773 -0.2819 -0.1996
38298W        W41518  12.893  16.967   5.889  0.2543 -0.5162  0.0186
38299W        W41519  12.799  16.466  14.530 -0.2926  0.1328  0.0248
38300W        W41520   4.147   2.888   8.926  0.0715  0.3922 -0.0144
38301W        W41521  15.638  17.246   4.467  0.2846 -0.0551  0.1318
38302W        W41522   7.861  14.800   9.393 -0.1805 -0.3251 -0.0121
38303W        W41523  14.428  13.921   7.341  0.2677 -0.1219 -0.2547
38304W        W41524   8.429  14.619   3.860  0.0553  0.0820 -0.2010
38305W        W41525  17.112  15.383   5.627 -0.0643 -0.1823 -0.0392
38306W        W41526   0.629   3.412  17.808  0.3238 -0.0114 -0.1986
38307W        W41527  15.945   3.152  12.422  0.1210  0.2871  0.1765
38308W        W41528   9.063   0.978   2.961  0.3903 -0.3475  0.0920
38309W        W41529  15.164  10.828   6.634  0.0820  0.0311  0.1050
38310W        W41530  13.312  12.525   0.055  0.1806  0.0147  0.0640
38311W        W41531  14.430   0.854  14.139  0.1677  0.0036  0.2506
38312W        W41532   6.718  13.295   9.358 -0.0008 -0.1112  0.1841
38313W        W41533   6.141   4.892   4.766  0.0968  0.2386 -0.0411
38314W        W41534  12.848   2.554  10.689 -0.1196  0.0857 -0.2017
38315W        W41535  11.375  16.636   6.284  0.2028  0.0409 -0.1554
38316W        W41536  11.319  17.018   3.370 -0.2099 -0.1141 -0.2089
38317W        W41537   7.943   4.045   6.175  0.0881  0.0432 -0.1608
38318W        W41538  12.494  12.761   7.852  0.0634  0.0268 -0.0336
38319W        W41539   6.407   0.503  10.804  0.0623  0.0279 -0.0884
38320W        W41540   7.735   3.538  14.777 -0.0217  0.2520  0.0800
38321W        W41541   9.892  12.820  10.373 -0.1163 -0.0362 -0.1617
38322W        W41542  15.393  14.373   0.778  0.1775  0.2047  0.0320
38323W        W41543   0.966  14.179  16.926  0.2345 -0.1174 -0.3974
38324W        W41544  15.628  14.171   9.974 -0.2439 -0.1050  0.1948
38325W        W41545  16.719  17.769  15.500 -0.0974  0.1106 -0.0927
38326W        W41546   3.453  15.286   8.768 -0.0208 -0.3465  0.0637
38327W        W41547  14.421  14.266  13.397 -0.2335  0.0920  0.1926
38328W        W41548   9.779   5.069   8.210 -0.0724  0.0590 -0.3447
38329W        W41549   7.911   3.658   0.231 -0.1180  0.2051  0.0116
38330W        W41550  11.025  12.747   9.926  0.0564  0.0521  0.1469
38331W        W41551  10.829  18.159   7.188 -0.0599  0.0217  0.1507
38332W        W41552  12.066  16.003   8.416 -0.1448 -0.3197 -0.2849
38333W        W41553  10.775   1.223  10.897  0.0853 -0.0415  0.2156
38334W        W41554   9.574   0.790  13.605 -0.1022 -0.1082 -0.0701
38335W        W41555   5.443   1.234   9.156 -0.0628 -0.3796 -0.0246
38336W        W41556  11.162  15.882   4.357 -0.0668 -0.0541  0.0150
38337W        W41557   8.440  16.452   7.539  0.0951  0.1099  0.2844
38338W        W41558  10.035  15.734   5.554 -0.1539 -0.1544  0.3090
38339W        W41559  13.058  16.070  10.059 -0.3457 -0.1419 -0.0053
38340W        W41560  11.781   1.456  14.189  0.2694  0.2172  0.2071
38341W        W41561   7.285  14.867   5.174 -0.0483  0.0193 -0.1959
38342W        W41562  10.462   2.963   4.012  0.0113  0.3468  0.2045
38343W        W41563  15.026  17.619  12.427  0.4212  0.0394 -0.0986
38344W        W41564  13.409  16.943   5.780  0.2861 -0.3599 -0.2028
38345W        W41565   3.971   5.083  13.665 -0.4401  0.2626 -0.1927
38346W        W41566  12.107   2.964   1.727 -0.2117 -0.1078 -0.4767
38347W        W41567   8.630   3.953  11.939 -0.0285  0.0122 -0.0206
38348W        W41568  11.889  17.470  12.948  0.2521 -0.0876 -0.2319
38349W        W41569  12.191  12.064   8.299  0.2551  0.1948  0.0118
38350W        W41570  15.802   9.839   5.546  0.2155  0.1855  0.0674
38351W        W41571  13.272   4.198  13.617  0.1140  0.1133 -0.2884
38352W        W41572  13.417  16.243   5.624 -0.1415 -0.0500 -0.2555
38353W        W41573  13.568   1.317  14.485  0.4767  0.0153  0.1685
38354W        W41574   5.913   2.332   8.313 -0.2595 -0.2012 -0.0421
38355W        W41575  15.664  13.890   7.628  0.0486 -0.1016 -0.0642
38356W        W41576  13.037  16.287  14.111 -0.0910 -0.0089  0.0790
38357W        W41577  12.181  14.888  11.589  0.0827 -0.1371  0.1744
38358W        W41578  17.129   6.333  10.971 -0.1110 -0.1648 -0.1156
38359W        W41579  12.430  15.177   4.710  0.0176 -0.1395 -0.0461
38360W        W41580   8.748  14.830   9.431  0.1737  0.1575 -0.1588
38361W        W41581   8.224   2.586  14.929 -0.1839 -0.2029 -0.1572
38362W        W41582  14.862   1.146   9.572 -0.3734  0.0508 -0.1747
38363W        W41583  13.935   7.193  16.414  0.0133  0.1711 -0.0421
38364W        W41584  10.086  16.835  17.202  0.0277 -0.0816  0.0106
38365W        W41585  11.234   4.683   9.383  0.3241  0.0500  0.3213
38366W        W41586  17.831  18.188   7.239 -0.2438 -0.0076 -0.0473
38367W        W41587  17.053  16.155   8.495  0.0503 -0.4324  0.0933
38368W        W41588  11.888  13.456   9.754 -0.0036  0.1414 -0.0990
38369W        W41589  15.472   9.446   2.599 -0.0968  0.3709 -0.0786
38370W        W41590  11.179   0.272   9.600  0.0058 -0.4329 -0.0267
38371W        W41591  11.985  16.593  11.985  0.2957  0.1776  0.2180
38372W        W41592   7.985  16.930  14.471 -0.1278  0.1844 -0.1351
38373W        W41593  17.309   5.850  10.602  0.2333 -0.2256 -0.2329
38374W        W41594  16.651  18.126   4.477  0.1379 -0.0719 -0.0556
38375W        W41595   9.292  15.754   8.397 -0.0609  0.1913 -0.1087
38376W        W41596  14.702  11.879  12.786 -0.0441  0.0158 -0.2548
38377W        W41597  11.463  16.344  10.665  0.0020 -0.0088  0.1515
38378W        W41598  15.837   0.040  16.053  0.1632  0.1167  0.1656
38379W        W41599  10.143  16.987  17.725 -0.0638 -0.0512  0.2142
38380W        W41600   9.026  16.567  11.816 -0.0156 -0.2869 -0.2063
38381W        W41601  13.081   0.627   9.431 -0.0682  0.2085  0.0616
38382W        W41602   7.592  12.834  15.501  0.2065  0.0158 -0.1307
38383W        W41603   3.877  14.791  14.547 -0.1474 -0.4624 -0.3608
38384W        W41604  14.495   9.720   3.364  0.0213 -0.2434  0.0307
38385W        W41605   9.825   2.083  10.632 -0.2417  0.1849 -0.3483
38386W        W41606  13.335   2.025   4.532 -0.4167 -0.1246 -0.3095
38387W        W41607   6.929   8.838   2.767  0.1220  0.1182  0.2389
38388W        W41608  11.021  12.949   7.304 -0.0351 -0.1200 -0.0449
38389W        W41609  15.265  13.779  10.487  0.2282  0.2400 -0.2535
38390W        W41610  12.529  15.543  11.935 -0.1634 -0.0348  0.0733
38391W        W41611   7.217  17.817   6.241 -0.1251 -0.0006 -0.2368
38392W        W41612   1.115  14.160  13.439 -0.2546 -0.1174  0.0699
38393W        W41613  13.797   6.944  12.518  0.0355  0.2273 -0.1222
38394W        W41614   7.148   0.627   4.011 -0.1229 -0.4009 -0.0356
38395W        W41615  14.096  17.444   9.949 -0.0498  0.2554  0.0641
38396W        W41616  15.071   1.393   6.349 -0.1067  0.0454  0.0150
38397W        W41617   4.474   2.362  10.468 -0.2230 -0.1416 -0.0994
38398W        W41618  16.303  18.226  15.222  0.1479 -0.0999 -0.3038
38399W        W41619  15.449   1.636   8.615 -0.1920  0.2112 -0.1559
38400W        W41620  16.518   1.721  11.279  0.0001 -0.0567  0.1724
38401W        W41621   9.747  15.299   8.889  0.2040 -0.0917 -0.0837
38402W        W41622  11.288  16.233   5.165  0.0962  0.1507 -0.0295
38403W        W41623   8.590   1.488  11.890 -0.0860 -0.2509  0.1477
38404W        W41624  14.117   2.315  16.638 -0.1645 -0.0661 -0.1894
38405W        W41625  10.905  12.945  11.202 -0.0754  0.2620 -0.0019
38406W        W41626   1.399  13.256  14.461  0.2587  0.0463 -0.1825
38407W        W41627   9.472  15.974   7.503  0.0767 -0.1005 -0.1572
38408W        W41628  11.906  14.417   8.590  0.3278  0.1970 -0.1020
38409W        W41629  12.634  13.942   5.908 -0.0126 -0.1968 -0.0939
38410W        W41630  13.737   0.919   6.653 -0.0421  0.2223 -0.2313
38411W        W41631   9.725  17.644   3.037 -0.0113  0.2196 -0.1310
38412W        W41632   2.166  14.268  11.918  0.0742 -0.0742 -0.0345
38413W        W41633   9.860   0.271  11.347 -0.2027  0.2156  0.4375
38414W        W41634   7.369  17.175   3.660 -0.1659  0.0632  0.4684
38415W        W41635   7.176  12.121  13.176 -0.0237 -0.3104 -0.0201
38416W        W41636  14.295  12.435  10.090 -0.2550 -0.0108 -0.1355
38417W        W41637   5.846   9.720   4.907 -0.1045 -0.1976 -0.1056
38418W        W41638  12.237  12.491   8.776  0.0385  0.0757  0.1122
38419W        W41639   7.539  14.422   3.026  0.1636 -0.0887  0.1129
38420W        W41640  12.379   8.875  10.740  0.0719 -0.1986  0.2073
38421W        W41641   0.733  12.885  12.627  0.0628 -0.0312  0.0738
38422W        W41642  10.069   0.240  12.331  0.1534  0.2685  0.3561
38423W        W41643   9.300   5.478   5.510 -0.0095 -0.3346 -0.0101
38424W        W41644   5.157   2.555   6.734 -0.0313 -0.1359 -0.2272
38425W        W41645  12.632   2.269  13.373  0.2802 -0.0556  0.0787
38426W        W41646   8.320  12.029  10.800  0.3847 -0.0183 -0.1687
38427W        W41647   9.218   2.582   7.545 -0.0588 -0.0548  0.0214
38428W        W41648   9.669   6.552   4.315 -0.0768  0.1806  0.0517
38429W        W41649  13.230  15.787  12.281 -0.1266  0.4830  0.3904
38430W        W41650  11.882  11.698   5.482 -0.2085  0.0002  0.1779
38431W        W41651  15.275  14.560   2.623  0.0285  0.1225  0.1594
38432W        W41652   3.864   0.775  17.540  0.0831 -0.0186 -0.1625
38433W        W41653  18.136   3.331   7.213 -0.0691 -0.2568 -0.0912
38434W        W41654  15.144   7.499   1.715  0.1853 -0.0371 -0.1633
38435W        W41655   8.781  11.355   1.927  0.0267  0.0469  0.0735
38436W        W41656  11.303   4.117  13.844 -0.0942 -0.2024 -0.1425
38437W        W41657   1.745  14.357   5.054  0.1825 -0.1376  0.1932
38438W        W41658  13.344  16.693  14.377 -0.1507 -0.1791 -0.2047
38439W        W41659  14.225  11.019   5.320 -0.1325 -0.0452  0.1841
38440W        W41660  16.434  16.915   8.600  0.0515  0.1739  0.1970
38441W        W41661  16.372  11.375   3.525 -0.2063  0.3465 -0.0068
38442W        W41662   7.133   1.449  11.011 -0.1156 -0.2740 -0.0935
38443W        W41663  14.910   9.720  10.377 -0.2009 -0.1362  0.0942
38444W        W41664  14.370  13.459   7.573  0.4155  0.0595 -0.0056
38445W        W41665  16.604  10.173  14.178  0.0516  0.0247 -0.2048
38446W        W41666  14.860   8.786  10.186  0.1310  0.0844 -0.4191
38447W        W41667  12.193   8.664  17.143  0.0384  0.1276  0.1159
38448W        W41668   9.849  17.164   7.084  0.1759  0.2343  0.1201
38449W        W41669  14.531  12.819   3.582 -0.0669  0.0994 -0.0556
38450W        W41670  17.324   3.742  11.369 -0.2682 -0.2403  0.2293
38451W        W41671  15.553  13.331   4.637  0.0884 -0.1370 -0.1407
38452W        W41672  11.194  17.924   2.328 -0.4905 -0.0459  0.2567
38453W        W41673  13.490  17.730   0.788  0.3767  0.2123  0.0157
38454W        W41674  13.699  15.694   1.970  0.2853  0.0324  0.3178
38455W        W41675  10.521  17.870   7.592 -0.0991  0.1804 -0.1174
38456W        W41676  10.858   0.089  16.901  0.0480 -0.1563  0.2909
38457W        W41677  11.922  14.513  17.530 -0.2036  0.0021 -0.0524
38458W        W41678  14.255   0.169   7.176 -0.1693  0.0282 -0.4936
38459W        W41679   7.924   4.739  17.348 -0.1012 -0.1122 -0.0267
38460W        W41680  17.763  14.091  14.457  0.4463  0.1183 -0.0342
38461W        W41681  10.207  16.858   4.684 -0.0777 -0.0076 -0.2002
38462W        W41682  14.834   3.784   9.550  0.0091  0.1186  0.1220
38463W        W41683  12.587  18.060   4.955  0.0281 -0.2335 -0.2023
38464W        W41684   9.368   4.778   8.201 -0.1834  0.1585 -0.0534
38465W        W41685  14.130  10.004  12.904 -0.0348 -0.2156 -0.2605
38466W        W41686   0.900   0.829   6.792 -0.2466  0.0651 -0.0121
38467W        W41687  10.833  17.768   9.258  0.0707 -0.0027  0.2012
38468W        W41688  15.667   2.108  12.326 -0.0791  0.0819 -0.1748
38469W        W41689  11.204  16.802   8.602 -0.2172  0.1120  0.4572
38470W        W41690   0.072  13.577   8.136  0.3092  0.0532  0.1238
38471W        W41691  14.297  14.711   5.681 -0.0742 -0.1141  0.0590
38472W        W41692  10.549   0.451  15.433 -0.0883 -0.0071 -0.1489
38473W        W41693  11.651  18.011  16.170  0.2439  0.1888 -0.2390
38474W        W41694  16.681  14.575  11.531  0.1359 -0.1878  0.2793
38475W        W41695   9.051  11.019   7.098 -0.3403 -0.2249 -0.1731
38476W        W41696  14.922  12.267  14.425  0.0753 -0.0127  0.0322
38477W        W41697  11.665  15.607   8.504 -0.0750  0.0474 -0.0827
38478W        W41698   8.577  14.243   4.398  0.0104 -0.0069  0.3977
38479W        W41699  13.438   3.172  10.965  0.2301 -0.1899  0.1010
38480W        W41700  15.282  14.453  10.280  0.2560  0.1196  0.1745
38481W        W41701  12.617   0.973  11.681  0.0265 -0.2391  0.2151
38482W        W41702   6.207   3.467   7.916 -0.0957  0.0637  0.0164
38483W        W41703  15.356   3.981   1.330 -0.1340  0.1361  0.3712
38484W        W41704   7.631   2.206   7.537  0.0807 -0.0260 -0.3717
38485W        W41705  11.167  17.763   4.398  0.2638  0.3034 -0.1517
38486W        W41706   9.173  10.854   6.129 -0.3061 -0.3454 -0.2285
38487W        W41707  12.144  13.883  10.374 -0.0907 -0.4309 -0.0454
38488W        W41708   1.055   0.395   8.030  0.0433  0.1580 -0.1615
38489W        W41709  12.919  16.493  10.719 -0.0797 -0.2557 -0.2447
38490W        W41710   5.069  17.111   4.802 -0.2507 -0.3181 -0.3531
38491W        W41711  15.738  10.761   2.781 -0.1673 -0.3571  0.0630
38492W        W41712  14.255  13.305  17.065  0.3019  0.0007 -0.2591
38493W        W41713   9.280  17.805  13.479  0.2578  0.0547  0.0544
38494W        W41714  11.803  14.856  10.653  0.0319 -0.0925 -0.2922
38495W        W41715   4.023   8.542  12.040 -0.0613 -0.1060 -0.3525
38496W        W41716  10.110   0.101   7.844 -0.0621  0.0945  0.0984
38497W        W41717  12.967  13.036  15.718  0.0727  0.0166  0.4552
38498W        W41718  10.923  15.523  15.888  0.0347  0.1195  0.1943
38499W        W41719  11.206  17.355   8.427 -0.1663 -0.0821  0.1959
38500W        W41720  11.146   3.693  15.556  0.0043  0.2992 -0.0618
38501W        W41721   9.228   2.140   7.740  0.0144  0.1016 -0.0894
38502W        W41722  10.301  11.455   1.655  0.0655 -0.2336  0.1987
38503W        W41723   6.488  15.148   9.799 -0.0266  0.2213 -0.1142
38504W        W41724   8.769   9.289   4.695  0.1708 -0.2913  0.1438
38505W        W41725   0.401   7.004  13.325  0.0231 -0.2496 -0.1497
38506W        W41726   2.789   0.427   4.114  0.0737 -0.2422 -0.0438
38507W        W41727  16.734  14.570  13.884 -0.0880  0.3275 -0.0519
38508W        W41728   8.357  15.074   9.085 -0.3162 -0.1115 -0.1782
38509W        W41729  15.412   1.940   2.795  0.0759 -0.3489 -0.1798
38510W        W41730   9.375  16.606  16.254  0.0801 -0.1139  0.1234
38511W        W41731  10.631  15.366   3.847 -0.1749 -0.1827 -0.1353
38512W        W41732   9.235  11.518   1.682 -0.2772  0.1351 -0.0108
38513W        W41733   5.409  13.052   9.955 -0.0681  0.0566  0.0873
38514W        W41734  11.686  16.721   9.683 -0.1030  0.0454  0.0746
38515W        W41735  14.234  15.011  11.522  0.1569 -0.3128 -0.0931
38516W        W41736  14.734  16.820   6.988  0.2204 -0.0195 -0.0954
38517W        W41737  11.248  13.801   8.682 -0.0482 -0.4855  0.0173
38518W        W41738  16.416   1.834   8.792 -0.0112 -0.0316  0.0883
38519W        W41739  14.087  11.296   6.116 -0.1701  0.1126  0.2444
38520W        W41740  12.892  15.894  13.467  0.0634 -0.1470  0.1619
38521W        W41741  15.971  15.404   4.920  0.2409  0.1319  0.0878
38522W        W41742   5.696   5.024   5.013  0.1660 -0.0311 -0.0397
38523W        W41743  10.920   4.165  12.528 -0.0794 -0.2143  0.0227
38524W        W41744   2.249  13.786   6.607  0.0204 -0.0082 -0.1588
38525W        W41745   5.565   3.179  10.698 -0.0046 -0.2732  0.2225
38526W        W41746  13.784  17.872  11.855 -0.4524 -0.1150  0.2548
38527W        W41747  14.441  17.586  15.037  0.0281  0.0245 -0.2023
38528W        W41748  17.202  15.884  18.098 -0.1133  0.0763 -0.0752
38529W        W41749  13.551   3.674  12.797 -0.1259 -0.0016 -0.1966
38530W        W41750  15.295  14.272   8.776 -0.3672  0.0811 -0.0795
38531W        W41751  10.411   2.838  12.363  0.1762  0.1196  0.1358
38532W        W41752  11.161  14.115   1.476  0.6059 -0.1360  0.0485
38533W        W41753  17.668   0.933   8.000 -0.2939  0.3215  0.1680
38534W        W41754   5.278  15.078   7.450  0.2571 -0.0169 -0.1150
38535W        W41755  15.711  17.167   7.359 -0.1553 -0.0950 -0.0472
38536W        W41756  10.900  15.900   5.199 -0.2587 -0.1014 -0.1293
38537W        W41757   6.479  16.650   9.966 -0.0302  0.0197 -0.0473
38538W        W41758   5.860   1.373  11.228 -0.3561 -0.2000  0.0431
38539W        W41759  10.041   3.964  13.027 -0.3302 -0.0203 -0.0368
38540W        W41760  14.212  13.885   5.349 -0.0377 -0.0764 -0.0503
38541W        W41761  10.601   0.323  14.233  0.0269 -0.2288  0.1073
38542W        W41762  14.694  14.774   7.611 -0.0241  0.0601 -0.1860
38543W        W41763   5.642   8.042   0.935 -0.1158 -0.1362 -0.0598
38544W        W41764   7.836   7.777  11.151  0.4581  0.0720 -0.1451
38545W        W41765  12.632  16.236  12.415  0.1998 -0.0670  0.0563
38546W        W41766   8.544   3.777  13.502  0.3372  0.1929 -0.0868
38547W        W41767   7.756  13.078   7.095 -0.0812  0.0813 -0.4251
38548W        W41768   3.036  10.409  17.734  0.0380  0.2940 -0.0203
38549W        W41769  12.795  16.956  15.220 -0.0399 -0.1051  0.1741
38550W        W41770   0.005  17.415   7.746 -0.2177  0.1330 -0.1737
38551W        W41771   8.792   0.797   9.243  0.0324  0.1294  0.1699
38552W        W41772  11.053  17.085   7.533 -0.1418 -0.1403 -0.2271
38553W        W41773  12.261  13.536  12.775  0.0028 -0.0679 -0.0332
38554W        W41774  11.297  10.472   9.229  0.0970 -0.2598 -0.0768
38555W        W41775  12.939  10.293   0.741  0.2103 -0.1915 -0.1035
38556W        W41776   9.843   2.815   8.720  0.2585 -0.0868  0.2465
38557W        W41777  12.230   1.061   4.929  0.1533 -0.0398 -0.0228
38558W        W41778   7.785  15.215  16.729  0.1315 -0.2166  0.0546
38559W        W41779  13.958  16.237   6.116 -0.0029 -0.0784 -0.2580
38560W        W41780  16.658  12.781  10.125  0.1593  0.2009 -0.2069
38561W        W41781   8.711  16.216  10.925 -0.1040  0.0263 -0.0155
38562W        W41782  16.646   0.088  14.876  0.1381 -0.3134 -0.1362
38563W        W41783  12.925  12.000   6.360  0.2567  0.2335  0.1056
38564W        W41784  12.703   2.034   6.386  0.1398 -0.0866 -0.1434
38565W        W41785   6.654  14.844  12.661  0.1720 -0.5031 -0.1013
38566W        W41786   0.612   5.786   5.786  0.0858  0.0808  0.2391
38567W        W41787  12.471  15.050   6.666  0.0049 -0.1090  0.1272
38568W        W41788   7.654  12.059  12.416 -0.3865 -0.0659 -0.0516
38569W        W41789  12.793   3.028   7.171 -0.1105 -0.2614  0.1286
38570W        W41790  15.383  16.966  10.780  0.0138  0.0687  0.0300
38571W        W41791  17.981   7.989   8.194 -0.4038  0.0027  0.3093
38572W        W41792   8.525   3.806   3.568 -0.0335  0.1204 -0.1430
38573W        W41793   6.076  13.097   8.549  0.0260  0.0156 -0.0264
38574W        W41794  10.436  16.659  13.236 -0.0598  0.0098 -0.1725
38575W        W41795   0.339   2.749  15.254  0.0880  0.3661 -0.0477
38576W        W41796   9.200   0.440  13.143  0.4069  0.0106  0.1821
38577W        W41797  11.792  12.596   3.896  0.4652 -0.1406 -0.0549
38578W        W41798   9.448   3.620   3.848 -0.0485 -0.2682  0.0297
38579W        W41799  15.525   2.599  12.309 -0.1525  0.5511  0.1182
38580W        W41800  10.339  14.916   6.481  0.1885 -0.0769  0.2588
38581W        W41801  13.188  16.803   6.858 -0.1228 -0.1038 -0.0642
38582W        W41802  13.567   0.750  13.594  0.0961 -0.1122  0.0226
38583W        W41803  15.181  15.081   4.537  0.0241 -0.0508 -0.1437
38584W        W41804   8.593  12.053  10.249 -0.0599 -0.2718 -0.1205
38585W        W41805   7.916   3.773  17.966  0.0097 -0.1694 -0.1210
38586W        W41806   9.132   4.655  13.518 -0.1129 -0.1787  0.1716
38587W        W41807  18.260  14.536  16.153 -0.3007 -0.0934  0.1940
38588W        W41808  10.620  17.431   5.423 -0.2599 -0.0176  0.2516
38589W        W41809  10.334   3.790   4.057 -0.2232  0.1267 -0.3088
38590W        W41810  11.373   1.122   3.908 -0.4095  0.1795 -0.1451
38591W        W41811  13.041  12.719  11.306 -0.1566 -0.0736 -0.0188
38592W        W41812   7.975   4.952   4.977  0.0096  0.4479 -0.0588
38593W        W41813   9.332  13.704  12.772  0.3346  0.1776  0.0897
38594W        W41814  14.375   0.259  15.793 -0.3142 -0.0784  0.2276
38595W        W41815   8.110  16.587   7.066  0.2880  0.1267  0.2324
38596W        W41816  13.056   0.220  16.673  0.1182  0.3189 -0.0415
38597W        W41817  10.745   0.183  16.431 -0.1957  0.1458  0.0366
38598W        W41818  14.247   0.250  16.683  0.1129 -0.0951  0.1589
38599W        W41819   7.127  16.012   6.465  0.0099 -0.1006 -0.0915
38600W        W41820  16.715  17.031  10.196 -0.0978 -0.0879  0.1049
38601W        W41821  17.611  17.304   9.508 -0.0086  0.4313 -0.0340
38602W        W41822   6.836   9.247   9.043  0.0457 -0.0166  0.0899
38603W        W41823   8.861   4.542   7.314 -0.3164 -0.0282 -0.0418
38604W        W41824   0.152   2.297  10.694  0.0358  0.0118  0.1256
38605W        W41825  17.136  15.886  15.395  0.1314 -0.2308 -0.2502
38606W        W41826  10.770  12.011  16.032  0.2486  0.1156  0.1084
38607W        W41827  12.336   3.127  16.506 -0.3295 -0.2348 -0.1275
38608W        W41828  12.401  16.690  16.629 -0.1325  0.2603 -0.0309
38609W        W41829   9.027  15.634   9.678 -0.0359  0.2484 -0.0361
38610W        W41830  14.964  17.705   7.365  0.1551  0.0361 -0.1493
38611W        W41831   8.422   8.052   3.366  0.1058 -0.1228 -0.0713
38612W        W41832  10.407   0.742  14.302  0.0710  0.3828 -0.1323
38613W        W41833   9.603  17.637  15.409 -0.0523 -0.2276 -0.2331
38614W        W41834  11.541  15.002   9.311 -0.1115 -0.1043  0.0277
38615W        W41835  14.156  15.360  14.144  0.1802  0.1325  0.2434
38616W        W41836  12.139  16.506   0.587 -0.1411 -0.2250  0.1187
38617W        W41837  14.394  13.645  11.690 -0.0987 -0.1541 -0.1899
38618W        W41838  11.765  16.857  10.672  0.1665  0.0454 -0.2054
38619W        W41839  11.074   2.257   1.299  0.0361  0.1657 -0.3639
38620W        W41840   0.128   0.489  10.976  0.0966  0.0548 -0.1615
38621W        W41841  13.596   8.973  17.367  0.3944  0.3819  0.0718
38622W        W41842  13.580  13.567  11.401  0.0086 -0.5341  0.0382
38623W        W41843   1.816   0.354  16.809  0.1355 -0.3185  0.1332
38624W        W41844   6.780  16.533  13.760 -0.4063 -0.1401  0.0341
38625W        W41845   7.191  12.265   7.457 -0.2349 -0.1095 -0.0022
38626W        W41846  14.292  15.054   1.225  0.0638 -0.1538 -0.0745
38627W        W41847  10.732  13.845   1.554  0.1806 -0.0561  0.2900
38628W        W41848  11.732  13.550  14.176 -0.1184  0.3795 -0.1648
38629W        W41849  10.891   9.780  10.204 -0.1812  0.1237  0.2460
38630W        W41850   9.825   1.985   8.158  0.2622 -0.0438  0.1663
38631W        W41851  12.081  16.083   2.775 -0.2875  0.2505 -0.4644
38632W        W41852   5.255  14.064  16.593 -0.0512 -0.1785  0.2022
38633W        W41853  16.761  10.649  10.092  0.1379 -0.0495 -0.2058
38634W        W41854   9.472   1.008  10.954 -0.0427  0.1668  0.1634
38635W        W41855   6.856  15.607   9.800 -0.2224 -0.2972  0.1635
38636W        W41856   7.186  13.225   7.408  0.3276  0.0891  0.1312
38637W        W41857  10.527  15.124   5.011  0.1733 -0.3004 -0.0084
38638W        W41858  13.077   0.005  11.373  0.0791  0.2379  0.2141
38639W        W41859  17.909  13.338  14.052 -0.0233 -0.2554  0.1671
38640W        W41860   9.524  14.259  13.512 -0.0831  0.1385  0.2563
38641W        W41861  11.326   8.967  16.676  0.1157  0.0644 -0.2133
38642W        W41862  11.343   4.034   9.798 -0.2241  0.1957  0.1923
38643W        W41863  15.612   0.502  11.592  0.1692  0.1630  0.0739
38644W        W41864   1.364   0.626   9.491 -0.2304 -0.0566 -0.1381
38645W        W41865  16.165   1.208  12.191  0.1298 -0.2968  0.0615
38646W        W41866   8.287  17.380  10.616 -0.0615  0.0404 -0.0470
38647W        W41867   9.448  16.852  13.864 -0.1461  0.2361  0.1235
38648W        W41868   8.067   1.142  11.783 -0.2934 -0.0618  0.2206
38649W        W41869   5.394  16.658   8.637  0.1245 -0.0127 -0.1975
38650W        W41870  18.078  17.748  10.487  0.0836 -0.0486  0.0412
38651W        W41871  14.767  16.721   8.633 -0.2085 -0.0024  0.0013
38652W        W41872  10.810  13.755   7.660  0.0339 -0.1210  0.0850
38653W        W41873   3.880   2.545  15.894 -0.0101  0.1077  0.0633
38654W        W41874  17.093  14.688   8.508 -0.0137 -0.3799 -0.1330
38655W        W41875   7.170   1.066  13.831 -0.0616  0.0339  0.1897
38656W        W41876   7.685   8.910  12.585 -0.0568  0.1577 -0.0418
38657W        W41877   9.818   0.469   7.661  0.2035 -0.2831 -0.1309
38658W        W41878  13.230   5.737   0.946 -0.1486 -0.0296  0.1800
38659W        W41879  12.945   3.284   7.944  0.4675 -0.1538  0.2258
38660W        W41880  16.985  16.438   8.032 -0.0192 -0.1505 -0.0953
38661W        W41881  11.325   4.211  11.875  0.3973  0.2614  0.0052
38662W        W41882  11.371  14.521   0.042 -0.1545 -0.0010 -0.0707
38663W        W41883  12.508  16.860   0.622 -0.1913 -0.0947 -0.0329
38664W        W41884   9.740  15.394   2.772 -0.0143  0.1914  0.1459
38665W        W41885   1.265   1.212   7.515  0.1089  0.5067  0.1240
38666W        W41886   6.005   8.570  12.139 -0.2016 -0.0285 -0.0666
38667W        W41887  10.244  11.105  14.302 -0.0401  0.1019  0.0555
38668W        W41888   7.707  18.213  12.288 -0.0402  0.1428 -0.0045
38669W        W41889  14.086  14.640  12.741 -0.2861  0.4390 -0.3256
38670W        W41890  16.319  14.687  17.191 -0.0018  0.0836  0.2861
38671W        W41891   8.509  17.318   8.178  0.1007 -0.0593 -0.2095
38672W        W41892  10.957  13.466  11.160  0.4496 -0.2251  0.1796
38673W        W41893  17.557   0.635  11.228 -0.0531 -0.0118 -0.0988
38674W        W41894  10.608  16.028  17.078  0.3038 -0.2431  0.1201
38675W        W41895   8.696   8.792   7.428  0.0715 -0.0772 -0.1915
38676W        W41896  13.074  10.917  13.650 -0.0810 -0.2186 -0.0849
38677W        W41897  12.357  17.003   5.850 -0.0237  0.0503 -0.0690
38678W        W41898  14.425   9.761  11.425 -0.1352 -0.0151 -0.1458
38679W        W41899   0.218  14.329  17.752  0.0004 -0.2363  0.2031
38680W        W41900  18.008   3.948  15.519 -0.0665 -0.0695  0.1740
38681W        W41901  11.735   4.137  14.378  0.0098 -0.1159 -0.0120
38682W        W41902   8.965   3.315   9.972 -0.0006 -0.1200  0.0445
38683W        W41903   6.595   9.660  14.480 -0.1688  0.3560 -0.0319
38684W        W41904  16.669  14.425   0.027 -0.0672  0.0586  0.1402
38685W        W41905  11.477  15.415  15.715  0.2206  0.2475  0.0410
38686W        W41906  13.423  14.175   9.671  0.0418  0.0581  0.0787
38687W        W41907  11.816  18.165  17.060 -0.0981 -0.2410 -0.5906
38688W        W41908  13.905   0.215   0.312 -0.1709 -0.1358  0.0474
38689W        W41909  15.950   9.821  11.898  0.0336 -0.4175  0.1318
38690W        W41910   8.765  13.699  13.574 -0.2827  0.1288  0.0021
38691W        W41911  14.700  18.216   7.042  0.0093 -0.3514 -0.1569
38692W        W41912  12.703  11.541  13.059 -0.2449  0.2005  0.0270
38693W        W41913   9.346  13.049  13.398 -0.3037 -0.0421  0.3790
38694W        W41914  10.653   1.250  11.434  0.1756  0.0240  0.0788
38695W        W41915  11.188  10.401  13.782  0.1129 -0.1440  0.1291
38696W        W41916  12.746  17.438   5.733 -0.1375  0.2258 -0.1586
38697W        W41917   4.747  14.344   8.987  0.1733 -0.0665  0.1154
38698W        W41918   6.875  15.096  14.485  0.1752  0.0383  0.1164
38699W        W41919   8.405  14.593   9.137 -0.3079  0.2475 -0.1015
38700W        W41920  16.352   5.793   7.786  0.2736 -0.0778  0.1607
38701W        W41921  12.323  15.988   6.811 -0.3686  0.2303  0.1482
38702W        W41922   8.008  15.874  12.971 -0.0741  0.0311  0.1107
38703W        W41923  11.677  13.984   4.718  0.1795  0.0157  0.2302
38704W        W41924  15.618  14.838  11.201  0.0689  0.1094  0.1936
38705W        W41925  10.627   0.331  17.508  0.0834 -0.1969 -0.2667
38706W        W41926  15.238   1.776  13.315  0.3958 -0.1252  0.1779
38707W        W41927  14.965  10.669   9.018 -0.0336 -0.0905  0.2240
38708W        W41928   2.089  15.969   1.207 -0.2337 -0.2219 -0.0780
38709W        W41929  14.513   3.923   8.952 -0.2697 -0.1818  0.1467
38710W        W41930  14.340   1.162   4.001  0.3065 -0.0867 -0.1844
38711W        W41931  11.414   1.173  12.631  0.3762  0.2113 -0.1715
38712W        W41932   9.349   8.753   3.767 -0.1093  0.0549 -0.2231
38713W        W41933  15.403  10.214  12.607  0.0324  0.1281 -0.2236
38714W        W41934   9.920   1.038  13.926  0.1281  0.2963 -0.3813
38715W        W41935  10.111  16.794  11.590 -0.0457 -0.1250  0.0213
38716W        W41936  14.093   0.438  14.501 -0.0382 -0.1452  0.1756
38717W        W41937   4.748   4.002  13.878 -0.0348  0.0838  0.0403
38718W        W41938  14.052  18.013  10.267  0.3042 -0.2779  0.0170
38719W        W41939  11.192  16.274   8.893  0.0563  0.0577  0.0039
38720W        W41940  15.706  15.502  16.267  0.0709  0.2147  0.1958
38721W        W41941  17.098   0.360  11.405  0.0652  0.0273 -0.0267
38722W        W41942   2.851  14.753  16.253  0.3748 -0.2934  0.2049
38723W        W41943   0.900  15.454  10.999  0.1242 -0.0464 -0.0923
38724W        W41944  14.024  15.891  11.740  0.3725  0.3609 -0.1676
38725W        W41945  17.198  12.820   7.066  0.0031 -0.0497 -0.2609
38726W        W41946  15.579   5.801  10.531 -0.2686 -0.2433 -0.2733
38727W        W41947  14.786  15.570   6.705  0.1016 -0.3267  0.2827
38728W        W41948  10.483  13.593  10.016 -0.2396 -0.1254  0.1308
38729W        W41949  14.286  10.853   0.990  0.0039  0.3640 -0.2165
38730W        W41950  15.081  14.318   9.861 -0.1784  0.2821  0.0962
38731W        W41951   8.967   8.825   8.711 -0.0916  0.0193  0.1271
38732W        W41952  12.003  10.699  13.540  0.0137  0.0136  0.0259
38733W        W41953   5.918   1.503   9.326 -0.0206 -0.1059 -0.2402
38734W        W41954   5.569  16.321  15.214 -0.1372  0.3283  0.0135
38735W        W41955   0.154  16.451  15.401 -0.0110  0.1015  0.1430
38736W        W41956   9.559   9.253  16.411 -0.1170  0.2597 -0.1927
38737W        W41957   1.896  18.050   8.221 -0.0353  0.2140 -0.0210
38738W        W41958  10.667  14.733   4.045 -0.0021 -0.0349  0.2606
38739W        W41959   7.570  14.632  16.072 -0.1143 -0.1156 -0.0403
38740W        W41960  17.479   8.575  15.659 -0.0038 -0.0109  0.0992
38741W        W41961   7.314  16.582  16.767 -0.0340  0.0372  0.0520
38742W        W41962  11.379  17.087   9.971 -0.2622 -0.0386  0.0041
38743W        W41963   8.588  12.455   5.014  0.1195  0.2762  0.1503
38744W        W41964  10.699  12.648  13.860  0.1305 -0.0964  0.0652
38745W        W41965   2.711  14.009  12.211  0.4211  0.0417 -0.0236
38746W        W41966  10.169  12.042  13.051 -0.2185 -0.3214  0.0510
38747W        W41967  11.457  16.106  14.802 -0.1732 -0.1506 -0.2489
38748W        W41968   0.470  13.019   1.372 -0.1965 -0.0150  0.0383
38749W        W41969  11.150  14.705  16.251 -0.1150 -0.1930  0.1336
38750W        W41970  13.534  15.166  13.553 -0.1090 -0.0356 -0.1068
38751W        W41971   8.464   5.139   8.955  0.2347  0.1978  0.2784
38752W        W41972   1.751   1.203   1.639  0.0607  0.0602 -0.0993
38753W        W41973  18.239   8.634   8.554  0.1020 -0.0739  0.1886
38754W        W41974  11.751   7.479  14.013  0.1493 -0.1902 -0.1588
38755W        W41975   8.048   0.664  11.305  0.0560  0.1135  0.0753
38756W        W41976   7.454   0.069  11.373  0.0213 -0.1067  0.2590
38757W        W41977  14.496  18.183   5.535  0.2164  0.1212  0.0116
38758W        W41978  14.390  12.772  15.992  0.3536  0.3316  0.2622
38759W        W41979  17.301   4.338  17.302  0.2067  0.1277 -0.0466
38760W        W41980   5.967   3.246  15.071  0.0818  0.0797 -0.0115
38761W        W41981   7.149   1.138  12.343 -0.2504 -0.4225  0.0456
38762W        W41982   1.252   2.082  14.343  0.1121 -0.2132  0.1003
38763W        W41983  16.223  12.971   3.542 -0.1981 -0.1471 -0.2748
38764W        W41984  10.579   8.478  16.819 -0.0149  0.0871 -0.2505
38765W        W41985   2.040   2.574   2.802 -0.1386  0.1238 -0.2198
38766W        W41986   0.990  14.220  17.449  0.2076 -0.1816 -0.2443
38767W        W41987  15.977   7.467  12.717  0.2023  0.0236  0.2387
38768W        W41988  12.149  15.379  14.326  0.1637  0.3364 -0.1037
38769W        W41989  12.337  15.240   7.806 -0.1286 -0.0304  0.2151
38770W        W41990  18.055  10.365  11.666  0.0963  0.1687  0.0927
38771W        W41991   9.189   0.094   9.977  0.0376 -0.3759 -0.0495
38772W        W41992  16.488  13.150  17.201  0.0571  0.1085 -0.2120
38773W        W41993  15.828   4.191  10.978  0.1567 -0.0097 -0.3327
38774W        W41994   7.757  11.301  13.286  0.2283  0.0115 -0.2718
38775W        W41995   7.446  12.917  11.513 -0.3015 -0.1809 -0.0939
38776W        W41996  13.021  15.978  17.650  0.2473  0.2803 -0.2290
38777W        W41997  11.022  15.952  11.627 -0.0376 -0.0224  0.0083
38778W        W41998   6.620   2.029   1.446 -0.0291  0.2212 -0.2171
38779W        W41999   9.586   9.789  14.926  0.2099  0.1137  0.0939
38780W        W42000  14.599  17.049  15.621 -0.2112 -0.1064 -0.1201
38781W        W42001   3.546   7.586  10.833 -0.1982  0.1173 -0.1418
38782W        W42002   6.664  16.759   0.594 -0.0304 -0.0931 -0.2237
38783W        W42003   6.367  14.839   7.622 -0.2550  0.1481 -0.2330
38784W        W42004  12.827  13.599  17.316  0.0443  0.2395 -0.1002
38785W        W42005  11.463  12.065  16.626  0.1175 -0.2014 -0.1144
38786W        W42006   0.973   0.515  13.299  0.0161 -0.4207 -0.0838
38787W        W42007  15.141   0.425  10.608 -0.0049 -0.1825  0.0772
38788W        W42008  10.431  17.014   7.893 -0.2738  0.1751  0.0901
38789W        W42009   9.346   3.889  11.111  0.0834  0.1753 -0.2757
38790W        W42010   0.235   3.010  13.738 -0.1509 -0.1733  0.0472
38791W        W42011   7.972  14.429  17.304 -0.1015 -0.3157  0.2416
38792W        W42012   8.970  11.301   5.757  0.0140  0.0233  0.1605
38793W        W42013  13.978  17.066  10.273  0.1974 -0.0241  0.0465
38794W        W42014   9.603  12.173  16.301 -0.2977  0.0416  0.1753
38795W        W42015   8.879  16.927   8.678 -0.0931 -0.0555  0.1799
38796W        W42016  16.891  11.328  16.237  0.0067  0.2690 -0.0582
38797W        W42017   7.607  16.120   8.464  0.1022  0.0902  0.0520
38798W        W42018   9.251  16.521  14.808  0.0382  0.0682  0.0683
38799W        W42019  11.059  16.677  11.426 -0.5194  0.1158 -0.1008
38800W        W42020  13.446   5.390  12.655 -0.2498  0.1591 -0.0656
38801W        W42021   9.415  13.853  15.073  0.3129  0.1018  0.1105
38802W        W42022   6.550  11.978   4.306  0.1071 -0.1353 -0.0210
38803W        W42023  10.788  16.512   6.506  0.0367  0.0494 -0.0306
38804W        W42024  17.205  15.141  17.584  0.0585  0.2401  0.3556
38805W        W42025  11.474   1.194  15.201 -0.2289 -0.0227  0.0613
38806W        W42026   9.660  11.645  11.662  0.2941  0.3142 -0.1947
38807W        W42027  13.563   1.062  13.168  0.1181 -0.0142 -0.0553
38808W        W42028   9.385  13.924   8.743  0.3183 -0.1542 -0.2289
38809W        W42029  13.883   4.233  10.686  0.3396 -0.2420 -0.1092
38810W        W42030  16.834  12.378  16.916  0.2912  0.1336 -0.0143
38811W        W42031  10.175  13.130   4.211  0.0781 -0.2877  0.0625
38812W        W42032  12.908  17.958  15.646 -0.3830  0.3161  0.5092
38813W        W42033  11.245   1.978  13.067  0.0161  0.0333 -0.0338
38814W        W42034  10.076  14.197  15.579  0.2353 -0.0376 -0.1999
38815W        W42035  11.337  15.954   3.093 -0.0679 -0.1221  0.0328
38816W        W42036  11.928   2.611  12.270  0.2177 -0.1665 -0.2196
38817W        W42037  13.100   5.995   9.245 -0.0120 -0.1095  0.1224
38818W        W42038   8.833   1.329   4.690 -0.0578 -0.0807  0.0177
38819W        W42039  12.591   1.329  11.262 -0.0478 -0.1917  0.1686
38820W        W42040  15.222  16.072  15.112  0.0621 -0.1568 -0.0582
38821W        W42041   2.689   5.098  13.602  0.0202 -0.1398 -0.0006
38822W        W42042  13.911   0.755   2.774  0.1812 -0.1047 -0.0712
38823W        W42043  17.225   9.094  15.127 -0.1047 -0.3824  0.2225
38824W        W42044   8.961  12.878  10.030  0.1159 -0.1072 -0.2340
38825W        W42045  11.650  14.543  14.793  0.1879  0.1255  0.0939
38826W        W42046  11.408   7.768   6.135 -0.0714 -0.2360 -0.1399
38827W        W42047   7.950  18.093  10.660  0.0152  0.1211  0.0772
38828W        W42048   9.035   7.144  18.139 -0.3017 -0.0510  0.2149
38829W        W42049   9.787  17.083  11.340 -0.0265  0.4294 -0.0324
38830W        W42050  15.422   9.503  13.032 -0.2858 -0.1106  0.0864
38831W        W42051   7.794  15.591  13.602 -0.0056 -0.0011  0.0856
38832W        W42052  10.658   8.863   9.781  0.0187  0.2134 -0.1048
38833W        W42053   9.827   9.418   1.045  0.1271  0.1925 -0.0919
38834W        W42054  13.331  12.620  13.949 -0.0079 -0.1500 -0.2499
38835W        W42055  14.174  17.703  12.118 -0.0822 -0.3203  0.0699
38836W        W42056   9.481  17.736  14.185 -0.0207 -0.1297  0.0215
38837W        W42057   9.721  12.591  12.654 -0.0778 -0.0839 -0.3011
38838W        W42058   4.373  14.302   8.588  0.4659 -0.1274 -0.2217
38839W        W42059  15.441  15.014  16.078  0.4800  0.2290 -0.1743
38840W        W42060   0.009  14.108  12.868  0.0398  0.2929 -0.2183
38841W        W42061  11.880   1.226   8.177 -0.0727 -0.1882  0.1549
38842W        W42062  16.653   6.694  11.866  0.0975 -0.0655  0.2886
38843W        W42063  16.183  18.248   1.691 -0.1249 -0.2259 -0.1801
38844W        W42064  11.111   7.376  12.248 -0.1059 -0.0347 -0.3488
38845W        W42065  10.250   2.148   3.924  0.1478  0.0854  0.0936
38846W        W42066  14.909  16.559  14.765  0.2942 -0.1470 -0.3264
38847W        W42067   8.196  16.482   7.966  0.1924 -0.0165 -0.1638
38848W        W42068  10.859  12.663  14.723  0.0586  0.1906  0.0886
38849W        W42069  10.893  12.162  11.601  0.3317  0.1369 -0.0054
38850W        W42070  14.697  15.692  10.264 -0.2221 -0.2597  0.0239
38851W        W42071  12.823   0.019  18.138  0.1870  0.0047 -0.0008
38852W        W42072  10.856   8.481   0.354  0.0138  0.0943 -0.0524
38853W        W42073   6.112  15.507  12.207  0.2779  0.1936 -0.0567
38854W        W42074   7.880  17.956   0.958  0.0541 -0.2239  0.0653
38855W        W42075   9.587  10.212  10.220  0.0821  0.0466 -0.1626
38856W        W42076  11.805   9.328  10.318  0.0343  0.2898  0.0176
38857W        W42077  13.105   0.858  12.439 -0.0816 -0.0160  0.1554
38858W        W42078  15.150  14.772  18.244 -0.2286 -0.1262 -0.1073
38859W        W42079   4.897   8.580  13.040 -0.1405 -0.2093 -0.1194
38860W        W42080   8.178   1.891  10.536  0.1487 -0.0157  0.0013
38861W        W42081  12.832  14.999  12.583 -0.1812  0.0054  0.0734
38862W        W42082  11.997   1.607  17.531 -0.3898  0.2187 -0.0908
38863W        W42083  12.897   0.176  15.928  0.1492 -0.0215  0.1305
38864W        W42084  11.847  14.113   5.260 -0.0384  0.0822  0.0874
38865W        W42085   4.805  17.936  14.276 -0.2867  0.1748  0.0762
38866W        W42086   7.311   1.380  13.473  0.0138  0.1882  0.0716
38867W        W42087  13.432  10.626  12.127  0.0182 -0.1378  0.2597
38868W        W42088  13.114  10.129  15.418  0.2519  0.2073  0.0474
38869W        W42089  11.663   3.840   9.356  0.2053  0.1020 -0.3259
38870W        W42090   7.037  15.311   8.341 -0.3638  0.1074 -0.1912
38871W        W42091  11.599  12.841  11.211  0.0122  0.2591 -0.1270
38872W        W42092   1.911  17.493   4.722  0.0961  0.0086  0.2100
38873W        W42093  13.685  17.488  10.481  0.1026 -0.1747  0.3021
38874W        W42094   2.389   4.758   7.884 -0.0351  0.1106  0.1706
38875W        W42095   9.896  10.822  18.127  0.1281  0.1688  0.3596
38876W        W42096  12.534  15.661  13.162 -0.0596  0.1659 -0.1373
38877W        W42097  13.939  14.385  17.174  0.0753  0.1563 -0.1866
38878W        W42098  11.822  17.340  11.077  0.1288 -0.0543 -0.0269
38879W        W42099  11.769   0.323   1.841 -0.1825  0.1332  0.4879
38880W        W42100  14.796  18.093  10.927 -0.0379  0.1207 -0.0135
38881W        W42101   0.017  13.598  11.537 -0.0982  0.2190 -0.0750
38882W        W42102  11.697   1.441  10.798  0.0410  0.1080  0.0605
38883W        W42103   7.204  16.131  18.252  0.4311 -0.2527  0.0545
38884W        W42104  11.284   0.972  17.130 -0.3053  0.0866 -0.0555
38885W        W42105  10.398  11.237  16.770 -0.0739  0.2664 -0.0427
38886W        W42106  12.652   4.285  11.244  0.0883  0.0254 -0.0925
38887W        W42107   8.832  13.786  12.175  0.1377  0.3100  0.0119
38888W        W42108  12.062  12.557  15.509 -0.0816 -0.1488 -0.1737
38889W        W42109  16.204  15.289  11.425  0.2619 -0.1001 -0.4888
38890W        W42110  11.812  14.579  11.763 -0.0288 -0.1011 -0.2387
38891W        W42111  11.345   1.814   1.273  0.0168  0.1000  0.2127
38892W        W42112   2.265  17.668  12.431  0.1437  0.1262  0.1946
38893W        W42113   9.529   3.448  14.935 -0.2913 -0.2741 -0.1021
38894W        W42114   4.517  12.102   9.473  0.2057  0.1728  0.0962
38895W        W42115  15.730   5.156  13.559  0.1465  0.0546 -0.0229
38896W        W42116  13.698  14.602   9.714  0.2217  0.2479 -0.0260
38897W        W42117  14.067  14.708  18.162 -0.0809 -0.1670  0.0369
38898W        W42118   9.078  13.835  15.423 -0.1304  0.0580  0.0650
38899W        W42119  11.173  13.730   4.718  0.1367  0.1223  0.2167
38900W        W42120  18.216  15.716  15.866 -0.0800 -0.0618  0.0345
38901W        W42121   9.193   1.063   7.976  0.1186 -0.2254  0.0264
38902W        W42122   9.231  16.228  13.179  0.1666 -0.2560  0.1024
38903W        W42123   7.421  16.673   3.773  0.0060  0.2003  0.0647
38904W        W42124   8.800   0.669  11.642 -0.0961 -0.1622 -0.3302
38905W        W42125   9.470   6.086   7.675 -0.1796  0.2534 -0.0255
38906W        W42126  16.429   7.321  16.748 -0.1555  0.0094  0.0037
38907W        W42127  15.419  10.738   5.788 -0.0696 -0.1487 -0.1251
38908W        W42128  12.046  13.350  13.843 -0.0128  0.2309 -0.0655
38909W        W42129  11.921  16.759  12.422  0.0617 -0.1856 -0.6497
38910W        W42130  10.567   0.377  12.194 -0.1034 -0.0300  0.0384
38911W        W42131  11.454  17.823  11.951  0.2571 -0.0078  0.0435
38912W        W42132  11.175  13.690  16.846 -0.1110 -0.1123 -0.4094
38913W        W42133   9.545  17.533   6.771 -0.1150  0.0825  0.2926
38914W        W42134  16.924  15.792   7.419  0.0944 -0.0202 -0.0119
38915W        W42135   8.954   4.148  15.492  0.0424 -0.1741 -0.2152
38916W        W42136   7.104   5.002   8.497  0.1890  0.3568  0.1741
38917W        W42137  15.847  16.935  16.359 -0.3384  0.0192 -0.0431
38918W        W42138   9.767   5.099  13.038 -0.1191  0.1743  0.2245
38919W        W42139  15.047  17.286  10.982 -0.3490  0.0980 -0.2271
38920W        W42140   0.493  14.996  12.221 -0.0549  0.0875 -0.2186
38921W        W42141   7.859  10.889  15.524 -0.3698 -0.3620 -0.1527
38922W        W42142  11.302   6.510  11.603  0.0013 -0.2176  0.2225
38923W        W42143  13.133  12.657   6.401 -0.2929 -0.0868  0.0232
38924W        W42144  10.030   1.126   6.072 -0.1902  0.0933  0.0543
38925W        W42145  10.266   5.147  14.947 -0.1226 -0.2812  0.0320
38926W        W42146  12.949   4.836  11.296  0.1532  0.2964  0.0459
38927W        W42147   7.951  15.215   6.956 -0.0577  0.1283  0.0407
38928W        W42148  15.276   2.724  11.017  0.1659  0.4989 -0.1381
38929W        W42149   9.893  11.543  10.460 -0.1127  0.1274  0.0598
38930W        W42150  11.998   0.329  17.356  0.0176  0.1859  0.2936
38931W        W42151  13.684   2.277  14.803  0.2954 -0.2153  0.1437
38932W        W42152  14.340  11.767  17.260 -0.0157  0.3102  0.2425
38933W        W42153  12.157  14.826   3.077 -0.0690  0.2420  0.0507
38934W        W42154  10.193  12.771   0.628 -0.0276  0.2882  0.0471
38935W        W42155  12.679  17.848  13.183 -0.1421  0.1970  0.0564
38936W        W42156   5.967   0.601   5.828  0.0227 -0.1797  0.3783
38937W        W42157   0.454   2.060  14.978 -0.1174  0.1991 -0.0598
38938W        W42158  12.151   7.579  10.114 -0.1757 -0.1246 -0.0188
38939W        W42159  14.107   4.213  18.267 -0.0033 -0.0920  0.0192
38940W        W42160   4.603  13.976  14.156  0.1695 -0.0687 -0.0239
38941W        W42161  15.196  17.425   9.145 -0.0797  0.1776 -0.1907
38942W        W42162  10.324  13.153  10.377 -0.0749  0.0583 -0.1710
38943W        W42163  17.855  13.496   4.560  0.2790 -0.2236 -0.1732
38944W        W42164  11.122  15.354  14.316  0.0576  0.0667  0.0493
38945W        W42165  11.150  13.421  12.927 -0.1352 -0.0127  0.2925
38946W        W42166   2.360  16.261  14.254 -0.1448 -0.1139  0.2643
38947W        W42167  13.689  17.123   5.424  0.2746  0.1489  0.0731
38948W        W42168   3.621  17.510   4.299  0.0778  0.1150  0.0201
38949W        W42169  15.054   1.135   3.995 -0.0001  0.0426 -0.0308
38950W        W42170  11.904  10.375  12.987 -0.1422  0.1940  0.1019
38951W        W42171  16.906   3.780   6.623 -0.0353  0.0161  0.1671
38952W        W42172   0.891  15.827   9.245 -0.0029  0.0913 -0.3594
38953W        W42173  11.062  17.299  11.497  0.0161  0.2838  0.4582
38954W        W42174  12.397  13.760   8.023 -0.1882 -0.0914  0.0089
38955W        W42175  15.722  15.883   6.257  0.0956 -0.1113  0.3205
38956W        W42176  13.171  14.999  17.431  0.0439 -0.0152  0.2012
38957W        W42177   6.119  14.216  11.423 -0.2764 -0.2305 -0.6399
38958W        W42178   8.731   6.240  17.496  0.1856  0.0443  0.0321
38959W        W42179  17.908   4.940  14.654  0.1631  0.1922  0.0267
38960W        W42180   5.744   8.632  15.266 -0.2803  0.0852 -0.0205
38961W        W42181   2.158   3.704  10.961  0.0651  0.1223  0.0780
38962W        W42182  14.063   7.674  11.950  0.0630 -0.0091  0.1614
38963W        W42183  12.617  17.028   4.963 -0.1056 -0.1551 -0.0781
38964W        W42184   9.555   7.295  17.347 -0.1874  0.1813  0.0184
38965W        W42185  16.242   1.644  17.573 -0.3014  0.1916 -0.0283
38966W        W42186  15.078   0.116   9.535 -0.1008 -0.1042  0.0936
38967W        W42187  14.508   8.905  13.447  0.2615  0.1243 -0.0870
38968W        W42188  12.888  15.043   9.108 -0.0862  0.1725 -0.0099
38969W        W42189   9.718  17.010  11.853  0.0597 -0.1059 -0.3288
38970W        W42190  14.663  14.459   4.034  0.0526 -0.0257  0.2290
38971W        W42191   7.207   0.288   9.796 -0.1339  0.4279 -0.1507
38972W        W42192   2.020   5.022  11.391 -0.0509  0.2134 -0.0787
38973W        W42193   3.511  15.529  13.340 -0.4225  0.2042  0.0429
38974W        W42194  11.801  14.050   0.981  0.1372 -0.1645 -0.2011
38975W        W42195  14.428   0.100  14.601 -0.0740 -0.1469  0.0201
38976W        W42196  12.577  16.418  11.063  0.0860 -0.0804  0.2281
38977W        W42197   9.594   0.904  12.626 -0.3747  0.0813 -0.3736
38978W        W42198   9.390  16.556   3.702  0.0319 -0.3461 -0.1838
38979W        W42199  11.040  11.248  11.750 -0.2468 -0.1177  0.0859
38980W        W42200   4.585   0.154   8.479 -0.2989  0.1125 -0.0867
38981W        W42201  11.947  16.962  11.438  0.0219  0.1533  0.0704
38982W        W42202  16.275   6.619  11.517 -0.2383  0.2320 -0.2135
38983W        W42203   7.411   5.931  17.608 -0.0965  0.1386  0.2676
38984W        W42204  14.594   4.881   0.445 -0.0874  0.0544  0.2206
38985W        W42205  13.583   3.125   5.046  0.0578  0.1852  0.0101
38986W        W42206  15.419  15.323  13.680 -0.0734  0.1907  0.1248
38987W        W42207  12.642  11.410  11.298  0.0523 -0.0546 -0.0268
38988W        W42208  11.554  15.831  17.154  0.3941  0.3354  0.1553
38989W        W42209  11.684  15.315   0.623  0.0765  0.0901 -0.0226
38990W        W42210  10.221  17.869  16.149  0.4098 -0.1294  0.0463
38991W        W42211  12.960  15.356  13.370 -0.1038 -0.0086 -0.0079
38992W        W42212  16.598  11.949  13.467  0.1156 -0.3518  0.0380
38993W        W42213  16.247   4.829   0.822 -0.0341 -0.2250  0.1563
38994W        W42214  17.504  17.454  17.902 -0.2758 -0.0664 -0.1157
38995W        W42215  13.783   6.114  15.750 -0.0064  0.1330  0.0421
38996W        W42216   8.208  15.529  13.901  0.0671 -0.0387 -0.0086
38997W        W42217  14.977   7.422  14.701  0.1481 -0.0352  0.1682
38998W        W42218  14.782   3.148   3.345  0.1814 -0.0906 -0.1600
38999W        W42219  13.901  12.158  13.349  0.0656 -0.3523 -0.0216
39000W        W42220  11.031  16.389  14.769  0.0360  0.0564  0.1054
39001W        W42221   0.101  14.976  15.460  0.1328 -0.0934 -0.3424
39002W        W42222  12.888   3.487   3.925  0.0712 -0.0178  0.0909
39003W        W42223  14.912  17.168  13.066 -0.1051 -0.0432  0.0169
39004W        W42224  10.752  13.306   0.989 -0.0089  0.1037  0.0247
39005W        W42225   8.724   1.576  12.963 -0.1142  0.0010 -0.1339
39006W        W42226  17.143  17.093  14.789  0.0299  0.1768 -0.0428
39007W        W42227  12.263   0.701   7.337  0.1528 -0.2345  0.2433
39008W        W42228   7.297  13.284  16.706  0.0708 -0.1705  0.0304
39009W        W42229  15.253   0.077  14.747  0.4373  0.5124 -0.3696
39010W        W42230   8.394   0.712  17.901 -0.0281  0.2538 -0.0629
39011W        W42231   4.795  10.880  16.918 -0.1054 -0.2137 -0.1022
39012W        W42232   9.231   9.458  13.157 -0.2094 -0.1885 -0.4567
39013W        W42233   7.278  16.516  13.943  0.1479 -0.3481  0.0165
39014W        W42234  10.497  17.345  13.650 -0.1811  0.0682 -0.1487
39015W        W42235   7.411   0.652  13.572 -0.1251 -0.4244 -0.3002
39016W        W42236   8.307  12.862   1.467  0.0630 -0.2362  0.0052
39017W        W42237   8.681   3.430  17.922 -0.3433  0.0510 -0.3159
39018W        W42238   8.931  16.467  16.423  0.1198  0.1639  0.2995
39019W        W42239   6.113  11.623   4.444  0.1153 -0.0220 -0.0889
39020W        W42240  10.132   2.642  15.240 -0.1446 -0.1166  0.2793
39021W        W42241  11.723  16.849   8.537  0.1089 -0.1098  0.1304
39022W        W42242  11.359  15.409  16.871 -0.0164  0.1329 -0.2015
39023W        W42243  16.584  13.985   1.892 -0.0021  0.2381 -0.0414
39024W        W42244  10.602   1.056  12.601  0.1921  0.3048 -0.0820
39025W        W42245  15.414  17.595  14.780 -0.1058  0.0059  0.2224
39026W        W42246  11.778  17.412  16.354 -0.1522  0.0688  0.3006
39027W        W42247  14.519   1.520   2.160  0.0835  0.0656 -0.3784
39028W        W42248   0.229   0.593  16.476  0.0566 -0.1169 -0.0280
39029W        W42249  10.539  12.513   3.521  0.1653 -0.1022 -0.1122
39030W        W42250  16.787   0.841  17.563  0.1288 -0.0176  0.0848
39031W        W42251   6.861  18.043  13.645 -0.2008  0.4324 -0.0270
39032W        W42252   4.107   8.668  15.638  0.0584  0.2694 -0.0016
39033W        W42253  11.926   9.378   1.706 -0.1023  0.3840 -0.5096
39034W        W42254  13.271   1.848  17.067  0.0599  0.1175 -0.3241
39035W        W42255  14.146  10.961  16.638  0.1683 -0.0183 -0.1783
39036W        W42256   7.875  15.893  14.476  0.0237  0.0951 -0.1217
39037W        W42257  11.343  15.695   0.104  0.1248 -0.1010 -0.3696
39038W        W42258  17.112   0.095   7.727 -0.1101  0.4708 -0.2832
39039W        W42259  12.731   6.142  17.348 -0.1734  0.0519 -0.1416
39040W        W42260  12.008   3.763   2.681  0.0297  0.4122  0.0893
39041W        W42261  10.602   4.558  15.850  0.1527 -0.0204  0.1735
39042W        W42262  11.870  15.447   1.198  0.2450  0.1501  0.0196
39043W        W42263  11.961   1.476  16.787 -0.2538  0.1480 -0.0281
39044W        W42264   7.468   1.966  13.993 -0.1193 -0.1399 -0.2802
39045W        W42265   4.378   0.917  12.579  0.2605 -0.0488 -0.2709
39046W        W42266  17.720  17.211   0.062 -0.1250  0.0175 -0.2020
39047W        W42267   1.019   3.719  15.924  0.0681  0.1628  0.2874
39048W        W42268  16.927  13.578  11.980 -0.0918 -0.2388 -0.1591
39049W        W42269  11.411  14.120  15.933 -0.0020  0.1245  0.2849
39050W        W42270   7.376  15.918  14.704  0.0221 -0.2792  0.0726
39051W        W42271  16.273  16.895  15.366  0.2406 -0.0259  0.2360
39052W        W42272  13.440  16.630  13.926  0.0392 -0.0910  0.0762
39053W        W42273   4.093   1.624   0.904 -0.3201  0.1867  0.1302
39054W        W42274  12.872  13.567   4.157 -0.1591 -0.2591  0.0174
39055W        W42275  11.337  11.955  13.774  0.0454 -0.2342 -0.2104
39056W        W42276  14.692   2.321   4.810  0.2722 -0.0759  0.1265
39057W        W42277   4.243   4.690   3.621 -0.0909 -0.0844  0.1212
39058W        W42278  11.915  17.129   3.809 -0.1729 -0.0521  0.0570
39059W        W42279   8.982   7.048   7.393 -0.2688 -0.0983 -0.2466
39060W        W42280  11.246   2.438  18.074  0.1715 -0.0042 -0.1865
39061W        W42281   5.462  10.397  11.526 -0.0582  0.0861  0.0565
39062W        W42282  10.356  12.928  16.124  0.1173 -0.1894 -0.1660
39063W        W42283   8.290   3.578  14.585 -0.2432  0.1707  0.3359
39064W        W42284  12.307  15.283   1.357  0.1720 -0.0445 -0.1366
39065W        W42285  15.683  16.030   4.356 -0.1140  0.0908  0.1976
39066W        W42286  15.837  16.090  13.279 -0.1680 -0.2241 -0.0119
39067W        W42287  16.883  15.917  14.918  0.1254  0.1118  0.1447
39068W        W42288   0.010  10.456  18.139  0.0426  0.1963 -0.1748
39069W        W42289   6.235  12.085  14.277 -0.1302  0.2642  0.0217
39070W        W42290  17.164   3.137   4.831 -0.4516  0.1078 -0.1372
39071W        W42291  13.382  13.484  13.371  0.1443 -0.0875 -0.1897
39072W        W42292  13.854  12.101  11.268 -0.0340 -0.3865 -0.1356
39073W        W42293  13.777  17.419   9.508 -0.0699 -0.0569 -0.1385
39074W        W42294   4.791   1.104   1.820 -0.0521  0.0916  0.0287
39075W        W42295   8.237   0.231  15.614  0.0596  0.0329 -0.3103
39076W        W42296  13.987  16.770   0.945  0.1369  0.1881 -0.2327
39077W        W42297   1.447  14.274  17.041  0.1268  0.0543  0.3142
39078W        W42298   9.168   0.935  14.894 -0.1186  0.3745  0.0392
39079W        W42299  10.863   5.477  10.930  0.2482  0.3186  0.1836
39080W        W42300   9.809  16.574  11.266 -0.0711  0.2062  0.0278
39081W        W42301  15.916   2.451  11.917 -0.1298  0.0790  0.1553
39082W        W42302   8.560  13.425  11.302  0.1318  0.1028 -0.2593
39083W        W42303  15.336  17.762  14.325 -0.0804  0.2033 -0.0165
39084W        W42304   9.568   3.657  12.073  0.2494  0.1000  0.0232
39085W        W42305  16.109  16.457   8.428  0.0235  0.2776  0.0055
39086W        W42306  11.282  16.837   1.903  0.1523  0.0163 -0.1617
39087W        W42307   5.211   2.753   0.477  0.2273  0.3157  0.0942
39088W        W42308  17.850  16.462   3.950 -0.1373  0.0755 -0.0907
39089W        W42309  10.164  16.211  17.314 -0.1329 -0.4338 -0.3335
39090W        W42310  18.057  11.463  18.015  0.0530 -0.0693  0.0798
39091W        W42311   4.409   2.974  18.201  0.3115  0.1919 -0.0668
39092W        W42312  16.171  16.103  17.411 -0.2572 -0.1337  0.1039
39093W        W42313  10.945   0.163   1.660 -0.1499  0.3147 -0.0206
39094W        W42314  10.359  11.103   2.651 -0.2778 -0.1077  0.1760
39095W        W42315  13.459   0.533  12.559 -0.2673  0.4100 -0.1166
39096W        W42316   9.409  14.870  15.164 -0.2417  0.2418 -0.1298
39097W        W42317   8.122  15.752  11.904 -0.2820  0.0227 -0.1660
39098W        W42318   7.609  15.359  10.781  0.1156  0.2118 -0.0221
39099W        W42319   4.619   1.206  13.943  0.1410  0.0065  0.1068
39100W        W42320   0.940   8.134   9.666  0.1011  0.0974  0.0113
39101W        W42321  11.795  12.492   4.468  0.2216  0.2179  0.0880
39102W        W42322   2.214  15.795   3.055 -0.0335  0.3262 -0.0006
39103W        W42323  15.372   0.041  18.110 -0.0148 -0.2380 -0.1463
39104W        W42324  13.466   3.605  14.452  0.2333  0.0393 -0.0395
39105W        W42325  12.528  15.082  13.470 -0.0267  0.0075 -0.1093
39106W        W42326   1.217   6.114   1.390 -0.1221 -0.1427  0.0024
39107W        W42327   5.705  13.127  12.569  0.0409  0.2725 -0.1595
39108W        W42328  12.583  12.780  15.510 -0.1387 -0.1045  0.0676
39109W        W42329  16.294   5.347   0.011 -0.0788  0.2857 -0.1186
39110W        W42330  11.530  13.093  12.373 -0.2953 -0.3061  0.3054
39111W        W42331  10.484  17.592  17.293  0.0404 -0.0213  0.0951
39112W        W42332   2.341  16.622   1.741  0.0725 -0.3150 -0.0728
39113W        W42333   8.395  15.036  15.125  0.1138  0.0225  0.0760
39114W        W42334   0.492  11.601  12.931  0.0130  0.0035 -0.1210
39115W        W42335  10.585  16.010   3.619 -0.1222  0.0025  0.1528
39116W        W42336  14.160  16.588  17.841  0.0349  0.2940  0.2606
39117W        W42337  15.352  13.976  16.270  0.1176  0.1965 -0.0475
39118W        W42338  14.368  12.863   9.810  0.0768  0.1491 -0.0788
39119W        W42339  12.525  12.804  13.297  0.1739  0.0014  0.0549
39120W        W42340   7.403   0.183  12.744 -0.1048  0.1792 -0.0182
39121W        W42341   9.460  17.364  11.579  0.0229 -0.0233 -0.2379
39122W        W42342   2.589  14.355  15.066 -0.0076  0.0761 -0.0662
39123W        W42343  13.249  14.906  15.872  0.1108 -0.2095  0.3152
39124W        W42344  12.323  12.133  18.120 -0.1840 -0.0095  0.1010
39125W        W42345  16.005   6.306  11.831 -0.2090 -0.0372 -0.1458
39126W        W42346   8.905   9.648  18.032 -0.2337  0.1053  0.1609
39127W        W42347  10.531  12.556  14.324 -0.2370  0.2698  0.2549
39128W        W42348  10.411   2.978  14.332 -0.1131  0.4287  0.1161
39129W        W42349  10.205  18.197   0.173  0.0029 -0.0258 -0.1751
39130W        W42350  17.843   2.469  18.063  0.0401 -0.2555 -0.2557
39131W        W42351   9.020  13.390   5.726 -0.1442  0.1483 -0.0093
39132W        W42352  18.192   0.004  16.257 -0.1649 -0.1208  0.1713
39133W        W42353  10.752  13.783  11.506 -0.0927 -0.2617 -0.0519
39134W        W42354   9.915   1.694   6.607  0.2796  0.2539 -0.2334
39135W        W42355   9.705  15.558  15.520 -0.1036  0.0147  0.1213
39136W        W42356  10.538  17.172   1.492  0.2298 -0.0784  0.2549
39137W        W42357   4.842   0.569  15.433 -0.2765  0.1369 -0.1577
39138W        W42358  12.213  15.193   7.320  0.2361  0.2201 -0.2355
39139W        W42359   9.483  17.638  18.102  0.1583 -0.0312  0.3229
39140W        W42360  11.004  13.451  14.951  0.1678  0.2524 -0.0700
39141W        W42361   9.272  13.502  13.588 -0.0170  0.3242 -0.0581
39142W        W42362   1.253  11.872   1.635  0.0676 -0.1106 -0.1228
39143W        W42363   9.523  15.227  15.942 -0.0444 -0.0308 -0.0683
39144W        W42364  11.085  10.206  15.231  0.0203 -0.1625 -0.1330
39145W        W42365  11.025   9.257  10.202 -0.0590  0.3212  0.1436
39146W        W42366  15.362  17.086  16.345 -0.0940  0.0713 -0.2873
39147W        W42367   8.482  12.585  15.602  0.4216 -0.0808 -0.2524
39148W        W42368   3.519  15.410  15.924 -0.3345  0.2115 -0.0268
39149W        W42369  16.746  17.218   4.625  0.3256  0.0784  0.0857
39150W        W42370  11.407  12.091  13.296 -0.0959 -0.0952 -0.0659
39151W        W42371  11.599  10.523   1.062 -0.1244  0.3322 -0.1348
39152W        W42372  10.977  12.324  14.252  0.0309 -0.0100 -0.0384
39153W        W42373  13.447  13.170   7.834  0.2703  0.3587  0.1596
39154W        W42374  17.880  17.767   1.881  0.2593  0.2312 -0.2142
39155W        W42375  14.448  16.335  14.671  0.2932 -0.0163  0.0041
39156W        W42376  11.684   0.617   1.423  0.3360 -0.0468  0.1971
39157W        W42377  14.674  16.739  14.368  0.1894  0.1561 -0.0354
39158W        W42378   9.869  13.176  16.011 -0.1340  0.0202  0.2661
39159W        W42379  13.525  11.861  14.117  0.0219 -0.0790 -0.0813
39160W        W42380  12.899  16.743  18.166  0.1128  0.0155 -0.1057
39161W        W42381   8.154   6.037  17.878  0.0269 -0.4181 -0.0507
39162W        W42382   8.972  14.319   3.130 -0.0241  0.3462 -0.2430
39163W        W42383  10.146   4.251  10.937 -0.3591 -0.0276 -0.0211
39164W        W42384  17.246   1.243  16.221 -0.0354  0.1867  0.1095
39165W        W42385  12.637  16.846  10.792 -0.1769  0.4185 -0.1505
39166W        W42386  15.422  18.150   2.423  0.1335 -0.1257 -0.1191
39167W        W42387  14.422  17.323  17.467  0.0577 -0.1615  0.0892
39168W        W42388  11.980  14.260   9.137  0.1872 -0.2024 -0.5725
39169W        W42389   8.455   1.604  17.198  0.1789 -0.2078 -0.0831
39170W        W42390  15.824   0.187   1.461  0.1563  0.0281  0.1401
39171W        W42391  15.502  10.384   1.211  0.1493 -0.0524 -0.2540
39172W        W42392  11.735  15.677   2.947 -0.2096 -0.0911 -0.1679
39173W        W42393   9.602  17.360   3.512 -0.4959  0.2480 -0.0677
39174W        W42394   6.823  15.265   1.452  0.1712 -0.2487 -0.2502
39175W        W42395  12.436  16.911  14.305  0.0023  0.0676 -0.2615
39176W        W42396   7.727   1.810  14.407 -0.0897 -0.0942 -0.1087
39177W        W42397  17.515  11.735   0.309 -0.2050  0.1762  0.1702
39178W        W42398   9.343  12.297  11.697  0.3474  0.1284 -0.0964
39179W        W42399  12.718   6.723   3.105  0.1036  0.1616 -0.5369
39180W        W42400   3.028  16.879  11.031 -0.0193  0.2271 -0.2820
39181W        W42401   9.424  15.667   8.989 -0.0770 -0.2342  0.1514
39182W        W42402  14.017  16.851   1.555 -0.3119  0.1366  0.3082
39183W        W42403  16.855   0.982  14.180  0.2200 -0.0735 -0.0752
39184W        W42404   6.916  14.759   0.602 -0.0756  0.4876 -0.0750
39185W        W42405   2.357  14.724  13.825  0.0187  0.0042 -0.1024
39186W        W42406  11.631   0.731  15.017  0.1190  0.1986  0.0867
39187W        W42407  10.850  14.759  15.387  0.1806  0.0210  0.0982
39188W        W42408  11.819   1.603   1.102 -0.2133 -0.1209  0.2136
39189W        W42409   4.276  15.648  12.655  0.0092 -0.1662  0.0949
39190W        W42410   7.438  14.394   9.937 -0.0964 -0.1051  0.1195
39191W        W42411   7.599   0.536  14.524  0.1439  0.2691  0.1898
39192W        W42412  11.834   3.090   3.054  0.1459 -0.0514  0.1060
39193W        W42413  10.551  15.425  12.453 -0.4216 -0.0672 -0.1916
39194W        W42414  10.922  13.413  13.905 -0.0670  0.1093  0.1014
39195W        W42415  10.075   1.093   0.105 -0.1623  0.2083  0.0972
39196W        W42416  10.006  15.728  10.268 -0.1686  0.0909  0.0056
39197W        W42417   7.090  14.227   0.328  0.0586 -0.1443  0.0520
39198W        W42418  17.793  16.617   1.700  0.0328 -0.1640  0.0733
39199W        W42419  13.882  14.937   1.606  0.1687  0.0211 -0.0266
39200W        W42420  15.404   1.127  16.406  0.2077  0.0349 -0.0011
39201W        W42421   7.863  12.153  10.883 -0.0432  0.0547 -0.0115
39202W        W42422  13.104  16.456   5.044 -0.0364 -0.3165 -0.0107
39203W        W42423   8.917  14.841   0.153  0.1296  0.0682  0.2110
39204W        W42424  15.746   6.940   5.170  0.2988 -0.0172  0.0248
39205W        W42425  13.211  16.802   3.089 -0.0277  0.1977 -0.0403
39206W        W42426  11.484  11.964   2.308  0.2760 -0.0297  0.1535
39207W        W42427  13.313  17.305   1.036  0.1603 -0.1066 -0.1050
39208W        W42428   9.676  13.174  16.565  0.1268  0.4383  0.0467
39209W        W42429   9.675   6.809   0.417 -0.0666 -0.2482  0.0828
39210W        W42430   5.814   0.926   6.884  0.1112 -0.0672 -0.1536
39211W        W42431   2.846   1.959   2.086 -0.0599  0.0126 -0.0603
39212W        W42432  15.337  16.508   0.126  0.1191 -0.1611  0.1022
39213W        W42433  15.895  17.124  14.070  0.1668  0.1679  0.1172
39214W        W42434  15.947  10.989  16.766  0.0832 -0.0896 -0.3470
39215W        W42435  12.442  11.345  14.259 -0.3848 -0.0394  0.3224
39216W        W42436   5.988  15.631   5.431 -0.1696  0.1769  0.1108
39217W        W42437  10.736   9.766   6.502 -0.0525 -0.1115 -0.0076
39218W        W42438  15.131  13.088   0.509 -0.3419  0.0899 -0.1481
39219W        W42439   6.904  10.640   3.606  0.0894  0.0227  0.0363
39220W        W42440   5.824  14.760  13.058  0.0780 -0.3524 -0.0401
39221W        W42441  17.301  15.696   0.294  0.0733 -0.2469  0.1852
39222W        W42442  13.623   9.488  14.217 -0.1943  0.2952  0.0409
39223W        W42443   1.893   9.740  18.020 -0.0041  0.3542 -0.1606
39224W        W42444   7.879  13.825   4.540  0.2151  0.1610 -0.2783
39225W        W42445   1.185  16.018   2.244  0.0158  0.3020 -0.2379
39226W        W42446  14.432  15.676  13.369  0.1262 -0.3680  0.1321
39227W        W42447  12.394  15.811  17.451  0.2485  0.0788  0.0977
39228W        W42448  14.084   3.438   1.669 -0.2884 -0.1910 -0.4833
39229W        W42449  13.989   8.139  12.133 -0.2917  0.0680  0.0632
39230W        W42450   1.309  17.131  14.484 -0.1961 -0.2953 -0.2127
39231W        W42451   8.136   3.311  17.845 -0.1128  0.1600 -0.2708
39232W        W42452  15.606   4.016   0.259  0.0323  0.1501  0.1582
39233W        W42453  11.136  17.824  16.315 -0.3884 -0.3955 -0.1762
39234W        W42454  15.633   0.872   2.545 -0.0784  0.0165 -0.2884
39235W        W42455   9.703  17.874  16.178  0.0339  0.3325  0.0485
39236W        W42456  16.560   0.936   3.841  0.0388 -0.2514 -0.2892
39237W        W42457   4.952  10.646  11.740 -0.1911  0.1805 -0.1627
39238W        W42458   4.743  14.691  12.532 -0.1774 -0.2703 -0.0847
39239W        W42459  15.616   1.302  17.090  0.0886 -0.1374  0.0685
39240W        W42460   9.615  16.128  16.636 -0.2677  0.2315  0.3347
39241W        W42461   9.158  17.460  16.405  0.0468 -0.0326  0.3251
39242W        W42462  11.911   3.216  14.518 -0.2671 -0.0405 -0.1764
39243W        W42463   4.141  16.991  11.358  0.3183  0.1295  0.1083
39244W        W42464  11.782  10.963   5.959 -0.0325  0.2173 -0.1169
39245W        W42465  12.786  15.867  15.101  0.2138  0.0634 -0.1974
39246W        W42466   8.863   2.001  12.648 -0.3463 -0.4942 -0.1160
39247W        W42467  10.874  13.594  16.323 -0.2802 -0.3087 -0.1764
39248W        W42468   4.276   0.611  15.218 -0.1877 -0.0661 -0.2018
39249W        W42469   9.109  11.791  17.544 -0.0421 -0.2093 -0.2743
39250W        W42470   3.933  16.320  15.600 -0.4403 -0.0346  0.0463
39251W        W42471  13.970  18.017   0.126  0.1504  0.2343  0.1956
39252W        W42472  13.045  17.548  16.408  0.1258  0.5695  0.3262
39253W        W42473  13.333  10.809  15.087  0.1101 -0.4767  0.0292
39254W        W42474   6.638   4.198  17.741 -0.1492  0.0855  0.0814
39255W        W42475  12.262   8.072  15.283  0.0311 -0.1696  0.0428
39256W        W42476  12.993  16.805   0.443  0.1534 -0.2702 -0.3152
39257W        W42477   9.172  14.066  13.186  0.1852  0.2368  0.1025
39258W        W42478  10.157  15.851  12.692  0.2128  0.0030  0.0308
39259W        W42479  16.165   6.324   3.262 -0.0030  0.2530 -0.0520
39260W        W42480  10.155  16.277   2.822  0.0439  0.0949 -0.3983
39261W        W42481  12.673  17.836  17.212 -0.2365  0.2008 -0.2455
39262W        W42482   0.739   4.133  14.274  0.2256 -0.0372  0.3680
39263W        W42483   7.859   9.936  15.288  0.3344  0.0564 -0.1214
39264W        W42484   8.298  16.079  12.653 -0.0363  0.2985  0.0492
39265W        W42485   2.020  16.008   2.620  0.3457  0.0498 -0.0695
39266W        W42486  12.598  18.182  13.921  0.0844  0.1735 -0.1106
39267W        W42487   0.644  16.280  11.719 -0.1156 -0.1724 -0.1886
39268W        W42488  10.948  13.595   2.594 -0.2176 -0.0084 -0.3280
39269W        W42489  14.760   0.012  12.998 -0.5006 -0.3474  0.3389
39270W        W42490   6.469  12.156  10.226  0.1142 -0.1049  0.1466
39271W        W42491  14.454  12.318  16.215  0.0830  0.0469  0.0487
39272W        W42492  14.701  12.098   1.931  0.1196  0.3415  0.1770
39273W        W42493   0.166   3.198   2.512  0.2599 -0.1183 -0.0494
39274W        W42494  15.239   1.349   2.227  0.5625 -0.3259 -0.1722
39275W        W42495  11.266  12.490  13.760 -0.0611 -0.1411 -0.0672
39276W        W42496  10.962   2.133  16.354  0.0714  0.0356  0.2153
39277W        W42497   1.317  12.141  14.033  0.1707 -0.0139 -0.0958
39278W        W42498  17.187   1.089  15.554  0.1803 -0.3976  0.0955
39279W        W42499   9.128   1.069  15.401  0.2470 -0.0039 -0.0357
39280W        W42500  11.449  12.303  10.467 -0.1118 -0.2502 -0.1330
39281W        W42501  13.575  14.554  15.242 -0.0301  0.1005  0.0100
39282W        W42502  10.334  12.125  15.013  0.0475  0.0597  0.0910
39283W        W42503  11.210  14.806   9.013  0.0121  0.1355 -0.0605
39284W        W42504   9.975  17.606  14.321 -0.2160  0.0568 -0.1201
39285W        W42505   5.942   4.574   5.112 -0.2096 -0.2385 -0.1719
39286W        W42506  10.982   5.131  11.835  0.0890 -0.1209  0.2111
39287W        W42507  13.422   0.548  16.732  0.1155  0.1538 -0.1106
39288W        W42508  11.542   8.631   0.197  0.2359  0.1597  0.1356
39289W        W42509  13.856  17.316  16.565  0.3516 -0.1119  0.1200
39290W        W42510   8.846   5.161  14.106  0.2313  0.1790 -0.0669
39291W        W42511   8.863  14.891  15.344 -0.1062 -0.1064  0.0257
39292W        W42512   5.979  12.761  12.765 -0.1484  0.2022  0.1394
39293W        W42513  15.811   7.818  11.641  0.2840  0.1016 -0.5657
39294W        W42514  12.333   1.606   2.561 -0.1315 -0.1144  0.0572
39295W        W42515  11.040   1.460  15.145  0.0890  0.0880  0.0721
39296W        W42516  16.785   4.762  16.714  0.3114  0.0610  0.0909
39297W        W42517  14.004  15.626   3.676  0.0079 -0.0298  0.0138
39298W        W42518  14.631   3.921   8.205 -0.1813 -0.3054  0.0704
39299W        W42519  11.708  15.855  16.665  0.1851  0.2066  0.1472
39300W        W42520  12.652  17.015  12.947  0.2494 -0.1293 -0.0491
39301W        W42521   8.200  13.855  16.650 -0.1815  0.0344 -0.0652
39302W        W42522  12.693  16.215   0.615 -0.1172 -0.3147  0.1945
39303W        W42523  12.274  12.847  15.903 -0.0894  0.0540  0.2608
39304W        W42524   7.528  14.228  17.169  0.0711 -0.1657 -0.2250
39305W        W42525   6.842   9.444  14.876 -0.1193 -0.1732  0.0803
39306W        W42526   5.558   8.236   1.367 -0.3862  0.0595  0.0542
39307W        W42527   9.959   1.164   1.509 -0.0116  0.0265  0.1129
39308W        W42528   9.661  16.828  16.602  0.1786 -0.2100  0.1149
39309W        W42529   6.436  13.353  16.951  0.0537  0.0544  0.0423
39310W        W42530   5.334  16.957  17.693 -0.1921 -0.1597 -0.0627
39311W        W42531   6.495  14.532   0.827 -0.0118  0.1071 -0.0256
39312W        W42532  13.585  17.182  16.988 -0.1786 -0.0071  0.4556
39313W        W42533   7.457  14.015   6.890 -0.3327 -0.1042  0.0046
39314W        W42534   6.720  12.271   2.001  0.1279  0.3895 -0.0734
39315W        W42535   9.184  13.560  11.914  0.3301 -0.2649 -0.1173
39316W        W42536  13.099  17.928  14.962  0.0548  0.0655 -0.0917
39317W        W42537  11.423   9.206  14.432  0.5320 -0.0717 -0.0713
39318W        W42538   5.983  16.407  18.248 -0.0408 -0.0185  0.0262
39319W        W42539  12.475  13.158   5.840  0.1826  0.1739  0.1427
39320W        W42540  13.135   9.298  16.229  0.0369 -0.1207  0.0594
39321W        W42541   8.495  12.514  12.617  0.2521 -0.1873  0.0974
39322W        W42542  13.851  10.470  12.346  0.2312  0.4831  0.0233
39323W        W42543   5.824   4.477  14.571 -0.0399  0.0130 -0.1433
39324W        W42544  11.346  10.525   1.872  0.1278  0.0761  0.3013
39325W        W42545  12.159  16.988   6.778  0.0242  0.2133  0.1194
39326W        W42546  16.848  16.256   1.402 -0.1827  0.0565  0.3961
39327W        W42547  10.157   0.837   4.151 -0.1780 -0.2394 -0.2344
39328W        W42548   3.893  14.038   2.922 -0.0676  0.3478 -0.2316
39329W        W42549   9.458  12.788  16.158  0.1243 -0.0208 -0.1353
39330W        W42550  13.236  13.894   0.079 -0.0882  0.2323  0.2104
39331W        W42551   5.761  15.731  16.651 -0.0621  0.0622  0.0753
39332W        W42552  11.933  17.857  14.251  0.1825 -0.0680  0.0981
39333W        W42553   9.354  15.358  14.301  0.0515  0.1806 -0.1280
39334W        W42554   9.223  16.550  15.268 -0.1830  0.1357  0.1261
39335W        W42555  13.270  15.917  16.461 -0.1416  0.1689  0.0406
39336W        W42556  15.815   1.400  16.624 -0.1835 -0.0470  0.0268
39337W        W42557   9.278  17.624   1.085  0.2191 -0.2035 -0.2316
39338W        W42558   8.761  14.234   0.056 -0.2903 -0.3798 -0.2420
39339W        W42559   9.219  18.056  15.210  0.2730  0.1050  0.1294
39340W        W42560  13.927  16.456  14.024 -0.0827  0.2535  0.0043
39341W        W42561   9.957  13.169   0.234  0.0157  0.2504  0.1138
39342W        W42562  11.131   7.791  16.080  0.0223  0.0621 -0.0609
39343W        W42563  11.201  15.830  15.617  0.0149  0.2174  0.2315
39344W        W42564   4.979  17.077   7.267  0.1531  0.2394  0.1211
39345W        W42565  17.573   1.857  16.893 -0.0923 -0.0389 -0.0103
39346W        W42566  16.934  15.008  12.573 -0.1946 -0.0886 -0.2003
39347W        W42567   8.438   8.542  16.088 -0.0280 -0.2605 -0.0835
39348W        W42568  13.462   1.669  10.806 -0.0338  0.0118  0.1115
39349W        W42569   8.464  10.603   1.008  0.0706  0.3082  0.2049
39350W        W42570  12.812   9.474  17.263 -0.1106 -0.4464 -0.4606
39351W        W42571  11.880  15.840  14.936 -0.0562  0.1456 -0.1995
39352W        W42572  15.999  16.676   2.230 -0.0435  0.0760  0.3435
39353W        W42573  13.944  13.002   4.307 -0.1544 -0.1233  0.1563
39354W        W42574  10.236  16.083  15.789 -0.1703  0.1655 -0.2171
39355W        W42575  12.384   1.309  12.898 -0.0135 -0.1400 -0.0502
39356W        W42576   9.389  14.739  17.043  0.1139 -0.1943 -0.1254
39357W        W42577  17.079  15.100  17.084 -0.1619  0.0946 -0.2895
39358W        W42578   0.299   3.488  17.415  0.1710  0.0465  0.0591
39359W        W42579   0.576   1.654   1.303  0.2667 -0.0567  0.1306
39360W        W42580  13.791  12.221   1.082  0.3595  0.1550 -0.0004
39361W        W42581  12.646   6.092  16.022  0.0434  0.0408 -0.3517
39362W        W42582   2.347   2.288  15.694  0.2909 -0.0783 -0.1265
39363W        W42583   7.813  10.275  17.724 -0.0399 -0.3724  0.1453
39364W        W42584  10.488   9.731   1.602 -0.2465 -0.3906 -0.1305
39365W        W42585  15.407  13.475  14.068 -0.1547 -0.0378 -0.0042
39366W        W42586   6.737   4.992  15.830  0.2115  0.1603 -0.3330
39367W        W42587  15.876   3.515   3.185  0.0238  0.1002  0.3059
39368W        W42588   9.267   1.498   4.633  0.1333 -0.0090  0.3462
39369W        W42589  12.051  14.961  17.370  0.1476 -0.0436 -0.0469
39370W        W42590  12.902  15.784   0.526  0.3719  0.1392 -0.1046
39371W        W42591  10.954   5.220  16.347 -0.2482 -0.2967 -0.0029
39372W        W42592   1.995   0.662  14.626  0.0144  0.3654  0.1204
39373W        W42593  12.954   1.031   1.909 -0.0391  0.0369  0.0688
39374W        W42594  17.365   6.030   9.384  0.2549  0.0347 -0.0459
39375W        W42595   0.701   3.687   0.496 -0.0360 -0.2335  0.3774
39376W        W42596  11.831   8.186   3.230  0.2860 -0.1029 -0.0098
39377W        W42597  11.642   7.162   0.073  0.1275 -0.1995 -0.0215
39378W        W42598  17.260  12.219   1.965  0.0436  0.0219 -0.1037
39379W        W42599  17.999   2.131   7.637  0.3121  0.1210 -0.0026
39380W        W42600   7.256   0.430   0.009  0.2555  0.0561  0.0082
39381W        W42601  14.043   1.429  11.527 -0.0587  0.0129  0.3145
39382W        W42602   5.136   0.273  11.381  0.1233 -0.0634  0.0838
39383W        W42603  18.088   1.389  13.264  0.2450  0.2642 -0.0573
39384W        W42604  11.426   1.782   2.135  0.0669  0.0762 -0.2689
39385W        W42605  16.217  16.249   1.256 -0.1882  0.1203 -0.1231
39386W        W42606   2.836   2.324   5.265  0.1539  0.2105  0.0448
39387W        W42607  12.597   3.754   1.927 -0.0400 -0.0037  0.1439
39388W        W42608  16.226   9.865  12.400  0.0148 -0.1833  0.0871
39389W        W42609   0.293  16.845   0.850  0.2591  0.0619  0.0418
39390W        W42610   1.160  13.051   2.773  0.1461 -0.2281  0.1081
39391W        W42611  16.662   1.135  15.565  0.2869 -0.4171 -0.0873
39392W        W42612  16.030   0.334   2.062  0.3009 -0.3247 -0.1763
39393W        W42613  16.775  18.070   7.472  0.2029 -0.0220  0.0032
39394W        W42614  10.217   0.181  17.281  0.2680  0.0315 -0.2867
39395W        W42615   4.701   1.000   0.366  0.0467  0.1623  0.1534
39396W        W42616  14.401   5.721   0.650  0.0958 -0.2132 -0.2205
39397W        W42617  16.823   2.911  16.704  0.0590  0.0255 -0.2472
39398W        W42618  15.156  16.684   4.879  0.0973  0.0729 -0.2500
39399W        W42619   8.490  16.393  17.198 -0.0950  0.1021  0.0207
39400W        W42620  13.223   4.074  15.411  0.2432 -0.1215 -0.1616
39401W        W42621   3.040   5.461   6.675 -0.0101  0.0800 -0.3259
39402W        W42622   4.318   3.728   0.388  0.1578  0.1306  0.1545
39403W        W42623   1.297   1.578   2.357  0.0859  0.0241  0.2496
39404W        W42624  13.687   4.625   2.752 -0.2029  0.0734 -0.0864
39405W        W42625  11.781   4.264  16.069 -0.0151 -0.0803 -0.2597
39406W        W42626   4.370  17.590   3.076 -0.0080 -0.2449  0.3989
39407W        W42627   7.963  18.171   1.790 -0.2735 -0.0613  0.0494
39408W        W42628   0.527   3.441   2.853 -0.0336 -0.1216 -0.0337
39409W        W42629  10.498   4.786   3.140  0.0612  0.1501  0.2541
39410W        W42630   0.850   1.532  15.666  0.0149  0.0892  0.0298
39411W        W42631  17.979   1.504  15.801 -0.2007 -0.4387 -0.1605
39412W        W42632   7.280  13.952   3.861 -0.1463 -0.0504 -0.0289
39413W        W42633   2.870   0.333   6.222 -0.2740 -0.2204  0.0116
39414W        W42634  17.656   6.842   4.723  0.3622 -0.0055 -0.0372
39415W        W42635   2.570   9.266   6.087 -0.0444 -0.1377 -0.1783
39416W        W42636  15.824   6.702   9.172  0.0029  0.4155  0.1173
39417W        W42637   0.222   2.085   1.367 -0.1222 -0.0773 -0.1336
39418W        W42638  15.701   1.532  13.005 -0.0975  0.1525  0.0376
39419W        W42639   5.125   8.390  14.318 -0.1841 -0.5029 -0.0222
39420W        W42640   0.216   8.680   5.150  0.1686 -0.3630  0.2768
39421W        W42641  12.230   2.550   0.870 -0.0374 -0.0150  0.1501
39422W        W42642   0.449  16.467   1.179 -0.0824 -0.0800 -0.2021
39423W        W42643  17.368   0.584   1.072 -0.0501  0.0381 -0.0393
39424W        W42644  12.514   8.616   0.593  0.0474  0.1189 -0.1822
39425W        W42645   4.007  17.995  12.667  0.0668  0.1891  0.0368
39426W        W42646   9.651   9.630  12.297  0.0861 -0.3430 -0.0322
39427W        W42647   3.901   0.235  10.431  0.0744  0.3278  0.1889
39428W        W42648  14.211  13.372   6.463  0.0384 -0.3765 -0.2054
39429W        W42649   4.793  16.951   0.008  0.0724  0.2427 -0.1140
39430W        W42650  12.294   2.145   1.520 -0.2375  0.1220 -0.0519
39431W        W42651  17.974   3.897   3.249  0.1167 -0.0406  0.0770
39432W        W42652   1.294   0.991  16.939  0.0311  0.1551  0.1775
39433W        W42653  15.383   3.229   0.068 -0.2774  0.0470 -0.3021
39434W        W42654   0.233   1.813   5.929 -0.0165 -0.2316 -0.0527
39435W        W42655  14.966   6.349   3.726 -0.0531  0.3287  0.3051
39436W        W42656  17.291  17.685   9.519  0.1117 -0.1691 -0.0862
39437W        W42657  17.308   3.205   3.280  0.2329  0.0970  0.2632
39438W        W42658   1.590  11.190   9.472 -0.2844 -0.0898 -0.0318
39439W        W42659   1.159  12.415  16.554 -0.0670  0.0766  0.1781
39440W        W42660  12.760   3.202   2.982  0.0414 -0.0878 -0.0295
39441W        W42661   2.351   4.943   0.144 -0.2078  0.0093  0.1345
39442W        W42662  13.361   4.879   2.250 -0.2027  0.2950 -0.4075
39443W        W42663  15.614  15.850   2.676 -0.2805  0.1774 -0.1489
39444W        W42664   3.175   2.610  13.651  0.0389 -0.1382 -0.0320
39445W        W42665   3.508   0.923   7.428 -0.3051  0.1168  0.0633
39446W        W42666  17.230   2.591   7.182 -0.2811  0.1012 -0.1300
39447W        W42667   3.399  17.656  16.105  0.1124 -0.3079  0.0720
39448W        W42668  15.921   2.917  15.935 -0.3055 -0.1693  0.2291
39449W        W42669  10.973  17.921   3.923 -0.0837  0.5246 -0.1622
39450W        W42670  18.002  16.919  10.714 -0.1092  0.4247 -0.0666
39451W        W42671   9.076  16.838  14.288  0.2919 -0.1628  0.1353
39452W        W42672  14.743   0.790  17.431  0.1247 -0.0946 -0.0691
39453W        W42673   6.816   4.265   0.797 -0.3590  0.0223  0.1342
39454W        W42674  13.483   4.283   5.886 -0.2866  0.0437  0.1892
39455W        W42675  14.180   2.768   4.243 -0.0668 -0.1674  0.2304
39456W        W42676   3.204   0.598   5.015 -0.0877 -0.0828  0.0523
39457W        W42677   4.772  11.695   1.122 -0.0517 -0.1803 -0.1214
39458W        W42678  18.034   5.659  10.054 -0.0301 -0.0513  0.0069
39459W        W42679  11.989  16.312   0.018 -0.0045  0.0543  0.2224
39460W        W42680  15.128  13.710   6.461  0.1645 -0.0164 -0.0249
39461W        W42681   3.328   2.865  14.960  0.1456  0.0525 -0.0546
39462W        W42682   1.443   3.895  17.139  0.2119  0.3619  0.3066
39463W        W42683  14.955   3.999  16.988  0.0748 -0.1488  0.1332
39464W        W42684   3.644   0.788   3.239  0.3956  0.1215 -0.0006
39465W        W42685  16.221  14.317  11.462  0.3434  0.0500  0.1077
39466W        W42686  14.399   0.533  17.161 -0.1133  0.2634  0.2229
39467W        W42687   0.068   0.312   6.984  0.0179  0.0865  0.0371
39468W        W42688   1.283   1.572   0.827  0.0879  0.0989 -0.3131
39469W        W42689  15.985   9.487  13.194 -0.1210  0.0428  0.0235
39470W        W42690  13.353  10.707   4.252  0.0523 -0.1117  0.0344
39471W        W42691  12.890  15.434   2.694  0.2380 -0.0436  0.1031
39472W        W42692  15.502   0.555  17.957  0.2889  0.2130  0.0392
39473W        W42693  12.226   4.429   0.928  0.2358 -0.1341 -0.0074
39474W        W42694   2.809  17.661   1.819 -0.1587  0.0261 -0.1156
39475W        W42695  13.422  14.582  11.625 -0.2482 -0.3157 -0.0539
39476W        W42696  14.894   1.691   3.983 -0.0853  0.0185  0.1140
39477W        W42697  18.234   3.946   6.731  0.2068  0.3765 -0.0921
39478W        W42698  14.047  15.159   7.229 -0.3629 -0.2323  0.1516
39479W        W42699  13.581   3.539   4.633  0.2442 -0.0753 -0.0728
39480W        W42700  16.744  14.535   1.613 -0.2634  0.0600  0.1037
39481W        W42701  11.751   1.346   4.180  0.0705 -0.0089 -0.1716
39482W        W42702   0.348   9.352  13.480  0.0252  0.4504 -0.0407
39483W        W42703   3.547   1.259  12.614  0.0216  0.2439  0.0161
39484W        W42704   2.884   6.143   0.567  0.1969 -0.0040 -0.0411
39485W        W42705   6.883  16.298   1.565  0.1032  0.0325 -0.2265
39486W        W42706  16.330  15.317   5.841  0.0575  0.0106  0.0375
39487W        W42707  15.868   2.765  12.701  0.0351  0.0433 -0.3055
39488W        W42708  15.185  18.091  16.674 -0.0011 -0.0134  0.1615
39489W        W42709   4.935  12.920  11.090 -0.1814  0.2680 -0.0365
39490W        W42710  17.184   1.034   1.254  0.1891 -0.4120  0.0968
39491W        W42711   9.409   0.754  17.636  0.3642 -0.1880  0.1824
39492W        W42712  11.783   3.175   2.113 -0.2124  0.0233 -0.3610
39493W        W42713   9.655   0.328   5.725  0.2754 -0.0422 -0.3505
39494W        W42714  17.106  14.552   5.105  0.2239  0.1324  0.2139
39495W        W42715  10.516   9.536   6.122 -0.2305 -0.1798  0.0195
39496W        W42716   2.121   3.048   2.516 -0.0088  0.2831 -0.2118
39497W        W42717   6.339   4.924   2.695  0.1527 -0.3068 -0.1453
39498W        W42718   0.825  15.994   5.206  0.0159 -0.1506 -0.1288
39499W        W42719  17.382   3.643  10.918 -0.1733 -0.2469  0.1211
39500W        W42720  15.909  16.426   6.804 -0.1037 -0.1049 -0.2927
39501W        W42721  17.847   7.463  14.656 -0.0645 -0.1731 -0.0910
39502W        W42722   2.864   8.273   0.902 -0.0260 -0.0880 -0.0603
39503W        W42723  15.031   1.938  15.566 -0.3003 -0.0966  0.0712
39504W        W42724  10.069   2.150   1.206  0.1393  0.1860 -0.0726
39505W        W42725   3.275  17.678   4.632  0.0151  0.1812 -0.0819
39506W        W42726   4.253   0.932   1.651 -0.2046 -0.0371 -0.3701
39507W        W42727   1.776  14.174   0.766  0.1737 -0.1442 -0.2448
39508W        W42728  16.680   0.990  15.077  0.0130 -0.2127  0.1121
39509W        W42729  12.891  15.977   5.051  0.4228  0.0200 -0.2761
39510W        W42730  17.698   0.964   1.349 -0.3314 -0.1802  0.0350
39511W        W42731  15.369   3.414   6.272 -0.0370  0.0902 -0.0083
39512W        W42732  12.060  11.568   1.164 -0.2900 -0.0366 -0.1223
39513W        W42733   9.424   2.829   3.077  0.1235  0.4215 -0.3378
39514W        W42734  13.234   2.788   1.703 -0.0061 -0.1035 -0.1923
39515W        W42735   3.660   2.200  14.432  0.0612 -0.1875  0.0798
39516W        W42736  11.565   3.040  13.773  0.0295 -0.1540  0.1458
39517W        W42737   0.370   7.991   9.069  0.2806  0.0206 -0.0282
39518W        W42738   6.825   9.644   2.479 -0.1165  0.1570  0.0110
39519W        W42739  17.435   1.263   3.381 -0.3592  0.2149  0.0462
39520W        W42740  17.205   4.909  16.487  0.2385 -0.2734  0.0258
39521W        W42741   2.385  16.598  17.809 -0.2074  0.2409  0.3080
39522W        W42742  14.555   4.899  12.817 -0.0121 -0.2408 -0.2554
39523W        W42743   2.402   6.275   3.093  0.0630 -0.1317 -0.1551
39524W        W42744   1.755   3.502  16.273  0.3811  0.0606 -0.1133
39525W        W42745  15.916   5.564   7.879  0.2072 -0.4686  0.1331
39526W        W42746  17.732   4.776   9.921  0.3102 -0.1185 -0.1319
39527W        W42747   1.232  13.081   7.931  0.0881  0.0777  0.1045
39528W        W42748   4.343   8.495   2.962  0.0298  0.3608 -0.2669
39529W        W42749  16.468  10.871  18.267  0.2103  0.0194  0.0874
39530W        W42750  15.119  17.309   4.454  0.1044 -0.1091  0.0230
39531W        W42751  15.046   4.443  17.206 -0.2726 -0.2172  0.1348
39532W        W42752  16.648   9.134   3.629  0.1122  0.0388  0.0938
39533W        W42753  16.297   3.990   1.197  0.2033 -0.0264 -0.3878
39534W        W42754   8.941   1.969  16.285  0.1941 -0.2540  0.0710
39535W        W42755  12.412  12.629  18.118  0.1392 -0.2420  0.4424
39536W        W42756   2.791   0.182  16.697 -0.1231  0.1878  0.1132
39537W        W42757   2.546  14.651   5.602  0.0219  0.3095  0.1279
39538W        W42758   3.786   5.344   0.855  0.1299  0.1420 -0.0403
39539W        W42759  13.270  16.843  12.143 -0.1846  0.6187  0.1136
39540W        W42760  17.490   9.048   0.178  0.1981 -0.0010 -0.1423
39541W        W42761   3.970   0.354   5.547  0.3104 -0.0271 -0.1624
39542W        W42762   2.862   9.866  16.356  0.0870  0.0378 -0.2073
39543W        W42763   1.941   1.216  17.841  0.2376 -0.0507 -0.0485
39544W        W42764   1.644   2.192  17.896  0.0686 -0.1094  0.2899
39545W        W42765  17.132   6.409   0.040 -0.1821  0.1604 -0.0778
39546W        W42766  15.685   5.676   4.697 -0.2615  0.1699 -0.0328
39547W        W42767   3.302   4.272  12.398  0.0287  0.3497  0.1719
39548W        W42768   1.126   7.286  15.098 -0.2647 -0.2949 -0.1514
39549W        W42769  18.079  11.115   2.029 -0.1767 -0.2555  0.1507
39550W        W42770  16.525   1.997   1.560  0.0307  0.3768 -0.0657
39551W        W42771  15.240   2.789  15.197 -0.1451  0.2560 -0.1159
39552W        W42772  17.465  13.999   7.193  0.0383 -0.1523 -0.0621
39553W        W42773  14.851   7.322  16.353  0.1185 -0.0061  0.4016
39554W        W42774  15.284  15.613  18.167  0.1166  0.1726  0.3106
39555W        W42775  10.226   1.191   1.082 -0.0346  0.3181  0.2328
39556W        W42776   1.971   2.838   5.181 -0.1029 -0.1022 -0.0282
39557W        W42777   3.611   6.619   0.447 -0.1506  0.1226 -0.3340
39558W        W42778   4.735  18.073  12.268  0.0850  0.1309 -0.0361
39559W        W42779  15.623  14.879  17.941 -0.1055 -0.0266 -0.0351
39560W        W42780  14.577   2.973   6.910 -0.2349 -0.0556  0.0910
39561W        W42781   1.533  15.312  17.668  0.1957  0.1412  0.2615
39562W        W42782   1.387  10.148   3.809  0.0704  0.0473  0.0114
39563W        W42783   8.967   1.206  11.635 -0.1264 -0.1811 -0.1860
39564W        W42784  16.444  17.839   5.742 -0.0242 -0.1521  0.0240
39565W        W42785   1.190   1.994   0.577 -0.1642 -0.0147 -0.1679
39566W        W42786  15.385  12.861   2.330  0.3951 -0.0924 -0.0565
39567W        W42787   1.294  17.497   5.881 -0.1433 -0.0592  0.1994
39568W        W42788   1.284  17.122   1.133 -0.0176 -0.3535 -0.0596
39569W        W42789  16.744  12.476   0.923 -0.1707 -0.1099  0.0389
39570W        W42790  14.892   1.943  14.421 -0.0410  0.0250  0.0710
39571W        W42791  11.640   1.729  10.376 -0.2217  0.1000 -0.2251
39572W        W42792  15.722  15.664  15.824  0.0429  0.0242  0.2710
39573W        W42793  15.949   6.031  16.877 -0.3059 -0.0097  0.1897
39574W        W42794  12.610  13.319   9.018  0.3732  0.0663  0.1522
39575W        W42795   1.018  17.757   1.764 -0.2716 -0.0635  0.2802
39576W        W42796   2.666   8.720   3.687  0.0580  0.0662  0.1313
39577W        W42797  17.443  13.438  11.939  0.0045 -0.2439  0.1730
39578W        W42798  16.640   0.758  12.385 -0.0693 -0.1401 -0.2332
39579W        W42799   4.099  17.359   3.931 -0.2946 -0.0292 -0.2030
39580W        W42800  14.851   2.334  11.093 -0.2452 -0.0017 -0.1463
39581W        W42801   4.575   2.500   1.419  0.0415 -0.0265 -0.1036
39582W        W42802  16.347   0.314   4.510 -0.0159 -0.1279 -0.0343
39583W        W42803  15.951  17.380   2.024  0.0732  0.1053 -0.1562
39584W        W42804  15.578   0.289   1.068 -0.0213  0.0925 -0.1797
39585W        W42805   2.305   5.451   7.296  0.1030 -0.0148 -0.0187
39586W        W42806   2.606   5.490   0.022 -0.1306 -0.2812 -0.1018
39587W        W42807   0.036  11.246   3.187  0.2429 -0.0304 -0.1743
39588W        W42808   1.663   1.443  16.988 -0.0037  0.1559 -0.2825
39589W        W42809  14.522  15.818   7.615 -0.2681  0.0570  0.0015
39590W        W42810  15.607   0.209   7.095  0.1990 -0.1517 -0.1574
39591W        W42811  12.446   0.982   5.648  0.0096  0.1281  0.2011
39592W        W42812  15.037  11.528  15.581  0.0851  0.1112 -0.0129
39593W        W42813  16.998  14.116   1.524 -0.2671  0.0283 -0.0450
39594W        W42814  14.542  13.162  15.650  0.1363 -0.0199  0.0281
39595W        W42815   3.871   1.869  17.797  0.0655  0.2986  0.2787
39596W        W42816  15.312   6.236   3.404 -0.0044  0.1236 -0.3225
39597W        W42817  17.891   5.901  16.482  0.1378  0.1229 -0.1341
39598W        W42818   2.597   5.281   6.846 -0.0253 -0.0172 -0.3160
39599W        W42819  12.864   5.980   1.894  0.2125 -0.0555 -0.2554
39600W        W42820  10.488   1.446  15.160  0.0891  0.0312 -0.1953
39601W        W42821   2.322   0.642   1.911 -0.2400  0.0952 -0.0382
39602W        W42822  16.281   9.022   2.890  0.1959 -0.2322 -0.1752
39603W        W42823  17.543  10.888   2.809  0.2027 -0.1277 -0.1403
39604W        W42824   1.742  17.231   8.805 -0.2426  0.0779  0.0481
39605W        W42825   2.086  12.142   8.385 -0.3800 -0.2193  0.2294
39606W        W42826  17.642   4.876   2.957  0.0066  0.2792  0.4357
39607W        W42827   4.233   4.326   5.173  0.0493  0.3011  0.0640
39608W        W42828   2.437   2.620  14.704  0.0775  0.0509  0.1164
39609W        W42829  12.779   6.257   2.691 -0.0273 -0.0337 -0.2005
39610W        W42830  17.090  17.849  16.997 -0.1474  0.0675  0.0427
39611W        W42831  14.626   4.422   6.552 -0.0853  0.0461  0.0492
39612W        W42832  15.596  17.354  17.255 -0.0204  0.0473  0.0484
39613W        W42833  11.950  16.587  15.302  0.0509 -0.1211 -0.0555
39614W        W42834   2.715   3.499   3.389 -0.0284 -0.0860 -0.3416
39615W        W42835  17.599  16.281   7.431  0.1910 -0.1400  0.2691
39616W        W42836  16.377   3.083   7.533 -0.3178  0.1287 -0.3504
39617W        W42837  17.745   3.032   1.062 -0.0691 -0.0271 -0.0771
39618W        W42838   4.687  16.763   3.062  0.6157  0.0120  0.0461
39619W        W42839  13.399   5.271  14.457 -0.0466 -0.2130 -0.0095
39620W        W42840   9.784   1.396   8.007  0.0888 -0.1722  0.2813
39621W        W42841   3.376  13.855  13.789 -0.1268 -0.2143  0.1189
39622W        W42842  11.653   5.834  12.653  0.2519 -0.0303 -0.2026
39623W        W42843  17.625   4.441   2.283  0.0329 -0.0636 -0.0823
39624W        W42844   0.914   1.334   3.268  0.2641 -0.1603  0.1119
39625W        W42845  15.888   3.743   1.273  0.0034 -0.0414 -0.0745
39626W        W42846  17.326  18.100   0.907  0.2361  0.1175  0.0702
39627W        W42847   0.890   0.186  10.926 -0.1345  0.0329 -0.0892
39628W        W42848  12.042   3.707  14.283  0.1157 -0.0124  0.1269
39629W        W42849  16.147   4.116   4.682 -0.1017 -0.1625  0.0654
39630W        W42850  16.032   5.682   7.386 -0.0831 -0.0760  0.1614
39631W        W42851   2.369   5.437  16.020  0.0015 -0.1017 -0.0324
39632W        W42852   0.736  17.914  12.904 -0.2099  0.1013  0.0317
39633W        W42853  15.578   2.502   5.789 -0.0830  0.0973  0.0528
39634W        W42854   1.675   1.982  14.613 -0.2566 -0.0194 -0.0503
39635W        W42855  11.948  12.935   7.970  0.2748  0.1895  0.0852
39636W        W42856   0.441   3.481   5.289  0.0119 -0.1554 -0.0308
39637W        W42857   3.119  17.729  17.677 -0.3242  0.0938 -0.0593
39638W        W42858  14.111   4.606  12.956  0.0666 -0.1877  0.2572
39639W        W42859  11.289   2.368  17.508  0.4667 -0.4459 -0.0022
39640W        W42860  12.412  15.345  15.605  0.2012  0.1737 -0.1578
39641W        W42861  11.682   0.847  10.058 -0.1843 -0.0920 -0.0600
39642W        W42862  17.260  10.184   1.571  0.0339  0.0176 -0.0426
39643W        W42863   0.779  15.848   8.320  0.1611  0.2218  0.2435
39644W        W42864  13.353  15.098  16.316  0.1005 -0.2139 -0.0370
39645W        W42865  11.126   1.935  16.774  0.1772  0.1162  0.0214
39646W        W42866  14.144  17.891   9.186  0.0620 -0.0292 -0.1267
39647W        W42867   0.588   4.234   2.113 -0.0577  0.1142  0.1562
39648W        W42868  10.578   0.607   0.352 -0.1494  0.0780 -0.0254
39649W        W42869  16.654   0.832   0.707  0.0687  0.0624  0.1192
39650W        W42870  14.632   3.847  16.018 -0.2524  0.1134  0.0516
39651W        W42871  15.956   1.244  17.523  0.2026 -0.2475  0.3156
39652W        W42872   3.495  12.344   1.839  0.0325 -0.0519 -0.1092
39653W        W42873  17.113   7.124  14.550 -0.1726  0.1997  0.1411
39654W        W42874  10.146   1.500   1.822  0.1339 -0.1390  0.1680
39655W        W42875  14.805   0.655   2.575 -0.6112 -0.2077  0.2021
39656W        W42876  17.169   3.287  17.314 -0.1252 -0.2302  0.0616
39657W        W42877   9.455  17.395  13.764  0.0240  0.0982 -0.0379
39658W        W42878  10.892   0.715   1.536 -0.0313  0.1884 -0.2455
39659W        W42879  15.708  17.185   5.287  0.2639 -0.2351 -0.2144
39660W        W42880  18.218  15.750   1.846 -0.2568  0.0019  0.0322
39661W        W42881  11.895  18.128   2.875 -0.1100  0.2610 -0.1597
39662W        W42882   2.060   1.990   4.133  0.0316 -0.0498 -0.0374
39663W        W42883   0.108  10.591  16.510 -0.1737 -0.3447 -0.2176
39664W        W42884   4.216   9.463   3.534 -0.0101  0.2994  0.1850
39665W        W42885  14.509   6.430  11.357 -0.2369 -0.1532  0.1674
39666W        W42886  11.028   5.819   0.163 -0.1240  0.0330 -0.1201
39667W        W42887  11.436   4.887  15.446  0.2141  0.1478  0.1479
39668W        W42888   9.214   0.723   1.154  0.0871 -0.1393  0.0447
39669W        W42889  10.718   5.525  11.564  0.2307 -0.1026 -0.1153
39670W        W42890  15.880   2.432  15.682 -0.1798 -0.0994  0.2923
39671W        W42891  12.324   6.642  11.442 -0.0714  0.1168 -0.2760
39672W        W42892   0.223   1.323  12.175 -0.1812  0.1630  0.0685
39673W        W42893   1.054   8.152  15.332 -0.0750 -0.1364 -0.2524
39674W        W42894  14.194  17.011   7.382 -0.2047  0.0181 -0.1739
39675W        W42895   2.495   5.209  16.637  0.1342  0.0827 -0.4753
39676W        W42896  15.827   8.678  15.142  0.1081 -0.1672  0.1135
39677W        W42897  14.496   0.741   1.014  0.1021  0.1061 -0.2773
39678W        W42898  18.107  16.924   2.505  0.3198 -0.0246  0.0972
39679W        W42899  16.761   2.275  14.290 -0.2621 -0.3733 -0.0894
39680W        W42900  17.346  16.344   2.125 -0.3406 -0.1323 -0.0094
39681W        W42901   2.743   0.899   2.975 -0.2036  0.0413  0.0251
39682W        W42902  18.190  11.667   0.266  0.2657 -0.1155 -0.1373
39683W        W42903   0.736  17.603  15.191  0.0363 -0.0210 -0.0206
39684W        W42904   5.327   6.752  15.801 -0.0200 -0.0345 -0.0353
39685W        W42905  15.023   2.840   7.179 -0.3246  0.2964  0.0061
39686W        W42906   7.383   8.172  11.374  0.1976  0.0807 -0.0132
39687W        W42907  13.484   4.577   9.379 -0.5702 -0.1444  0.0310
39688W        W42908  18.123   3.765  17.597  0.0475 -0.1015  0.4134
39689W        W42909   0.969   6.434   1.077  0.0086 -0.0504 -0.0249
39690W        W42910   4.702   3.582   5.270  0.0780 -0.1903 -0.0217
39691W        W42911  17.195   2.911   1.540  0.1286 -0.1879 -0.0849
39692W        W42912  10.724  16.978   4.578  0.0222  0.0062  0.1733
39693W        W42913   2.338  14.635   1.317 -0.0672 -0.1772 -0.0720
39694W        W42914   0.825   4.779   3.620  0.0360 -0.0245  0.0834
39695W        W42915  16.620   6.251   0.115  0.0983  0.2578  0.0086
39696W        W42916   3.271   2.240   2.908  0.0271  0.1972  0.3399
39697W        W42917   4.055   4.835   3.069  0.2607 -0.1534  0.2213
39698W        W42918   1.570   2.433   2.899 -0.1717 -0.2272  0.1289
39699W        W42919   5.062   7.559   5.822 -0.1126  0.1936  0.2535
39700W        W42920  16.889   2.786   8.245  0.2991  0.3994 -0.2006
39701W        W42921  17.285  18.103   4.688 -0.1902 -0.0960  0.2435
39702W        W42922  17.482   5.150  14.802 -0.0673  0.1602  0.0948
39703W        W42923   0.015   5.381   3.750  0.1164 -0.0254 -0.1039
39704W        W42924   9.516  17.625   7.280  0.1602  0.1345 -0.1220
39705W        W42925  15.626  11.854  17.121 -0.0172 -0.1265 -0.0443
39706W        W42926   7.635  14.486   4.311 -0.1130  0.2485 -0.0760
39707W        W42927   0.161   4.881  12.168  0.1766  0.2903 -0.0096
39708W        W42928   5.056  16.184   6.701  0.1734  0.2366  0.0433
39709W        W42929  13.143  17.117  13.222 -0.1446 -0.3268  0.3001
39710W        W42930   0.361   3.744   5.876 -0.1086  0.0653  0.2083
39711W        W42931  13.820   2.187   0.477  0.1744 -0.0476  0.4266
39712W        W42932  15.473  11.583   9.098 -0.1164  0.0536 -0.0188
39713W        W42933  18.027   0.568  11.292 -0.3109 -0.3209 -0.0376
39714W        W42934  18.087  11.970   3.678 -0.0430  0.0935 -0.0524
39715W        W42935  15.753  15.821   5.570  0.4187 -0.0625  0.2391
39716W        W42936   2.458   0.747   1.424 -0.1670 -0.1283  0.0830
39717W        W42937  13.038   3.918   4.668 -0.1951  0.2362 -0.0245
39718W        W42938  16.172   1.943   0.586  0.0789  0.2981  0.0015
39719W        W42939   0.520   5.079  13.286  0.3997  0.1223  0.0293
39720W        W42940  16.414   2.033  18.217 -0.0261  0.1109 -0.0357
39721W        W42941  17.385  15.156   7.791 -0.0763 -0.1825  0.0809
39722W        W42942  16.002   5.135  16.792  0.1786  0.1910 -0.2834
39723W        W42943  15.292   2.507   5.400  0.1560  0.0849 -0.0030
39724W        W42944  15.121  10.696   7.646 -0.1327 -0.2071  0.1671
39725W        W42945  10.951   5.534  17.154  0.1960 -0.1170 -0.2573
39726W        W42946   2.063  12.918   8.071 -0.1963 -0.0263 -0.0313
39727W        W42947  15.347   4.856  15.665  0.2330 -0.0496 -0.1145
39728W        W42948   0.334   1.493   3.663  0.0325 -0.1010 -0.1892
39729W        W42949  14.272   5.594   4.527  0.1683 -0.1593  0.3255
39730W        W42950  18.092   1.796   7.028  0.1500  0.0243  0.3155
39731W        W42951   2.181   2.194  18.028 -0.2058  0.0154  0.1088
39732W        W42952   1.102  14.957   0.948 -0.0152 -0.2305 -0.0109
39733W        W42953  16.047   3.406  14.308  0.2394  0.3497  0.1218
39734W        W42954   1.222  13.422   0.447  0.0814 -0.2163 -0.0276
39735W        W42955   0.824   4.077   1.404  0.1290  0.0551 -0.0309
39736W        W42956   3.865   5.757  17.819 -0.2635 -0.3523 -0.0546
39737W        W42957  17.262   1.511   3.856 -0.0972  0.1288  0.1807
39738W        W42958   0.587   2.624   5.697 -0.0931  0.0436  0.0261
39739W        W42959  18.040   0.944   3.866 -0.5230  0.0578 -0.1114
39740W        W42960  12.646  14.576  10.316  0.3010 -0.0030  0.3184
39741W        W42961  13.913   6.515  14.202  0.3047 -0.3907 -0.0019
39742W        W42962  16.522   4.747   4.205  0.3855  0.0813  0.0644
39743W        W42963   1.490   2.192   1.008 -0.0985  0.0834 -0.0310
39744W        W42964   0.544   4.488   0.808  0.1679 -0.0654  0.1484
39745W        W42965  14.964   3.020  12.931 -0.2827 -0.0881  0.0156
39746W        W42966   0.909  18.209  10.122  0.1292  0.4348  0.0173
39747W        W42967   9.019  13.001   2.454 -0.4152  0.1686  0.4049
39748W        W42968   0.102   3.314   5.676 -0.1646 -0.1560  0.0212
39749W        W42969  12.621   2.945   1.667 -0.2734  0.1051  0.0821
39750W        W42970  13.704   5.770   3.682 -0.1111  0.1358  0.1126
39751W        W42971   1.288   6.305  13.552  0.0733  0.0914  0.0777
39752W        W42972  17.525   1.543   1.677 -0.0916 -0.1913 -0.1529
39753W        W42973  16.413   0.873   9.816 -0.2211  0.1770 -0.0424
39754W        W42974  16.777   1.391   3.748  0.0290  0.0653 -0.0234
39755W        W42975   0.586   7.363   3.074 -0.1423  0.1990  0.1083
39756W        W42976  17.616   1.299   2.198  0.1049  0.2810 -0.1710
39757W        W42977  13.605   7.903  11.783 -0.1664 -0.0213  0.2551
39758W        W42978  13.540   3.855  15.858 -0.1785  0.0871 -0.1010
39759W        W42979   1.932   5.520   1.825 -0.2383 -0.1320 -0.1555
39760W        W42980  16.706   5.149  13.087 -0.1916  0.1468 -0.0365
39761W        W42981  15.030  15.485   7.418 -0.1546  0.2424  0.1846
39762W        W42982  13.846   2.485  15.544 -0.0464 -0.0516  0.1293
39763W        W42983  12.910  15.613   0.985  0.0083 -0.2072  0.0559
39764W        W42984  12.070   3.098  11.271  0.0202  0.0236  0.0190
39765W        W42985  16.534   3.957   6.970 -0.2758  0.2564  0.2169
39766W        W42986  16.488   6.343   4.078 -0.1144 -0.0179  0.0701
39767W        W42987   0.983   4.613   8.228  0.1184 -0.1483 -0.1201
39768W        W42988  15.002   5.855  18.113  0.1992 -0.0179 -0.1116
39769W        W42989  16.486   1.160   3.387 -0.2974 -0.2211 -0.0821
39770W        W42990  14.881  15.463   4.570  0.0630 -0.1687  0.0184
39771W        W42991  14.407   0.046  17.273  0.0687  0.2750  0.2895
39772W        W42992  16.742   7.610   4.530  0.2506  0.2144 -0.1204
39773W        W42993  15.443   2.241  10.907  0.0592  0.0850 -0.0969
39774W        W42994  14.550   3.377   2.642 -0.2442  0.0760 -0.0977
39775W        W42995   3.100   5.178   8.203 -0.2761 -0.0171  0.0123
39776W        W42996  15.330  15.163  10.918 -0.0178 -0.3531 -0.2123
39777W        W42997   1.070   3.659  16.984  0.1804  0.0355 -0.2463
39778W        W42998  14.033   0.933  14.485  0.0007  0.2783 -0.1494
39779W        W42999  14.304   6.806  10.378  0.2298 -0.1317  0.2193
39780W        W43000   6.235  15.970  10.746 -0.0747 -0.0329  0.0789
39781W        W43001  10.667   9.786   9.382  0.1200  0.0041  0.3609
39782W        W43002  16.499   4.057   6.504  0.0618  0.2555 -0.2849
39783W        W43003  17.556   3.655   3.083 -0.2482  0.3349 -0.2259
39784W        W43004  14.495   7.851   7.141  0.1891 -0.2288  0.0796
39785W        W43005  12.481   3.063  16.983  0.0732 -0.0198 -0.1416
39786W        W43006  14.835   7.516   7.038  0.1089  0.2404  0.1731
39787W        W43007   0.675   0.773  17.467 -0.1680 -0.2255 -0.2131
39788W        W43008  15.007   1.672   7.290 -0.0648 -0.3610  0.0302
39789W        W43009   0.051   3.845  10.857  0.1455 -0.0643  0.1625
39790W        W43010  15.408  10.475   7.145 -0.3871 -0.1584  0.0087
39791W        W43011  14.375   9.679  17.839  0.1249  0.0197  0.2511
39792W        W43012   0.719  16.319   3.102  0.2517 -0.0603  0.2876
39793W        W43013  16.559   1.594  17.972 -0.0442  0.2256 -0.1280
39794W        W43014   3.314   2.565  17.329  0.0721 -0.1787 -0.2211
39795W        W43015  13.700   8.822   9.506 -0.0543  0.3090 -0.2582
39796W        W43016   6.041   1.980   2.854 -0.0004  0.1437 -0.0843
39797W        W43017  13.053   4.252   6.255  0.1139 -0.0304 -0.2804
39798W        W43018  11.803  15.582   2.425  0.4502 -0.0860 -0.1688
39799W        W43019  17.620   5.620   9.550 -0.2375 -0.2602  0.1308
39800W        W43020  14.071   2.341   8.250 -0.0655 -0.0174 -0.1300
39801W        W43021  18.132   7.960   4.157 -0.1066 -0.3595 -0.0768
39802W        W43022  16.761  18.157   5.962  0.2557 -0.0811  0.0471
39803W        W43023  14.766  16.459  17.856  0.0516  0.0591  0.0304
39804W        W43024   5.404   2.992   6.700 -0.0081 -0.0134  0.2031
39805W        W43025  18.121  17.993   3.466 -0.1170 -0.0729  0.0747
39806W        W43026  15.700   5.412   2.063 -0.1519 -0.1305 -0.1525
39807W        W43027  14.866   4.977   4.767 -0.1105 -0.0052 -0.1107
39808W        W43028  14.384   4.245   3.655  0.0748 -0.2289  0.0151
39809W        W43029  14.459  17.982   4.179 -0.1333 -0.2041  0.2297
39810W        W43030  15.522   2.545  10.058 -0.0375  0.1025 -0.0475
39811W        W43031  14.816   4.898   7.554 -0.3300 -0.0402  0.1588
39812W        W43032   1.862   0.909   4.516  0.3995  0.1400  0.0065
39813W        W43033   0.852   0.596   8.583  0.0885  0.2624 -0.3704
39814W        W43034   4.143  15.637   5.574 -0.2912 -0.2250  0.0423
39815W        W43035   6.033  17.752   1.742  0.0264  0.0067  0.2019
39816W        W43036  14.743   0.783  11.187 -0.3160  0.2890  0.1569
39817W        W43037  17.298   0.824  17.639 -0.0445  0.0192  0.1803
39818W        W43038   8.092   0.952  16.893 -0.0603  0.4002  0.0483
39819W        W43039  13.621   1.891   0.826  0.1827  0.1802  0.2576
39820W        W43040   4.953  17.129   9.133  0.1570 -0.2428  0.0425
39821W        W43041  12.532   5.831   3.371 -0.0845  0.2666 -0.1280
39822W        W43042  18.226   2.477  17.321  0.0406  0.2749 -0.0030
39823W        W43043  13.982   1.255   3.007  0.0559 -0.0258  0.1268
39824W        W43044  17.740   7.452   8.236  0.2812 -0.1714  0.2884
39825W        W43045   2.540  12.977   3.316  0.2143  0.1950  0.0503
39826W        W43046  13.635  18.044  15.270 -0.1789  0.2170  0.0702
39827W        W43047  11.411  16.741   9.088  0.0703  0.1105  0.0310
39828W        W43048  17.741   1.262  14.058  0.0528  0.1067 -0.3775
39829W        W43049   1.137   0.189   0.341  0.0720 -0.0648  0.1035
39830W        W43050   1.043   8.171   5.112 -0.1139 -0.2107  0.0554
39831W        W43051   0.774  15.817   3.670 -0.1800 -0.3751  0.2080
39832W        W43052  15.520   4.482   6.965 -0.1352  0.0478  0.0596
39833W        W43053  17.952  17.444   9.035 -0.0698 -0.1244  0.0452
39834W        W43054   0.614  11.683   4.374  0.0488  0.0782 -0.1321
39835W        W43055   9.627  15.471   5.673  0.3505 -0.1907 -0.1283
39836W        W43056  18.071   0.053   5.244  0.0621  0.2465 -0.3399
39837W        W43057   0.017   0.764   5.866  0.1623  0.2316 -0.2373
39838W        W43058   8.270  15.534   0.681  0.0556 -0.1039  0.2140
39839W        W43059  14.121   2.245  14.298  0.0637 -0.2144  0.3133
39840W        W43060  13.834   1.518  10.527 -0.0567 -0.0601 -0.3804
39841W        W43061  15.862   3.462   1.792  0.0530 -0.1290  0.1157
39842W        W43062  16.641   0.272   2.422  0.0440 -0.3496 -0.2377
39843W        W43063   0.504  16.845   4.192  0.3226 -0.0036  0.2211
39844W        W43064  13.451   4.810  17.095  0.1956  0.0721  0.1940
39845W        W43065  12.100   0.528   9.049  0.1776 -0.0336 -0.1737
39846W        W43066  13.384  16.885   6.360 -0.0756 -0.0723  0.0888
39847W        W43067   1.656   3.689   4.101  0.3109 -0.0150  0.0365
39848W        W43068   2.952  16.645   8.445 -0.4054 -0.4907  0.0467
39849W        W43069   0.785  14.231   7.468 -0.3102  0.0645 -0.0689
39850W        W43070  18.247  17.449   1.775  0.1735 -0.0939 -0.0117
39851W        W43071   2.688   6.371  12.848  0.2894 -0.2165  0.2143
39852W        W43072  16.112  14.732   2.911  0.0395 -0.0155 -0.5190
39853W        W43073  17.061   2.353   8.313 -0.2921  0.0128 -0.1048
39854W        W43074  15.149   9.532  10.880 -0.0891 -0.0449  0.4395
39855W        W43075  17.202   1.364  16.772  0.0969 -0.0527  0.0156
39856W        W43076   4.979  15.404  10.822  0.1209  0.0652  0.0285
39857W        W43077   5.044   1.025  17.854  0.0664  0.0225 -0.0428
39858W        W43078   4.071   1.006  16.355  0.0793  0.0577 -0.0928
39859W        W43079   2.574   6.931   2.693  0.2420  0.2409  0.1132
39860W        W43080  14.914  16.537   0.715  0.3615 -0.2605  0.0325
39861W        W43081  14.796  12.205  10.276 -0.2922  0.1223  0.1729
39862W        W43082   7.916   8.011  17.371 -0.1925 -0.1080  0.0014
39863W        W43083  11.435   3.333   6.755  0.0439 -0.1471 -0.0181
39864W        W43084  10.869  12.108  17.772  0.2403  0.3618  0.4047
39865W        W43085   1.146   1.750  11.467 -0.2712  0.0735  0.0125
39866W        W43086  11.681  13.321   6.802 -0.0148  0.2795  0.1639
39867W        W43087  12.845  15.775   6.036  0.0850  0.0431 -0.0305
39868W        W43088   2.055   7.140   0.896 -0.1593 -0.0526 -0.0475
39869W        W43089   3.060   0.703   1.234  0.2551  0.1628  0.3731
39870W        W43090   2.708  17.264  11.105  0.1012 -0.0066 -0.0244
39871W        W43091  16.506   2.615   5.962 -0.0005 -0.0499  0.0412
39872W        W43092  13.816   4.679   6.204 -0.4011  0.1291 -0.1737
39873W        W43093   1.799  17.537   7.426  0.0780  0.1451  0.2699
39874W        W43094  17.146   0.075   4.259  0.4498  0.2082 -0.1415
39875W        W43095   8.421   1.404   0.752  0.1582 -0.1041 -0.1146
39876W        W43096  16.549   5.217   6.492 -0.3259  0.1474 -0.4482
39877W        W43097   3.795   3.157   4.193 -0.0106 -0.0527  0.1962
39878W        W43098   5.385  14.009   7.152  0.0176  0.2215  0.1406
39879W        W43099  17.232  16.771   3.913 -0.0036 -0.3323  0.1556
39880W        W43100  12.979  17.255   9.388  0.1873 -0.1194  0.2431
39881W        W43101   2.351   1.035   5.136  0.0997  0.1112 -0.3397
39882W        W43102   5.949   7.401   1.993  0.1304  0.0714 -0.3185
39883W        W43103   8.242  16.637   8.614 -0.0163  0.0554 -0.3377
39884W        W43104   1.743  17.183   9.317  0.0268  0.1726  0.3747
39885W        W43105  18.018   1.553   8.351  0.4786  0.2474 -0.3686
39886W        W43106  17.530   0.228  16.339 -0.0762  0.1514  0.0912
39887W        W43107  14.073   7.702  12.934  0.2350  0.1121 -0.1653
39888W        W43108  14.552  15.366   8.857  0.1841  0.2473 -0.0417
39889W        W43109  16.285   5.251   1.126 -0.0658  0.0506  0.0274
39890W        W43110   4.906   1.975   0.699  0.1342  0.0038  0.1226
39891W        W43111  14.073   6.882   5.699  0.2848 -0.3060 -0.1131
39892W        W43112  16.389   5.317   0.552 -0.0312  0.0805 -0.0458
39893W        W43113  11.183  17.508  10.174 -0.0507  0.0694  0.0356
39894W        W43114  15.613   3.651  17.666  0.1676 -0.0833 -0.1179
39895W        W43115  15.358  15.389   4.848 -0.0552 -0.2287 -0.0780
39896W        W43116  17.468   1.834   1.053  0.3394  0.0603 -0.4646
39897W        W43117   3.147   2.461  17.784  0.1781  0.1508 -0.1496
39898W        W43118   2.858   4.361  17.624 -0.3496 -0.2047  0.0137
39899W        W43119   1.343   2.322   3.851  0.0059 -0.0388 -0.0874
39900W        W43120  14.212  17.916   7.803  0.0798 -0.3131 -0.0502
39901W        W43121  12.564   3.907   3.657 -0.0180 -0.3753  0.0456
39902W        W43122  10.641   2.290  17.683 -0.0206 -0.0906 -0.1682
39903W        W43123  13.400  16.212   4.227 -0.0705  0.1107 -0.1955
39904W        W43124   0.865   8.224  14.033 -0.0067 -0.0061  0.0343
39905W        W43125  13.182  18.161   2.773 -0.1746 -0.0302 -0.0132
39906W        W43126  15.062   1.825   9.077  0.0467 -0.1277  0.0547
39907W        W43127   8.636   7.115  15.586 -0.2154  0.1888 -0.2847
39908W        W43128   0.901   1.711   5.290  0.1181  0.0201  0.1858
39909W        W43129  17.006   5.274   6.924  0.2585  0.1152 -0.1046
39910W        W43130   3.078   0.098   4.892 -0.0348 -0.0155  0.1582
39911W        W43131   0.333   3.078   6.669 -0.0808 -0.0361 -0.0399
39912W        W43132   0.169  17.457   4.542 -0.0395 -0.2861  0.3536
39913W        W43133   3.068   0.043   8.443 -0.3655 -0.1423 -0.0834
39914W        W43134  13.734   4.527   4.943  0.2284 -0.2006  0.0873
39915W        W43135  13.323   6.234  17.353 -0.2873 -0.0318 -0.3480
39916W        W43136   1.035   2.101   3.464  0.2605  0.0224 -0.1766
39917W        W43137  16.230   1.856   4.705  0.0426 -0.1213  0.0888
39918W        W43138  13.182   1.756   5.662  0.1793  0.0202 -0.0841
39919W        W43139  15.579  17.671   2.048 -0.0889 -0.2293 -0.2249
39920W        W43140  13.852  16.275   4.981  0.0678 -0.0171 -0.0498
39921W        W43141  17.206   3.575  16.057  0.2543 -0.0825 -0.2232
39922W        W43142   4.959   4.344   0.793 -0.1121  0.1152  0.0132
39923W        W43143   4.675   7.251   9.532 -0.2151  0.3937 -0.0574
39924W        W43144   9.294  18.148   0.452 -0.1414  0.0401  0.1015
39925W        W43145   4.090  11.631  10.170  0.0591 -0.1183 -0.0709
39926W        W43146  14.510   3.405   6.137 -0.3228  0.1331  0.0956
39927W        W43147  11.862  14.113   9.673  0.0900  0.1355  0.1479
39928W        W43148  12.079   1.517   6.767  0.2100 -0.1052 -0.0271
39929W        W43149  16.613  15.014  11.190 -0.0587  0.2611  0.2787
39930W        W43150  16.669  10.173  15.111  0.0357  0.2258  0.4179
39931W        W43151  16.142   4.286   9.653  0.2002 -0.0434  0.0377
39932W        W43152   3.347  14.573  12.807  0.1806 -0.2634  0.0854
39933W        W43153  15.908   5.430   9.811  0.0674  0.3040  0.1346
39934W        W43154  13.137   0.619   7.262 -0.0610 -0.0079  0.0160
39935W        W43155  15.253  18.208   0.704 -0.0626  0.1570  0.1903
39936W        W43156  17.082   5.032   4.353  0.0717 -0.0880 -0.2507
39937W        W43157  17.175   9.077   8.266  0.0711 -0.1138  0.1005
39938W        W43158  11.596   4.448   4.014 -0.1871  0.1240  0.2430
39939W        W43159  10.309   4.502  13.249 -0.1914 -0.1701  0.0494
39940W        W43160   1.429   9.079   6.403  0.0126  0.1340 -0.1682
39941W        W43161   1.140  17.652   6.468 -0.1213  0.3240  0.1927
39942W        W43162  15.729   4.601   0.251 -0.1379 -0.1452  0.0149
39943W        W43163  15.498   3.680  12.383 -0.0228 -0.0907  0.2983
39944W        W43164  12.946   8.466  17.790 -0.2582 -0.3020 -0.1465
39945W        W43165   4.924   6.731   3.118  0.1269 -0.1925 -0.1866
39946W        W43166  16.724   4.805   4.762 -0.1410 -0.3246 -0.0156
39947W        W43167  15.185   1.413  17.920 -0.2213 -0.1027  0.3061
39948W        W43168  16.801   9.756  15.955 -0.2189 -0.2852 -0.0919
39949W        W43169  15.980   2.589   7.582  0.2352 -0.3755 -0.0254
39950W        W43170   1.220   6.955   2.549  0.0265 -0.0008  0.3003
39951W        W43171  11.908   4.826   2.589 -0.0225  0.2320  0.0529
39952W        W43172   7.415  15.725   3.915 -0.1433  0.0215 -0.2753
39953W        W43173   2.086  14.875   7.091 -0.0226  0.1147  0.0919
39954W        W43174   2.851  15.469   3.607  0.1042  0.2850 -0.0761
39955W        W43175   3.714  16.743   3.309  0.0158 -0.0791 -0.2124
39956W        W43176  15.980  15.031   9.871 -0.4043 -0.1159 -0.1384
39957W        W43177   3.739  16.665   2.742  0.0734  0.0344  0.0780
39958W        W43178  11.727  14.281  16.395  0.0097  0.0995 -0.2017
39959W        W43179  12.587  16.069  10.121  0.2058 -0.3983 -0.0429
39960W        W43180  14.531  16.258   0.481 -0.1560 -0.0090 -0.1005
39961W        W43181  14.275   5.204  14.084  0.4331  0.2937 -0.0814
39962W        W43182  16.777   9.172   6.180 -0.1011 -0.3388  0.1597
39963W        W43183  14.708  15.137   5.529  0.0547 -0.4283  0.2933
39964W        W43184  16.803   2.773   7.419  0.1286  0.1265  0.1428
39965W        W43185  16.011   8.187  15.204  0.1711  0.1833  0.1219
39966W        W43186   5.408   7.496   4.918 -0.1121 -0.2073 -0.1893
39967W        W43187  14.471   3.155   7.479  0.0318  0.4829 -0.0858
39968W        W43188  15.354   0.839   5.030  0.0568 -0.0665 -0.0831
39969W        W43189  13.254   6.340   0.123  0.1168  0.0061 -0.2260
39970W        W43190  12.839   7.548   9.943 -0.0546  0.1061  0.2467
39971W        W43191  16.078  18.194   0.527  0.0041 -0.1877 -0.0881
39972W        W43192  17.045   3.957   8.316 -0.1822  0.0511 -0.2928
39973W        W43193  12.459  14.483   5.581  0.0633 -0.0779  0.2374
39974W        W43194   2.496   3.535   5.188 -0.0856 -0.3562 -0.0785
39975W        W43195   2.339  10.550   9.710 -0.0239 -0.0852  0.3076
39976W        W43196  15.139   7.111  10.142  0.0367 -0.0221  0.2892
39977W        W43197   4.583   4.324  10.602 -0.0133 -0.2579 -0.0199
39978W        W43198  17.520   7.622   8.863 -0.1230 -0.1886  0.1384
39979W        W43199  12.382   2.542   3.442 -0.1132 -0.1940 -0.0091
39980W        W43200   9.822   3.464   7.638 -0.0331  0.1134  0.0553
39981W        W43201   2.040  13.654   4.201 -0.1170  0.0654 -0.0559
39982W        W43202  18.103   8.259   9.949 -0.0463  0.1501  0.0465
39983W        W43203  14.776   7.629  11.680 -0.0693  0.1239  0.4304
39984W        W43204  17.731   5.720   2.305 -0.1055 -0.0672  0.0702
39985W        W43205  17.462   2.099   9.894  0.1021 -0.2237  0.1624
39986W        W43206   2.030   6.387   4.135 -0.1988  0.1931  0.1344
39987W        W43207  14.898   4.360  13.425  0.0671  0.3369 -0.0959
39988W        W43208  17.543   4.318   1.411  0.2722 -0.0961  0.1848
39989W        W43209   0.631   0.246   3.317  0.2590  0.2286 -0.0412
39990W        W43210   0.498   5.378   8.370  0.3738 -0.0748  0.1735
39991W        W43211  17.657  16.282   5.073 -0.2319 -0.0960 -0.0601
39992W        W43212  15.401   5.313   4.912 -0.0811 -0.1205 -0.0021
39993W        W43213   2.459  16.877   1.268  0.1029 -0.1385  0.1203
39994W        W43214  16.741   7.507  14.446 -0.0016 -0.0010  0.1440
39995W        W43215  18.253  16.547   4.205  0.1906 -0.4341 -0.1109
39996W        W43216  15.898   2.747   3.085  0.0005  0.1457  0.2568
39997W        W43217  10.175   0.600   8.967  0.2965 -0.1513 -0.0838
39998W        W43218   6.252   1.609  10.234 -0.1372  0.0083 -0.1325
39999W        W43219   8.529   3.254   4.428  0.0692 -0.1174  0.1073
40000W        W43220  13.586   0.044   2.478  0.2321 -0.0964  0.1080
40001W        W43221  11.256   2.758  15.652 -0.0988  0.1017 -0.2526
40002W        W43222  15.705  11.943  13.408  0.3100 -0.4136 -0.0489
40003W        W43223   4.305  15.005   4.920  0.1753 -0.1705  0.0457
40004W        W43224  15.098  13.544  11.117 -0.1556  0.1454  0.0248
40005W        W43225  14.241   1.274  10.254  0.1417  0.1136  0.1358
40006W        W43226   1.621  16.989   3.300  0.0973 -0.2925 -0.1839
40007W        W43227  17.446   9.930  11.029 -0.3494  0.0115  0.1420
40008W        W43228   0.044   3.574   1.539  0.0566 -0.1804  0.1373
40009W        W43229   0.126   2.460   7.621  0.1499  0.1607 -0.0130
40010W        W43230   0.458   8.468   2.880 -0.0031 -0.0315  0.1434
40011W        W43231  14.586  12.401   2.365  0.0741  0.2755  0.1695
40012W        W43232  18.044   7.768   8.617 -0.1003  0.0784 -0.2139
40013W        W43233  14.752  15.826   6.179 -0.1432  0.0402  0.2062
40014W        W43234  14.330  15.302   4.459 -0.1865 -0.1096  0.0601
40015W        W43235  15.951   8.300   0.207  0.0558 -0.1125  0.1161
40016W        W43236   4.980  13.518   2.130  0.1135  0.0044 -0.1724
40017W        W43237   4.070   1.473   7.027  0.0022  0.1358 -0.2658
40018W        W43238  17.206  13.143   0.554 -0.0081 -0.2243 -0.0834
40019W        W43239   2.775   5.183   0.389 -0.0027  0.0469 -0.0120
40020W        W43240   7.184  18.006   3.850  0.0429  0.2162  0.1457
40021W        W43241  10.034  13.289  12.201  0.0467  0.1992 -0.2719
40022W        W43242   2.073   0.255   2.837  0.2453  0.0435  0.0847
40023W        W43243  10.842  15.621  16.896  0.3188 -0.0507  0.0625
40024W        W43244  13.442   6.252   8.561 -0.1967  0.0735  0.0207
40025W        W43245  17.315   7.179  10.328  0.3557  0.0893 -0.1908
40026W        W43246  14.671   4.831   2.183  0.0434  0.0434  0.1294
40027W        W43247   5.419   1.785   1.861  0.1823  0.4747  0.0106
40028W        W43248   9.350  18.116   1.305  0.0997 -0.1620  0.1670
40029W        W43249  16.819   3.391   1.573 -0.1719 -0.0756 -0.1650
40030W        W43250  17.380   4.988  12.155  0.1475  0.0021  0.0103
40031W        W43251   9.032   3.980   3.755 -0.0487  0.3071 -0.4084
40032W        W43252   3.385   5.166   2.569 -0.2693  0.0253  0.2852
40033W        W43253  14.175   4.902   2.960 -0.2032 -0.1231  0.1553
40034W        W43254   2.234   2.641   6.509  0.0875 -0.1089  0.1984
40035W        W43255   1.953   0.703   1.531  0.0994  0.2309  0.4246
40036W        W43256   0.338   2.162   6.324 -0.0313 -0.1434  0.0684
40037W        W43257   0.499   1.208   6.729  0.0930 -0.1112  0.3416
40038W        W43258  13.513   4.876   7.934  0.1566  0.1522  0.1042
40039W        W43259  12.795   6.150   9.929  0.1594 -0.1489 -0.1446
40040W        W43260  13.580  14.314  13.040  0.0431  0.2537  0.1876
40041W        W43261   2.493   3.391  16.491  0.1568  0.0865 -0.0453
40042W        W43262  16.336   8.438   2.883 -0.1382  0.0804  0.1690
40043W        W43263  11.817  17.829   4.564  0.2253  0.4550 -0.1555
40044W        W43264  16.635  11.054   3.937 -0.1373  0.1074  0.1636
40045W        W43265   4.695  17.247   3.981  0.0795  0.1501  0.1287
40046W        W43266   4.182   3.560   3.667  0.1901 -0.0058  0.1227
40047W        W43267   9.882   0.281   1.024  0.0172  0.0345  0.3866
40048W        W43268   6.215   9.290   7.330  0.2555  0.0762 -0.2967
40049W        W43269  13.550   2.390  13.484 -0.2951 -0.0750 -0.1937
40050W        W43270   8.409   0.318   2.958 -0.0027  0.1473 -0.1108
40051W        W43271  17.613   0.278   8.367  0.0464  0.0577  0.2951
40052W        W43272   1.098  16.677   0.289  0.2247  0.0317  0.1246
40053W        W43273   2.865   2.142   3.981 -0.2562  0.0342  0.0016
40054W        W43274  15.044   6.540   5.883  0.2312 -0.3537  0.0029
40055W        W43275  16.156   0.874   2.034 -0.0759  0.2161 -0.3013
40056W        W43276  15.059   0.037   5.049  0.1491  0.0489  0.0821
40057W        W43277   6.864   0.792   4.418  0.3590 -0.1501 -0.5044
40058W        W43278  15.461   3.143  11.290  0.1158  0.1696  0.1581
40059W        W43279  16.489   3.346   0.751 -0.1628  0.3207  0.3187
40060W        W43280   1.305  13.155   6.948 -0.1618 -0.2160 -0.0313
40061W        W43281  14.602  17.660   9.134 -0.3007 -0.0822  0.3150
40062W        W43282  13.930   3.282   3.877 -0.2216 -0.1359  0.1571
40063W        W43283   4.767  17.641  10.121  0.0468  0.0677  0.1823
40064W        W43284  13.688   1.738   6.112 -0.0673  0.0325 -0.0034
40065W        W43285   0.285   6.316   9.994  0.0155 -0.1328  0.0632
40066W        W43286   1.379  17.432  15.813 -0.0185 -0.0955  0.1424
40067W        W43287   2.671   4.689   5.904 -0.0485  0.1505  0.1741
40068W        W43288  12.347   2.764   3.905  0.1616  0.0483  0.0784
40069W        W43289  12.197   2.860   5.052  0.0671 -0.1968  0.1660
40070W        W43290  10.877   6.142  10.384  0.0710 -0.0416  0.2171
40071W        W43291   1.902  16.572   5.078 -0.0516  0.0138  0.2023
40072W        W43292   1.891   2.926   1.399  0.2542 -0.0858 -0.0032
40073W        W43293   0.312  17.636   8.147  0.2775 -0.2238 -0.1655
40074W        W43294  10.257   7.889   8.584 -0.1090 -0.0659 -0.2116
40075W        W43295  14.599  17.327   4.600  0.1409 -0.2222  0.2201
40076W        W43296   3.411   2.970   3.873  0.0284  0.0596 -0.1439
40077W        W43297   5.471   5.923  12.674 -0.0399 -0.2327  0.0467
40078W        W43298   0.214  17.217  16.891 -0.2058  0.0131  0.1959
40079W        W43299  10.288   0.300   8.329 -0.0609  0.0668 -0.1921
40080W        W43300  14.075  17.510   6.699  0.0197  0.1017  0.1306
40081W        W43301  11.931   9.713  11.960 -0.0626  0.0738  0.2418
40082W        W43302   1.533   5.019   4.154  0.1804 -0.1162 -0.0135
40083W        W43303   1.476   3.775  18.146 -0.1418  0.0463 -0.0233
40084W        W43304  13.946   4.010   3.459  0.1195  0.0544 -0.1670
40085W        W43305  16.115  14.596   2.114 -0.3390  0.2400  0.0302
40086W        W43306  14.159   0.603   0.010 -0.1504 -0.2280 -0.0652
40087W        W43307  13.731   2.551  16.865 -0.3142 -0.0267 -0.1070
40088W        W43308  15.286   5.193   7.347  0.1742  0.0644  0.3081
40089W        W43309  15.745  11.838   9.424  0.1052  0.0216 -0.2850
40090W        W43310   1.572   5.163   6.234 -0.2754  0.1579 -0.0877
40091W        W43311  15.487   2.344   4.191  0.2418 -0.0963 -0.1153
40092W        W43312  15.759  18.112   7.412  0.0429 -0.1658 -0.2840
40093W        W43313   0.257   3.243  15.280  0.2052 -0.0252 -0.2015
40094W        W43314  17.800  14.104   5.337 -0.0517 -0.0448  0.1860
40095W        W43315  11.354  16.338   2.605 -0.2506  0.0876  0.2168
40096W        W43316   0.407   6.363   3.403 -0.4060  0.2624 -0.1453
40097W        W43317   6.733   0.706   6.444 -0.0454 -0.0404  0.0780
40098W        W43318   2.978   2.881  17.561 -0.0513  0.0018 -0.0012
40099W        W43319   3.439  17.474   8.939  0.2756  0.1623  0.2287
40100W        W43320  16.494   0.260   5.085 -0.2875 -0.0386 -0.1110
40101W        W43321  16.451  12.542   2.348  0.2736 -0.4024 -0.0715
40102W        W43322  15.215   8.073  15.526  0.2918  0.0767  0.1547
40103W        W43323   0.696   1.468   4.236 -0.3603 -0.0843  0.3483
40104W        W43324   7.662  11.598  16.876 -0.1613  0.0464  0.0351
40105W        W43325  12.514   2.107   3.054  0.3149 -0.0549  0.0460
40106W        W43326  10.951  16.943   6.185  0.3241  0.0040  0.1606
40107W        W43327  17.123   3.797   4.615 -0.1063 -0.2367  0.3845
40108W        W43328   9.792   3.652   3.155 -0.2470 -0.0431  0.0357
40109W        W43329   2.228  11.368   6.771  0.2091 -0.1613 -0.1067
40110W        W43330  10.997   1.161   5.916 -0.0743  0.1328 -0.0769
40111W        W43331  11.891   8.908   8.301  0.1064  0.3135 -0.1296
40112W        W43332   3.885   4.197   7.853  0.1693 -0.0672  0.3721
40113W        W43333   3.984   9.249   0.018  0.1673  0.2985  0.0884
40114W        W43334  13.340  15.215   2.703 -0.0698 -0.4096 -0.0790
40115W        W43335  12.750   3.457   5.993  0.0009  0.0448 -0.0726
40116W        W43336  10.858   5.631   4.262 -0.1525  0.0121 -0.1432
40117W        W43337  15.429   4.074   8.828  0.0723 -0.0042  0.3630
40118W        W43338   7.706   4.653   2.828  0.1348  0.2158  0.0226
40119W        W43339  15.569  16.413   4.662 -0.2862  0.2381 -0.1164
40120W        W43340  11.131   9.323   5.255  0.0857 -0.2053 -0.1971
40121W        W43341  15.341   6.570   0.194  0.1923  0.1593  0.3656
40122W        W43342  13.520   4.595  13.773  0.1599 -0.0003  0.3501
40123W        W43343   2.294   1.966   4.546 -0.0907 -0.2938  0.0579
40124W        W43344   5.840   6.139   0.021  0.1237 -0.0412  0.1227
40125W        W43345   3.634   5.295   8.000  0.1365  0.0168  0.0797
40126W        W43346  17.896   2.334   2.240 -0.2287 -0.2157 -0.2589
40127W        W43347   3.004   3.662   3.829 -0.2865 -0.1281 -0.0188
40128W        W43348   5.346   3.129   0.783 -0.2501  0.1760  0.0474
40129W        W43349   5.889   6.942   2.855 -0.0322 -0.0317  0.0707
40130W        W43350  10.673  15.428  14.489 -0.1146  0.2070  0.0471
40131W        W43351  17.528  15.620   4.124 -0.1323 -0.1618  0.3037
40132W        W43352   0.172   1.019   4.649  0.0707  0.1094 -0.3131
40133W        W43353   1.121   2.265   5.724 -0.1843  0.0338  0.0492
40134W        W43354  13.185  15.399   9.607 -0.2770 -0.1162  0.2126
40135W        W43355   6.183   7.201   5.605  0.2837  0.2683  0.1837
40136W        W43356  17.271  15.162   6.076 -0.1959  0.1414  0.1967
40137W        W43357   3.019  18.183   5.390  0.0442  0.0008  0.0900
40138W        W43358  16.366   4.810   7.238 -0.0068 -0.0698 -0.2723
40139W        W43359  14.864   4.800  15.756  0.0822  0.1319 -0.2525
40140W        W43360  12.305  14.419   3.885 -0.0829 -0.1166  0.0397
40141W        W43361  12.896  17.733   9.073 -0.1889 -0.0065 -0.1445
40142W        W43362  14.227   3.157   9.329 -0.1736 -0.0457  0.0142
40143W        W43363  15.920   1.805   8.693  0.3363  0.1266 -0.1310
40144W        W43364  15.943   7.939   2.055  0.1183  0.1557  0.0578
40145W        W43365   0.092   8.630   0.097 -0.1571  0.0252  0.1874
40146W        W43366  15.278   4.682   0.954 -0.0741  0.0936 -0.1051
40147W        W43367   7.215   6.927   4.640 -0.0155 -0.1836  0.1212
40148W        W43368   0.677   6.160   5.232 -0.1828 -0.0879  0.0221
40149W        W43369  17.427   2.146   3.696 -0.0202 -0.0553  0.0853
40150W        W43370   2.155   0.135   5.879  0.1959  0.3509 -0.3968
40151W        W43371  15.987   9.626   6.669  0.1416 -0.0268  0.1229
40152W        W43372  16.433   3.563   6.694 -0.0627  0.1701  0.0746
40153W        W43373  18.022  18.110   1.157 -0.0651  0.0326  0.2115
40154W        W43374  16.727  10.767   6.912 -0.1149  0.0563  0.5302
40155W        W43375  14.654  14.376   2.157 -0.1516  0.1361  0.4626
40156W        W43376   9.862   2.296   5.082 -0.1079  0.0177  0.0349
40157W        W43377  17.176   3.789  14.934  0.1242 -0.1109 -0.0586
40158W        W43378  15.844   7.444   4.990 -0.1541 -0.0643  0.1779
40159W        W43379  15.767  14.104   8.626 -0.0056  0.1550  0.2476
40160W        W43380   1.257   3.105  10.997  0.0114 -0.3131 -0.3060
40161W        W43381  15.562  10.087   1.682  0.1521  0.1462  0.1965
40162W        W43382   0.186   5.426   3.283  0.1141  0.0054  0.3972
40163W        W43383  10.598  17.690   3.088  0.1032 -0.3085  0.1202
40164W        W43384   6.135   1.823   8.601 -0.1484  0.1884  0.3435
40165W        W43385  14.280   2.339  11.086  0.0515 -0.1017 -0.0489
40166W        W43386   5.301  15.860   6.326  0.0526  0.1815  0.1888
40167W        W43387  15.375   2.806   6.186 -0.0728  0.0804  0.1745
40168W        W43388  14.132  13.277   3.559 -0.1004  0.1876  0.0294
40169W        W43389  15.651  12.759  10.149  0.0791 -0.5057 -0.2480
40170W        W43390  14.795   0.094   6.533 -0.1161 -0.4989 -0.1046
40171W        W43391   9.234  17.775   9.329  0.1108  0.1527 -0.1392
40172W        W43392  12.548   1.397   7.396 -0.0394 -0.3530 -0.2645
40173W        W43393  17.852   3.449   6.777 -0.0325  0.0392 -0.1733
40174W        W43394  11.333   2.449   8.978  0.2960 -0.1231  0.2797
40175W        W43395  13.493  15.561  12.647  0.2681 -0.2326 -0.0304
40176W        W43396   3.305   6.451   3.195  0.0019 -0.0454  0.0787
40177W        W43397   4.768   1.814  10.655  0.2206 -0.3920  0.1047
40178W        W43398  15.410   3.782   8.057  0.0694 -0.0713  0.1088
40179W        W43399   1.316   4.102   7.265 -0.0149 -0.0351 -0.1358
40180W        W43400  15.369   3.729  14.442  0.4371  0.3652 -0.1966
40181W        W43401  14.324  16.144   7.957  0.1649  0.1647  0.1269
40182W        W43402  16.408  17.451   8.430  0.1945  0.1485  0.0545
40183W        W43403   7.185  13.698  14.354  0.1287  0.3759 -0.2573
40184W        W43404  16.644   2.512  10.464  0.1699 -0.2124  0.1138
40185W        W43405  17.751  12.045   4.702 -0.0506  0.0575  0.2139
40186W        W43406  15.927   0.866   7.355  0.0633 -0.0670  0.1462
40187W        W43407   4.196   0.954  13.772 -0.2835 -0.1981 -0.1855
40188W        W43408  14.974   8.631  12.757 -0.2107 -0.0278  0.1370
40189W        W43409   2.964   6.523   8.931  0.1519  0.0681 -0.0902
40190W        W43410  14.458   1.106   6.963 -0.1290  0.2248  0.1981
40191W        W43411  13.680   4.417  15.179  0.1113  0.2143  0.0276
40192W        W43412   1.156  17.729   7.551  0.3009  0.3465  0.2181
40193W        W43413   6.133  18.125  10.723  0.0819  0.0880 -0.1308
40194W        W43414   3.067   3.063  13.497  0.0412  0.1467 -0.2325
40195W        W43415   0.144   4.410   1.869 -0.1924 -0.0572 -0.3206
40196W        W43416   4.749  16.711   8.762  0.3312  0.1227 -0.2644
40197W        W43417   2.530   1.129   1.885  0.0562  0.1726 -0.0120
40198W        W43418  15.128   2.874   8.565 -0.1083 -0.1433  0.1372
40199W        W43419  15.512   6.011   9.982  0.2430 -0.2750  0.0611
40200W        W43420  14.513   9.430  10.579 -0.0209  0.2810 -0.1160
40201W        W43421  16.405   4.416  11.996  0.0567  0.2798 -0.0415
40202W        W43422   8.698  17.462  12.188  0.2389 -0.1931 -0.1821
40203W        W43423   1.872  15.054  10.038 -0.0971  0.0676  0.0503
40204W        W43424   2.380   2.563  10.037 -0.0063  0.1838  0.3685
40205W        W43425  17.969   0.416   6.089  0.0765  0.0119 -0.0728
40206W        W43426   6.764   1.542   6.493 -0.3737 -0.0910 -0.0380
40207W        W43427  10.490  15.516   7.840 -0.1770 -0.0003  0.0471
40208W        W43428   1.751   2.423  11.347  0.0407  0.1750  0.3313
40209W        W43429  12.714   6.073  11.734 -0.0262 -0.1874 -0.0696
40210W        W43430   1.952   7.261   1.890 -0.1800  0.2884 -0.0570
40211W        W43431  16.590   4.192   8.302 -0.3380  0.2247 -0.1317
40212W        W43432   4.477   0.425  11.890  0.1944 -0.0150 -0.3293
40213W        W43433   7.201  16.108  11.325  0.3199  0.2261  0.1723
40214W        W43434  13.924  16.241   5.501 -0.1464 -0.0516 -0.1834
40215W        W43435  11.745  16.076  13.601  0.0181  0.2885 -0.1383
40216W        W43436   5.104   6.372  15.499  0.1786 -0.2133  0.0584
40217W        W43437   7.284   4.392   1.052 -0.0269  0.0921  0.1131
40218W        W43438  14.373   5.580   6.301  0.0949  0.1260 -0.2006
40219W        W43439  10.890   3.309   9.761 -0.1696  0.0126 -0.1171
40220W        W43440  17.916  10.704   7.048  0.2056  0.0368  0.2968
40221W        W43441  14.921  12.899   5.824  0.3488 -0.2224  0.3731
40222W        W43442   1.397  12.672   6.050  0.0172 -0.2727 -0.2088
40223W        W43443  18.016   9.383   8.116 -0.1676  0.0046 -0.1120
40224W        W43444  18.015   3.769   1.924 -0.0048  0.1595  0.0083
40225W        W43445   1.620   3.121  12.993 -0.0883 -0.0328  0.1232
40226W        W43446   9.178  13.969  10.224  0.3006  0.1125 -0.2187
40227W        W43447   7.225   2.353  12.631 -0.0359  0.0096 -0.0211
40228W        W43448  10.070  15.217   3.497 -0.0399 -0.0242 -0.1933
40229W        W43449  16.422   6.438  10.544  0.0997  0.1189 -0.0660
40230W        W43450  17.675  12.193   9.439  0.1493 -0.2222  0.2669
40231W        W43451  17.015  18.073  10.200 -0.0118 -0.1558 -0.2188
40232W        W43452  11.870   2.386   9.855  0.1266 -0.1573 -0.1641
40233W        W43453   0.963   3.062   9.825 -0.1926 -0.0697  0.0663
40234W        W43454  17.016   0.488  16.384  0.0003  0.0608  0.3084
40235W        W43455  15.997   5.422   3.650  0.0887 -0.0020 -0.0285
40236W        W43456  17.224   5.843  13.752 -0.0837  0.1837 -0.2013
40237W        W43457   2.204  16.433  11.137  0.0467 -0.1469  0.1985
40238W        W43458  16.711   0.713   4.957 -0.1118 -0.0739 -0.4219
40239W        W43459  16.343  14.301   9.376 -0.3422  0.2221  0.1442
40240W        W43460  16.232   1.244  10.169  0.0026 -0.3380 -0.1679
40241W        W43461  15.997  13.926   5.874 -0.0772 -0.0197  0.0137
40242W        W43462   5.068  16.400  13.031  0.2565  0.1882  0.1126
40243W        W43463  17.752  12.515   6.932  0.0759  0.0288  0.0947
40244W        W43464  18.009   1.710  14.343  0.1515  0.0406 -0.0009
40245W        W43465  16.913  17.243   6.135  0.0974  0.2511 -0.0706
40246W        W43466  16.283   3.440  11.432  0.1459  0.0648 -0.2240
40247W        W43467  13.946   5.305   7.019  0.1313  0.1190  0.0619
40248W        W43468  17.367   0.024   8.812 -0.0620 -0.1641  0.0814
40249W        W43469  11.465   2.916   2.416 -0.0845  0.0486 -0.2745
40250W        W43470  12.976  14.681  11.268 -0.2413 -0.0037  0.0529
40251W        W43471  12.097   0.756   5.389 -0.0434 -0.0448 -0.1069
40252W        W43472  15.710  11.230   2.493 -0.0576  0.0680  0.1096
40253W        W43473   1.737   0.947   6.619 -0.1860 -0.3610  0.0474
40254W        W43474  15.194   8.985   0.764 -0.1090 -0.1763  0.0989
40255W        W43475  16.667   4.048   9.728 -0.1222 -0.1019  0.3212
40256W        W43476  14.737   5.189   9.151 -0.0902 -0.3716  0.0083
40257W        W43477   4.978   4.826  11.456  0.0082  0.2608 -0.1656
40258W        W43478   0.641   5.358   6.095 -0.3068 -0.2387  0.0865
40259W        W43479  11.609   4.499  11.549 -0.2615 -0.4388 -0.2494
40260W        W43480  12.466  16.476  10.445 -0.0401  0.0714  0.0153
40261W        W43481   0.073  17.505  12.090  0.2057 -0.1826 -0.1066
40262W        W43482  16.843   2.710   2.765  0.2636  0.2506 -0.1055
40263W        W43483   2.387   4.222  12.501 -0.0115 -0.0841  0.1289
40264W        W43484  14.515  13.972  15.225 -0.0864  0.0189 -0.0579
40265W        W43485   5.279  13.645   3.144 -0.2040  0.0425  0.0258
40266W        W43486  11.160   5.348   3.401 -0.2266 -0.0593  0.0248
40267W        W43487  16.982   2.445   0.624 -0.1678 -0.1543  0.1840
40268W        W43488  17.927   1.147   3.366 -0.3414 -0.3436  0.1176
40269W        W43489   0.085  11.561   9.082  0.0138  0.1564 -0.0838
40270W        W43490  11.203   0.659  12.570 -0.3664  0.0142  0.2705
40271W        W43491   2.632   0.204  12.380  0.3428  0.0230 -0.3962
40272W        W43492  15.787   2.600  13.432  0.0087  0.3383  0.5925
40273W        W43493  15.754   0.814   6.499  0.1586 -0.1908 -0.1117
40274W        W43494  13.070   0.291   5.599  0.2835 -0.2475  0.2990
40275W        W43495  14.571   2.062  10.778 -0.1583 -0.1166  0.2427
40276W        W43496   7.105  14.374   6.135  0.1849  0.0855  0.0718
40277W        W43497  13.669  13.627  13.702 -0.2715  0.0425 -0.2371
40278W        W43498   9.442  17.372   8.096 -0.1815 -0.0757 -0.0958
40279W        W43499  16.167  18.093   4.382  0.1604  0.0821  0.0399
40280W        W43500   1.172  17.177   3.542 -0.1000 -0.0216 -0.1752
40281W        W43501   0.545   2.524  10.399 -0.2162 -0.2341  0.1266
40282W        W43502  12.429  14.747   8.822 -0.0921  0.1675  0.0921
40283W        W43503   9.770   8.398   5.229  0.0628 -0.0225 -0.1503
40284W        W43504  11.364   1.335   4.532 -0.1918 -0.3484 -0.1861
40285W        W43505  16.954  17.803  12.687  0.3482 -0.0888 -0.3638
40286W        W43506  15.116   2.260   9.779 -0.1306 -0.2617 -0.0774
40287W        W43507   2.261  16.627  10.027 -0.4215 -0.1085 -0.1477
40288W        W43508  11.686   9.034  17.654  0.2565 -0.2970 -0.1312
40289W        W43509  16.151  14.987  10.974 -0.1375 -0.3378 -0.0852
40290W        W43510  11.274   5.718  14.702 -0.1056  0.0633  0.0973
40291W        W43511  16.945  16.293   5.153 -0.2452 -0.2128  0.1183
40292W        W43512  10.516  17.689   7.013 -0.1570  0.0007  0.1468
40293W        W43513  13.806   3.061   2.044 -0.1756  0.1239 -0.1053
40294W        W43514  13.836   1.410   9.535  0.0945  0.0286  0.1332
40295W        W43515   1.864  17.545   8.383 -0.1065 -0.1659 -0.1537
40296W        W43516   1.852   9.298   8.180  0.0261  0.1460  0.1733
40297W        W43517  13.167   6.679   5.865  0.1229 -0.0655  0.0908
40298W        W43518   2.519   5.223  17.827  0.0396  0.2952 -0.0355
40299W        W43519  14.256   2.727  15.464  0.0583  0.2347 -0.0146
40300W        W43520  15.496   2.187  10.391 -0.0202  0.0509  0.1915
40301W        W43521  10.664  13.837   4.395  0.2219  0.1702  0.2268
40302W        W43522  16.036  11.481   8.444  0.0668 -0.1692 -0.1969
40303W        W43523  17.211   8.166   9.268  0.0279 -0.0955 -0.3401
40304W        W43524  11.674   1.614   8.647  0.1935 -0.0287  0.0964
40305W        W43525  17.695  16.812   5.664  0.0292  0.1581  0.1158
40306W        W43526  12.024  18.265   4.826  0.1761  0.1968  0.0304
40307W        W43527  18.093   1.833  13.114  0.3114 -0.0020  0.2241
40308W        W43528   1.215   1.594   4.919  0.1169 -0.0874  0.0874
40309W        W43529   3.734   0.561   5.957  0.0668 -0.1207 -0.0106
40310W        W43530  17.420   1.185   9.606  0.3819 -0.2445  0.2190
40311W        W43531  17.663   0.671  18.000 -0.0896 -0.1755 -0.0293
40312W        W43532  18.256  12.332   5.966 -0.0084  0.2900  0.0254
40313W        W43533   2.226  15.944   7.440  0.0167  0.0107 -0.0711
40314W        W43534  13.627   6.529   7.949 -0.0692  0.0493  0.1153
40315W        W43535  17.592  12.079  11.193  0.1462 -0.0675 -0.0867
40316W        W43536   1.807  16.871  16.396 -0.3629 -0.0465 -0.0353
40317W        W43537  15.909   1.962  11.869  0.2587 -0.0796  0.0071
40318W        W43538   3.149  17.364  13.787  0.0738  0.0587 -0.0442
40319W        W43539   1.834  13.949   5.953  0.0960  0.0374  0.1936
40320W        W43540  15.011  17.047  12.597  0.3760  0.2339  0.0560
40321W        W43541   1.131   5.878  10.323 -0.0347  0.0753  0.0485
40322W        W43542  15.401  16.117  10.695  0.0552  0.0171 -0.3915
40323W        W43543   8.746  13.882   5.835  0.0842  0.0901  0.0131
40324W        W43544   1.324  10.402  10.793  0.2760  0.2277 -0.0607
40325W        W43545  16.003  18.181  10.809 -0.0653 -0.0657  0.2729
40326W        W43546   8.817   9.047  12.361 -0.2738  0.3760 -0.0800
40327W        W43547   4.775  18.266   2.356  0.0294  0.1184  0.0774
40328W        W43548   2.754   6.642   5.965  0.3431 -0.1767  0.3006
40329W        W43549  17.781   6.805   2.916 -0.1986  0.3485 -0.0573
40330W        W43550  17.193   6.810  15.729  0.4699 -0.1186  0.4285
40331W        W43551  15.207   5.596   2.207  0.1238 -0.1081 -0.5424
40332W        W43552  18.024   2.228   9.756  0.0609  0.0070  0.0642
40333W        W43553   0.684  13.256   7.395 -0.1354  0.1250  0.3641
40334W        W43554  16.997   5.841  10.235 -0.2180 -0.1226  0.1939
40335W        W43555   4.652  17.930   5.535  0.0586 -0.0992 -0.0216
40336W        W43556  18.053   1.546   2.461  0.0719 -0.1030  0.0645
40337W        W43557  18.120   6.527   8.060 -0.0165  0.1487  0.3118
40338W        W43558  15.295   3.160   9.235 -0.0360  0.3440 -0.1150
40339W        W43559   1.523  18.032  14.921  0.0129  0.0913  0.1278
40340W        W43560  15.895   3.393   6.780  0.1179  0.0142 -0.0072
40341W        W43561  16.430  18.165   9.591  0.0230 -0.1638  0.1021
40342W        W43562   1.515  13.867   7.632  0.0998  0.3174 -0.1034
40343W        W43563  15.266  18.134  11.199 -0.2773  0.0411 -0.1935
40344W        W43564   0.974  17.611   8.997 -0.1408 -0.0646  0.0251
40345W        W43565   1.069  13.216  10.078 -0.3012 -0.1487  0.3349
40346W        W43566  16.310  17.395  10.068  0.2157 -0.1361  0.2267
40347W        W43567   4.225  15.101  10.053 -0.0807  0.1935  0.0489
40348W        W43568  11.614   2.354   8.149 -0.3145 -0.2546 -0.2591
40349W        W43569   0.641   1.071   4.556 -0.1655  0.1255  0.1056
40350W        W43570  15.545  15.491  10.074 -0.0793 -0.2770  0.0553
40351W        W43571   7.219   7.848   8.608  0.2512 -0.1240 -0.0209
40352W        W43572  12.329  11.323   6.671  0.0963  0.0509  0.2746
40353W        W43573   3.165  15.460   4.580 -0.1166 -0.2035 -0.3330
40354W        W43574   3.332   6.068  12.831 -0.0268  0.0138 -0.1410
40355W        W43575   2.027  16.305   3.004 -0.1295 -0.2769 -0.0417
40356W        W43576   2.349  14.297  10.266  0.1119  0.0522 -0.2650
40357W        W43577   0.571  15.608   4.825  0.1617 -0.0685 -0.1084
40358W        W43578   2.171   6.199  17.776  0.0017 -0.0949  0.1954
40359W        W43579  17.773   2.964   7.097 -0.0466 -0.0537  0.2359
40360W        W43580  16.421   2.790   2.316 -0.0504  0.2382  0.0563
40361W        W43581  16.225   1.624   2.325  0.0100  0.0268 -0.2390
40362W        W43582   7.308  15.103   2.988 -0.0484  0.2112  0.0570
40363W        W43583  12.698  15.836  12.689 -0.1384 -0.3384 -0.1211
40364W        W43584  13.225   0.825   8.184 -0.2728 -0.0213  0.1225
40365W        W43585  14.526   9.019  14.334  0.0215  0.0573 -0.0005
40366W        W43586  11.362   0.182  12.643 -0.0252 -0.2253 -0.1152
40367W        W43587   8.451   1.600   9.423  0.0040 -0.2412  0.0922
40368W        W43588  16.356   1.008   2.813  0.0031  0.2598 -0.2608
40369W        W43589  13.948   0.975   9.031 -0.1066 -0.0083  0.1633
40370W        W43590  14.031  15.260   9.758 -0.3831 -0.1009  0.1181
40371W        W43591   2.098   6.172   7.748  0.1606 -0.0123  0.1724
40372W        W43592   0.321   0.302  17.935  0.0712  0.2732  0.0776
40373W        W43593   1.916   4.166  13.328  0.1526  0.0361 -0.0654
40374W        W43594   4.565   1.449   8.991  0.1228 -0.2056 -0.0049
40375W        W43595  13.636   1.087  11.665 -0.0789 -0.1961 -0.1304
40376W        W43596  17.805   2.557  16.334  0.0242 -0.0701  0.1464
40377W        W43597   0.582   2.791   4.472 -0.3490 -0.0541  0.0729
40378W        W43598  16.021  13.559   7.657 -0.1405  0.1196 -0.1899
40379W        W43599  14.548  18.053   2.418  0.4267  0.0509  0.0834
40380W        W43600  17.115   1.860  17.619 -0.3482  0.1739 -0.4848
40381W        W43601  13.443  15.433   6.871  0.0134  0.3148  0.2040
40382W        W43602   0.410   3.386   8.284 -0.1598  0.2605  0.3512
40383W        W43603  17.774  15.436   6.961 -0.0006 -0.1146 -0.1371
40384W        W43604   5.800   2.990  12.226  0.0303  0.0237 -0.2375
40385W        W43605   4.276   1.255   8.625  0.0343 -0.1925  0.0146
40386W        W43606  16.433   6.141   6.647 -0.0492  0.0296  0.0293
40387W        W43607   2.844  15.640  14.604  0.1485 -0.3375  0.0712
40388W        W43608   0.394   7.362   6.699 -0.1195 -0.2473 -0.0887
40389W        W43609   3.632   3.672   3.604  0.1821  0.3185  0.2096
40390W        W43610  18.169  17.579   3.092  0.1512 -0.0155  0.4176
40391W        W43611   1.649   4.548   4.006 -0.1210  0.0302  0.0229
40392W        W43612  12.088   7.063   9.316  0.0597  0.0298 -0.1110
40393W        W43613  15.537   0.780   0.868  0.3600 -0.0171 -0.0051
40394W        W43614  15.849  14.920   9.030 -0.0592 -0.3445  0.0782
40395W        W43615   0.936  11.337   4.154 -0.0216  0.0358 -0.0969
40396W        W43616  17.716  13.543  10.744 -0.0441  0.1730  0.2611
40397W        W43617  17.733  17.166  13.197 -0.0051  0.0273 -0.3112
40398W        W43618  14.046   2.243  17.197 -0.1042  0.2145  0.0285
40399W        W43619  18.071   6.668  13.817  0.3501  0.1557  0.2446
40400W        W43620   2.346  10.419   0.122 -0.5009  0.1838  0.0504
40401W        W43621  14.935   6.242  15.617 -0.1091 -0.3050 -0.1619
40402W        W43622  11.533   1.280  10.342  0.0781  0.3277  0.0231
40403W        W43623  11.668   2.975   7.412 -0.1066 -0.0824  0.1713
40404W        W43624   4.918   9.204  17.483 -0.0505 -0.1771 -0.0063
40405W        W43625  18.227  16.800   5.877  0.2152  0.3054  0.1449
40406W        W43626   1.748   0.793   7.999  0.1170 -0.1290 -0.2059
40407W        W43627  13.679  17.177   7.581  0.0114 -0.0894 -0.1020
40408W        W43628   1.813   4.182   7.527  0.1319 -0.0126 -0.1056
40409W        W43629  17.440   5.923   3.695 -0.1499 -0.0077 -0.1304
40410W        W43630  11.023   1.477  12.799 -0.0358 -0.3972  0.3196
40411W        W43631  18.232  17.507   5.540  0.1981 -0.0580  0.1190
40412W        W43632   0.525   1.439   5.535  0.1647  0.0554 -0.0282
40413W        W43633  15.857  17.708   7.663  0.3815  0.0382 -0.1141
40414W        W43634  17.344  14.023   5.211  0.2317 -0.1856  0.1452
40415W        W43635   3.527   3.205  12.517  0.2300  0.0267 -0.2915
40416W        W43636  17.544  17.671   4.948  0.0350  0.2199  0.0336
40417W        W43637  13.462  15.499   5.987  0.1693  0.0919  0.3762
40418W        W43638  12.657   7.129   9.569  0.1466  0.2678  0.1200
40419W        W43639  12.807   0.004   5.952  0.2247 -0.0792  0.1158
40420W        W43640  15.489   3.121   7.582  0.3117 -0.0773 -0.0020
40421W        W43641   2.187   9.396   7.506  0.0196 -0.3345 -0.2150
40422W        W43642   1.980  18.042  10.601 -0.2154 -0.0799  0.2084
40423W        W43643  14.479   1.059   7.501 -0.3725  0.1188  0.0285
40424W        W43644  11.021   2.658   4.102  0.3702 -0.1201  0.0206
40425W        W43645  11.118   2.912   7.514  0.0063 -0.1145  0.0411
40426W        W43646   8.031   2.220  10.176  0.1208 -0.1067  0.0659
40427W        W43647  16.211   1.468  12.598  0.1100  0.2800 -0.2583
40428W        W43648  15.721  14.715   7.195 -0.1610  0.3272 -0.2148
40429W        W43649  13.821   4.286   8.639 -0.2150  0.2039 -0.2528
40430W        W43650   0.285   3.324   6.206 -0.1298  0.0612 -0.1509
40431W        W43651  15.650   6.966  10.122  0.1110  0.3023  0.0514
40432W        W43652  15.976  14.274   7.225 -0.0053  0.1508  0.2859
40433W        W43653   4.036  15.576  10.454  0.1184  0.2655  0.4288
40434W        W43654  14.362   1.085   5.488 -0.1777 -0.2726 -0.0970
40435W        W43655   4.971   1.540   9.247  0.2165  0.0166  0.1728
40436W        W43656   1.906  13.569   7.934 -0.3692  0.1881  0.1184
40437W        W43657   6.472  17.976  13.218  0.1218 -0.1779  0.0354
40438W        W43658  15.534   2.247  17.240 -0.0512  0.0728 -0.0527
40439W        W43659  18.044   1.677   9.614  0.0216 -0.0071  0.0231
40440W        W43660   1.523   1.962   4.172  0.1373 -0.1290  0.0567
40441W        W43661  16.443   1.925   3.832 -0.1303  0.2242 -0.1224
40442W        W43662   3.022   0.419   5.440  0.1838  0.1823  0.3163
40443W        W43663  16.343  14.483   6.429 -0.0993  0.0269 -0.0702
40444W        W43664   6.294   0.230   2.977  0.2473  0.2779 -0.0755
40445W        W43665   3.150  10.101   5.981 -0.0834  0.0784  0.0303
40446W        W43666  16.585   4.178  13.135 -0.0428 -0.2789  0.0431
40447W        W43667   3.414  17.794   9.411 -0.2198 -0.2159  0.3592
40448W        W43668  13.010   1.553   7.574 -0.2518 -0.2646  0.1118
40449W        W43669  14.324  16.883   8.942 -0.0741 -0.2874 -0.0016
40450W        W43670  11.056   1.345   9.614 -0.0497 -0.2280 -0.0983
40451W        W43671  15.333  10.199   2.592 -0.2322 -0.1370 -0.0055
40452W        W43672   9.026   3.240  12.570 -0.0105 -0.2453  0.3075
40453W        W43673  13.990   2.803   6.312 -0.0125 -0.2039 -0.1721
40454W        W43674   0.891   7.131   3.371 -0.3461 -0.0032 -0.1104
40455W        W43675  16.928   4.198   6.214  0.2661 -0.0748  0.0790
40456W        W43676   4.029  11.591   0.437  0.1507  0.0685 -0.0733
40457W        W43677   0.692  14.366   6.476 -0.1241  0.1289 -0.0174
40458W        W43678  15.397   3.296   8.578 -0.0364  0.0628  0.3632
40459W        W43679   0.931   3.113  10.336 -0.0886 -0.3145  0.1318
40460W        W43680  14.118  14.183  12.956 -0.0688 -0.0916 -0.0252
40461W        W43681   1.598   0.055   5.921  0.0510 -0.0021  0.0168
40462W        W43682  15.649  16.755  11.166  0.0288  0.2923  0.2719
40463W        W43683   1.987  17.377  16.751  0.1080 -0.1641  0.0230
40464W        W43684   2.643   3.438  10.121  0.0280 -0.2047 -0.0655
40465W        W43685  17.306   1.479   8.630 -0.1572 -0.0973 -0.0067
40466W        W43686  17.433  15.718   6.066  0.0734  0.0772  0.0529
40467W        W43687  17.885   1.861  10.078 -0.0257 -0.3234 -0.2260
40468W        W43688  17.589   3.286   5.980 -0.0940  0.0265 -0.0606
40469W        W43689   3.719   1.560  11.732 -0.0705 -0.0025 -0.1624
40470W        W43690   4.293   6.793   6.839 -0.0173 -0.0998  0.1450
40471W        W43691  17.735   9.225   5.205  0.0344 -0.1081  0.2480
40472W        W43692  13.487  14.022   7.951  0.1995  0.0907 -0.1752
40473W        W43693  14.744  17.232   5.924 -0.1536 -0.0840 -0.1622
40474W        W43694   9.423   1.946   6.440  0.3068 -0.1742  0.2459
40475W        W43695  13.573   0.857   7.145 -0.0344  0.2680 -0.0866
40476W        W43696  16.169  12.183   6.179 -0.2431 -0.1579  0.3159
40477W        W43697  14.640   4.195  13.885  0.0311 -0.0510 -0.3268
40478W        W43698  15.490   4.465  15.444  0.0092 -0.1659  0.0308
40479W        W43699  16.366   1.131   4.303  0.1649 -0.1769  0.1320
40480W        W43700  15.918   6.954   1.852  0.2666  0.0505  0.0913
40481W        W43701   1.053   7.404  17.677  0.1772 -0.1106 -0.1843
40482W        W43702   1.977   1.575  16.445  0.1328 -0.1750  0.2414
40483W        W43703  10.561   1.884   4.616  0.0026 -0.1347 -0.0851
40484W        W43704  15.486   2.988   5.690 -0.0137 -0.0637  0.2869
40485W        W43705  17.512  10.235  13.341 -0.3161 -0.0023  0.1670
40486W        W43706  13.148   1.863  12.725 -0.0922  0.1229 -0.0558
40487W        W43707  17.042  17.961   6.992  0.0456 -0.1740 -0.2894
40488W        W43708  11.923  16.341  14.856  0.0822 -0.1158  0.2210
40489W        W43709  18.261   3.466  14.789  0.0638 -0.0223  0.1659
40490W        W43710   7.108  15.887  11.926 -0.3175  0.3012  0.0359
40491W        W43711  12.124   0.127  11.550  0.0781 -0.1670  0.0063
40492W        W43712  18.050  13.908   8.455  0.3817 -0.2186 -0.0128
40493W        W43713  14.050   2.417  12.475  0.0311 -0.3623  0.1980
40494W        W43714  16.338   0.737   6.438  0.2743  0.0078 -0.1481
40495W        W43715  12.364   3.173   1.296  0.2553  0.0501 -0.0653
40496W        W43716  16.818  15.756   8.485  0.1280  0.1535 -0.2083
40497W        W43717  13.945  17.984  10.756  0.1728 -0.0319  0.1841
40498W        W43718  12.955  17.896   9.951 -0.2554  0.1080  0.2169
40499W        W43719   0.138   3.977   9.055  0.0206  0.1263  0.0323
40500W        W43720  13.913  15.308  16.883  0.0111  0.3224  0.0114
40501W        W43721  14.419   4.283   9.299 -0.0096 -0.2043  0.2852
40502W        W43722   4.235   7.774   0.422  0.1684  0.5190  0.0709
40503W        W43723  13.316   2.433  11.459  0.0568  0.0273 -0.1045
40504W        W43724  14.233   8.800   6.916 -0.3585  0.0007  0.1434
40505W        W43725   0.093   3.030   5.250 -0.0374 -0.1396  0.0403
40506W        W43726   0.333   6.365   4.829  0.1213 -0.0230 -0.0509
40507W        W43727  12.686  12.294   5.657  0.1166  0.0369 -0.0901
40508W        W43728  13.141   7.082  11.048 -0.0085  0.3558  0.0642
40509W        W43729   2.583   9.199   8.535 -0.0978 -0.1336 -0.0132
40510W        W43730   0.904   0.088   5.908 -0.2122  0.2625 -0.1830
40511W        W43731  14.618  15.763   4.327 -0.1776  0.0521  0.2107
40512W        W43732  13.372   3.001  10.031  0.1265 -0.1190  0.0078
40513W        W43733  13.916   1.565   1.682 -0.2824  0.0555 -0.1446
40514W        W43734  12.140   5.595   2.461  0.2598 -0.1089  0.1358
40515W        W43735  11.494  15.688   9.021  0.0417  0.1146  0.0299
40516W        W43736   0.476  14.547   4.205 -0.0671  0.1632 -0.1353
40517W        W43737  16.908  11.810   5.628 -0.2697  0.3165  0.2356
40518W        W43738   1.203  15.272   3.543  0.3192 -0.2269  0.5266
40519W        W43739   6.786   4.952  13.018  0.1301 -0.0008 -0.1918
40520W        W43740  17.224   6.690  10.531 -0.1468  0.1032 -0.1067
40521W        W43741  16.010  15.892  11.365  0.0718  0.0910  0.2006
40522W        W43742   7.371  12.491   3.948 -0.2097 -0.0622  0.3639
40523W        W43743   0.222   4.343   9.442  0.0101 -0.2891  0.1671
40524W        W43744  16.622   3.696   8.433 -0.3200  0.0289 -0.0499
40525W        W43745  15.725   3.094  13.000  0.0040 -0.1213  0.0985
40526W        W43746  16.968   4.103   5.707 -0.1149  0.0453  0.1861
40527W        W43747   4.317   7.397   9.888 -0.3006 -0.0281 -0.3397
40528W        W43748  17.746   2.605   9.909  0.0237  0.1794  0.2258
40529W        W43749  16.857  17.665   4.371 -0.3660  0.2031  0.0216
40530W        W43750  17.130  12.021   9.371  0.1584  0.0426 -0.2305
40531W        W43751  10.272   2.731   6.247  0.2207 -0.0083 -0.2287
40532W        W43752  17.567   7.165   8.643  0.3098  0.0332 -0.0676
40533W        W43753  17.260   7.578  14.474 -0.1323  0.3856 -0.0191
40534W        W43754   1.792  16.364  10.821 -0.0542  0.0433 -0.0317
40535W        W43755  14.558   1.754   8.868 -0.2018 -0.1193  0.2834
40536W        W43756  13.334   4.889  13.377  0.0881 -0.0276  0.2225
40537W        W43757  14.448   1.945  15.218  0.0923 -0.2583  0.0495
40538W        W43758   7.694  13.805  12.906  0.1829  0.0373  0.2932
40539W        W43759  14.262  16.701  13.706  0.0610 -0.1785 -0.2024
40540W        W43760  16.201   0.328   6.597  0.1898  0.1180 -0.2148
40541W        W43761  16.461  16.117  10.545  0.1432 -0.1993 -0.0785
40542W        W43762   0.356   4.963  14.694 -0.1334  0.0906  0.1413
40543W        W43763  14.878   3.694  15.239 -0.0433 -0.1817 -0.1607
40544W        W43764   1.446   7.017   8.304  0.1662  0.0364 -0.2089
40545W        W43765  15.398   1.735   4.512 -0.0251  0.1595 -0.1620
40546W        W43766  15.691  14.745   0.244  0.0267  0.1743  0.2515
40547W        W43767  17.708   4.102   9.512  0.5081 -0.0962  0.1098
40548W        W43768   7.744  16.417  14.008  0.4558 -0.1522 -0.0080
40549W        W43769  12.252   9.593  15.617 -0.1416  0.0986  0.1821
40550W        W43770  14.773   0.727   6.688 -0.2373  0.0920  0.2797
40551W        W43771   6.667  15.243  13.130  0.1041 -0.0205 -0.4270
40552W        W43772  13.312  17.999  11.703 -0.1573  0.1529 -0.1620
40553W        W43773  15.983  12.562   7.428  0.1746  0.0402  0.0090
40554W        W43774   0.320  15.368  16.219  0.2825  0.2638 -0.3109
40555W        W43775   1.862  14.220  11.162 -0.6201  0.2643  0.0948
40556W        W43776  17.102   2.436   6.680  0.1276  0.0829 -0.2542
40557W        W43777  17.847   7.967  12.520  0.0115  0.3464  0.1040
40558W        W43778  16.185   1.402   8.324 -0.0438  0.2085 -0.4160
40559W        W43779  10.201   1.225   8.829  0.1807  0.1513 -0.3980
40560W        W43780  11.110  14.619   8.547 -0.2018 -0.0985  0.0230
40561W        W43781  15.890   2.188  10.800  0.0607 -0.0314 -0.1978
40562W        W43782   5.346   5.243  13.884 -0.1795 -0.1477 -0.1311
40563W        W43783   7.495  13.444  13.598  0.0032  0.0742 -0.0129
40564W        W43784  17.224  15.508   6.988  0.0588  0.1381  0.1143
40565W        W43785   0.991  16.780   9.354 -0.3053  0.2878 -0.0153
40566W        W43786   9.522   1.115   8.465 -0.0601 -0.0540 -0.1123
40567W        W43787  15.357   0.382  13.779  0.1009  0.0647  0.1238
40568W        W43788  10.453  15.984   8.544 -0.1311  0.0830  0.4791
40569W        W43789   2.804   3.831   9.239  0.1267 -0.0216 -0.2258
40570W        W43790  12.519   0.516  16.777 -0.1523  0.4042 -0.0821
40571W        W43791  12.835   3.275  14.918 -0.1470 -0.2289 -0.4745
40572W        W43792   4.659   4.100  12.164  0.1082 -0.0510 -0.2075
40573W        W43793  15.150   2.524  16.318 -0.3254 -0.1601  0.0010
40574W        W43794   1.781   0.399   7.666  0.0423  0.0369 -0.3077
40575W        W43795  15.311   3.506  11.675  0.0041  0.1150 -0.1296
40576W        W43796  12.941   3.774   0.317 -0.1482 -0.3037  0.3180
40577W        W43797  15.760   6.481   8.110 -0.1018 -0.1711  0.0589
40578W        W43798   4.998  12.203  13.752 -0.0950 -0.0398 -0.1741
40579W        W43799  13.429  16.172  15.144  0.3537  0.1530  0.0137
40580W        W43800   3.914   6.426  14.516  0.2680  0.1017 -0.0100
40581W        W43801  13.679   3.047  16.955  0.0242  0.0157  0.4037
40582W        W43802  12.654   1.413  16.222  0.2527 -0.1794  0.1143
40583W        W43803  14.511   2.163  14.659 -0.1580 -0.1122 -0.4014
40584W        W43804  10.841  15.100  15.042  0.1621 -0.0604 -0.0104
40585W        W43805  16.176   4.885   8.842 -0.1751  0.1674 -0.3261
40586W        W43806  10.769  17.369  15.149  0.1486  0.0721 -0.0749
40587W        W43807   0.072  15.438   5.278  0.0466  0.2537  0.0848
40588W        W43808  13.123  17.707   6.966  0.1975 -0.1539 -0.0886
40589W        W43809   3.949  15.734   9.940  0.3136 -0.3996 -0.1245
40590W        W43810   1.556   2.299  12.413  0.0140 -0.0204 -0.1444
40591W        W43811  16.966   7.685  10.800 -0.1714 -0.1995 -0.0732
40592W        W43812  18.133  11.305  13.316  0.0123 -0.3876 -0.0154
40593W        W43813  15.155   3.651   9.143 -0.3511 -0.0332  0.1880
40594W        W43814  15.775   6.190  13.932 -0.2014 -0.0321  0.0587
40595W        W43815   6.931  10.636  13.173  0.0169  0.6465  0.2093
40596W        W43816  12.390   5.257  14.775  0.1666  0.2895 -0.1495
40597W        W43817  11.970   3.896   8.348  0.2312  0.1289  0.1066
40598W        W43818   0.639   4.796  11.912  0.1771 -0.2138  0.1817
40599W        W43819  14.379   0.121   0.285 -0.2208  0.3520 -0.3018
40600W        W43820  13.972   8.175  13.154  0.0795 -0.1544 -0.0810
40601W        W43821  13.503  15.472  10.989  0.1095  0.1795  0.0249
40602W        W43822  11.838   8.301   1.655  0.3280  0.1959 -0.1863
40603W        W43823   0.932   2.087   8.965 -0.5258  0.0083  0.1083
40604W        W43824   5.763   5.774  11.112  0.3826 -0.0843 -0.1988
40605W        W43825  13.343  17.490   8.660  0.1610  0.0027  0.1777
40606W        W43826   3.934   1.870  14.650 -0.0097 -0.1868 -0.0517
40607W        W43827  15.698  14.283  11.461  0.1332 -0.0064  0.0299
40608W        W43828  12.970   0.426   4.246  0.3439 -0.0886 -0.1711
40609W        W43829  16.059   1.759  12.282  0.7358 -0.0105 -0.1538
40610W        W43830  13.045   0.893  13.454  0.1075  0.1163  0.0779
40611W        W43831  12.818  13.493  12.342  0.3630 -0.0025 -0.4001
40612W        W43832   0.470  15.568   1.615 -0.0325  0.4590 -0.2270
40613W        W43833  13.395   7.203  16.466 -0.0450  0.0985 -0.2252
40614W        W43834   3.724  13.493  11.215  0.1092  0.1843  0.3167
40615W        W43835  16.313  16.709   6.428  0.0386  0.0964  0.2505
40616W        W43836  15.837   0.387  11.083 -0.0481  0.1162  0.2660
40617W        W43837  13.352  16.482   1.099  0.0980  0.1485 -0.1826
40618W        W43838   0.059   6.718  11.939  0.1624  0.0917  0.2692
40619W        W43839  14.097   0.763  12.157 -0.1253  0.0621 -0.1427
40620W        W43840   3.004  11.645   7.021  0.0655  0.0034 -0.0215
40621W        W43841  12.257   2.262  14.925 -0.0045 -0.0963 -0.2170
40622W        W43842   2.424   3.949   6.459 -0.0140 -0.4488  0.0008
40623W        W43843   0.696  17.693  17.647 -0.0341 -0.1051  0.0227
40624W        W43844   7.438  18.146  13.809  0.1855  0.0712 -0.0616
40625W        W43845   0.151   6.931   5.054 -0.1903 -0.0546  0.1846
40626W        W43846  12.235   1.017   9.147 -0.1913  0.1536 -0.0771
40627W        W43847  17.205  16.563  10.081 -0.0604 -0.1313 -0.0640
40628W        W43848  16.391   6.649   5.789  0.1820  0.0296 -0.0101
40629W        W43849   0.336   0.475  12.665 -0.0087  0.0957  0.1455
40630W        W43850  17.782  15.989   5.798  0.0119 -0.1659 -0.0805
40631W        W43851  12.758   7.741   8.201  0.0546  0.0268  0.4248
40632W        W43852  14.285   1.508  10.691 -0.0509  0.0159  0.2124
40633W        W43853   2.325   0.736  10.364  0.2230 -0.0264  0.2848
40634W        W43854  14.996  16.092  11.333  0.2288  0.2487  0.1713
40635W        W43855   0.794  11.565   3.265 -0.2730 -0.0334 -0.0194
40636W        W43856   8.826  14.773  12.184 -0.1282  0.0155  0.2065
40637W        W43857  12.987  14.197  11.379 -0.1332  0.1631 -0.2203
40638W        W43858   1.144   1.438  12.356 -0.1167 -0.3066 -0.0143
40639W        W43859   1.435   3.794  11.549 -0.0110 -0.0531 -0.1039
40640W        W43860  10.079   3.444   7.159  0.1368 -0.2270 -0.0504
40641W        W43861   6.841   6.642  17.252 -0.0470  0.2085  0.3832
40642W        W43862  10.509  16.677   5.939 -0.4434  0.0538 -0.2015
40643W        W43863   0.738   6.345  14.017  0.1261  0.1657  0.2308
40644W        W43864   0.895   7.432   7.536 -0.1834 -0.2021 -0.1190
40645W        W43865  14.672   2.241   9.023  0.0801 -0.0327 -0.2484
40646W        W43866  14.982  15.222   6.006  0.0904  0.0665  0.4528
40647W        W43867   2.560   5.872  13.940  0.3784 -0.1039  0.0664
40648W        W43868  16.243   4.739  15.734  0.1683 -0.1138  0.4727
40649W        W43869  10.633  16.893  11.685 -0.3151 -0.0736  0.1274
40650W        W43870  14.825   0.319   0.728 -0.1447  0.6447 -0.3603
40651W        W43871   0.253   8.806   4.543  0.0852 -0.2938 -0.0740
40652W        W43872  15.710   0.906  15.365 -0.1155 -0.1892 -0.0675
40653W        W43873  10.515   0.053  14.759 -0.2062  0.0388 -0.0850
40654W        W43874  13.979   4.845  14.022 -0.0320  0.0213  0.0936
40655W        W43875  11.882  16.625   9.248 -0.2326 -0.0053 -0.1739
40656W        W43876  15.719   0.943  16.786 -0.2054 -0.0057  0.2202
40657W        W43877   6.150   0.799  14.731 -0.0258  0.0949  0.2662
40658W        W43878  17.580   5.817  18.226  0.1271 -0.1722 -0.0236
40659W        W43879   0.121   3.434  17.914 -0.0946  0.0501 -0.2221
40660W        W43880  14.739  12.417  12.688 -0.4834 -0.0679  0.2964
40661W        W43881   7.417  17.583   8.417  0.2170 -0.0981  0.0047
40662W        W43882   3.537  14.892  14.221  0.1628  0.3410  0.2139
40663W        W43883  11.981  15.740  11.178  0.1238 -0.0525  0.0059
40664W        W43884   3.907  17.626  13.103 -0.2127 -0.2288 -0.0195
40665W        W43885   2.000   5.181  14.273  0.4888  0.1125 -0.2972
40666W        W43886  15.767  15.307  11.090  0.0981  0.0850 -0.0983
40667W        W43887  12.939   4.942  16.268 -0.3765 -0.0189  0.0604
40668W        W43888   5.916   7.600  10.422 -0.3108  0.1540 -0.1920
40669W        W43889   0.131   1.707  13.474  0.3483  0.2956  0.1761
40670W        W43890  10.580   2.771  11.841  0.1385  0.1320 -0.0329
40671W        W43891   2.720   1.052  12.195 -0.1431 -0.4044  0.5049
40672W        W43892   0.178  15.710   6.440 -0.0685 -0.1260 -0.0335
40673W        W43893  15.836  14.048  14.830 -0.1846  0.1085 -0.0713
40674W        W43894   4.855   5.230   1.145  0.0941  0.4348  0.1271
40675W        W43895   4.563   6.687  10.419  0.0267  0.2136 -0.1415
40676W        W43896  16.017  15.315  12.240  0.0585 -0.0811 -0.1307
40677W        W43897   8.473   4.396  11.407  0.4176  0.2842  0.0447
40678W        W43898  13.103  17.607  13.376  0.0096 -0.1020 -0.0289
40679W        W43899  17.313   7.740  12.653  0.0616  0.1772 -0.1879
40680W        W43900  14.919   2.748  12.279 -0.0080  0.3583 -0.0112
40681W        W43901  15.816   0.491  16.558  0.0196  0.1988  0.0080
40682W        W43902   6.081   4.765   1.901 -0.1574 -0.1278  0.2380
40683W        W43903  17.563  14.798   0.425 -0.1501 -0.1745 -0.0694
40684W        W43904  17.561  14.775  15.755 -0.0456 -0.1914  0.3889
40685W        W43905  16.147   0.888  16.576 -0.1117  0.2196  0.1646
40686W        W43906  16.100   8.364   2.067 -0.3292 -0.0094 -0.0426
40687W        W43907  11.417   5.573   5.995  0.2564  0.0923 -0.0507
40688W        W43908  14.460  16.999  12.929  0.1341 -0.2144  0.0067
40689W        W43909   0.408   0.562   9.060  0.0583  0.2477 -0.0258
40690W        W43910  17.615  17.927  17.771 -0.1294 -0.0077 -0.3013
40691W        W43911  15.050  15.499   8.908 -0.1947  0.1982 -0.2120
40692W        W43912   2.516   6.840  15.225 -0.1638  0.5478  0.6231
40693W        W43913  13.981   7.563   6.532  0.0578 -0.2337 -0.0982
40694W        W43914  14.752   7.436  10.962 -0.2070 -0.0039  0.0178
40695W        W43915  12.622   2.856   9.538 -0.1746 -0.0617  0.0373
40696W        W43916  17.081  16.651  10.980 -0.2571 -0.0471 -0.1337
40697W        W43917  13.561   3.925  18.055 -0.1639 -0.1056  0.2901
40698W        W43918  11.824  12.173  15.739 -0.0574  0.1689  0.0897
40699W        W43919  12.263  17.125  12.693 -0.2892  0.2469  0.1780
40700W        W43920  11.963   1.812  11.552 -0.4644  0.2486  0.2434
40701W        W43921  15.142  14.800  16.418  0.1214 -0.3712  0.1413
40702W        W43922  13.879  16.960  14.930  0.0386 -0.0989 -0.2233
40703W        W43923  15.158   8.243  12.190  0.2282 -0.1358  0.1884
40704W        W43924  17.047   6.630  16.614 -0.0893  0.1517  0.0419
40705W        W43925  14.267  15.979   8.879  0.0387  0.1163 -0.0686
40706W        W43926  17.987   0.561  14.965 -0.0765 -0.1558 -0.1070
40707W        W43927   1.378  15.866  17.469  0.4679  0.0937  0.1565
40708W        W43928   1.147   3.253   0.651 -0.1024  0.1608 -0.0551
40709W        W43929  16.437   2.376  12.860  0.3287 -0.1902  0.0641
40710W        W43930  14.790  16.468  17.380  0.2307 -0.3839  0.0303
40711W        W43931  14.508  14.524  12.928  0.1781 -0.4384 -0.0605
40712W        W43932   3.764   1.986  12.031 -0.2062  0.1483  0.0987
40713W        W43933  18.223   3.742  16.557  0.0476 -0.0086  0.1126
40714W        W43934  18.216  17.159  12.776  0.0685  0.0065 -0.1620
40715W        W43935   1.654   4.021   9.926  0.1666 -0.2150 -0.1972
40716W        W43936  10.578  17.136  13.186  0.0307  0.1068  0.2895
40717W        W43937  17.881   3.598   9.668 -0.0023 -0.2452 -0.0924
40718W        W43938   2.739   2.898  10.207  0.4537 -0.0507  0.0595
40719W        W43939   2.400  10.163  10.062 -0.0810 -0.0871 -0.2076
40720W        W43940  12.411   1.804  17.746 -0.2005  0.0335 -0.3832
40721W        W43941   0.536   5.554  10.746  0.0875  0.1195  0.0070
40722W        W43942  17.181  16.483  12.050 -0.0307  0.0877  0.2855
40723W        W43943  16.030  17.709   8.657  0.0303 -0.1384  0.3096
40724W        W43944   0.872   1.339   9.043  0.0234 -0.0085 -0.0255
40725W        W43945  13.231   6.178  11.898 -0.2107  0.0680  0.0704
40726W        W43946   7.608   6.728   8.412  0.1409  0.1946  0.1828
40727W        W43947  13.130  10.056  11.817 -0.0662 -0.1885 -0.0238
40728W        W43948   4.814   5.351   3.494  0.0915 -0.2730 -0.0933
40729W        W43949   1.460  15.456  10.942 -0.0048 -0.2335 -0.1559
40730W        W43950  16.149   2.911  15.462  0.2285  0.0494  0.4382
40731W        W43951  14.517   0.791  16.516  0.0402  0.1911 -0.2374
40732W        W43952  15.801   6.808  13.867 -0.1932 -0.0915 -0.0273
40733W        W43953  14.072  17.226  16.113 -0.1148  0.0635  0.0606
40734W        W43954  14.804  18.086  14.884  0.1668 -0.1801  0.0030
40735W        W43955  15.561  17.331  12.470 -0.0917  0.3101  0.1896
40736W        W43956  18.203  17.738   8.574  0.0374  0.0393 -0.0017
40737W        W43957  11.487   0.101  17.310  0.1828  0.1727 -0.1813
40738W        W43958   3.560   8.353   2.214  0.0325 -0.4338  0.2968
40739W        W43959   1.609  18.173  10.931 -0.3755  0.2229  0.0131
40740W        W43960   8.707   5.094  10.908 -0.0386  0.1223 -0.2290
40741W        W43961  11.356   3.387   7.561  0.0923  0.1490 -0.1530
40742W        W43962   1.803  17.121  17.453 -0.3594 -0.4107 -0.2250
40743W        W43963   8.351   0.187  12.445  0.0674 -0.0533 -0.1440
40744W        W43964  13.156   4.613   1.488  0.0659  0.1532 -0.1379
40745W        W43965   1.339   2.377  13.305  0.0945 -0.1515 -0.2628
40746W        W43966  14.627  14.842   3.050 -0.0761  0.2372 -0.0210
40747W        W43967  13.502  13.259  17.699  0.0365  0.2711  0.0509
40748W        W43968  14.662   8.782  10.685 -0.1259 -0.0016  0.0218
40749W        W43969   3.875  15.889  13.114 -0.1683  0.1753  0.0664
40750W        W43970   4.524   0.159   9.505  0.2148 -0.0255 -0.4030
40751W        W43971   0.960   5.431  14.371  0.2648 -0.0400  0.2261
40752W        W43972  17.779  11.348  10.658 -0.1513 -0.0166  0.1843
40753W        W43973   3.788  10.504   1.205  0.1885  0.1097  0.0354
40754W        W43974  10.017   7.332  13.802 -0.1726 -0.1850 -0.3649
40755W        W43975  12.712   0.756  12.705  0.0611  0.0273 -0.1317
40756W        W43976   3.241   1.163  13.150  0.0823 -0.2325 -0.0109
40757W        W43977  17.569  15.746   9.567 -0.2378 -0.0917 -0.2931
40758W        W43978   0.462   6.414   0.655  0.1777  0.1575 -0.0464
40759W        W43979   0.319   1.518   7.119 -0.1819  0.1167  0.0087
40760W        W43980  17.826   6.506  17.029 -0.1087  0.0211 -0.2641
40761W        W43981  17.008  17.442  12.223  0.2645 -0.0595  0.2628
40762W        W43982  11.572  17.367  11.603  0.1895  0.0304  0.2161
40763W        W43983  14.019  15.853  14.152 -0.2867  0.0663 -0.3958
40764W        W43984   0.354   4.837   0.352 -0.0455  0.0592 -0.4410
40765W        W43985   0.710   2.117   4.378  0.1036  0.1735  0.0749
40766W        W43986  13.743   0.993   6.132  0.3902  0.0392 -0.2356
40767W        W43987  15.074  17.435  16.174  0.2880 -0.0623  0.3185
40768W        W43988  12.383  17.938  16.797 -0.1524 -0.0898 -0.0294
40769W        W43989  17.152  16.673  13.516 -0.0437 -0.3498 -0.3186
40770W        W43990  16.773   0.101  11.192  0.2001  0.0378  0.0763
40771W        W43991  11.356   1.002  10.828 -0.4232  0.1834  0.0084
40772W        W43992  15.429   1.938  18.195 -0.0650  0.1818  0.1823
40773W        W43993   7.934   9.962   4.971  0.2034  0.2131  0.2299
40774W        W43994  16.245   4.255  10.557 -0.3150  0.2342  0.1999
40775W        W43995  12.497   1.667  17.133  0.1282 -0.0753  0.2381
40776W        W43996  10.421  10.799  10.021 -0.1097 -0.1114  0.4255
40777W        W43997   3.804   4.064  12.526  0.0233  0.1090  0.0449
40778W        W43998   0.677  15.383  17.971  0.0539 -0.1418 -0.1132
40779W        W43999   8.188  11.622  12.133 -0.0815  0.1039  0.1918
40780W        W44000   0.067   5.607   8.165 -0.0965 -0.2977 -0.0155
40781W        W44001   2.252   8.778  12.047 -0.2620 -0.2491  0.3976
40782W        W44002  11.011  17.533  13.780  0.3058 -0.3467 -0.0379
40783W        W44003  15.629  15.505   1.356 -0.0419  0.0943  0.0032
40784W        W44004  13.288  16.088   2.267  0.3239 -0.0975 -0.2375
40785W        W44005  15.791   4.638  15.832  0.1711  0.0596  0.1626
40786W        W44006   2.914   9.967   1.968 -0.2551  0.0475 -0.2865
40787W        W44007   3.593   6.444   9.650 -0.1584 -0.3374 -0.1760
40788W        W44008   0.666   5.558  13.106 -0.3559  0.1978  0.0074
40789W        W44009  12.894  16.382  15.013  0.0833 -0.1814 -0.1732
40790W        W44010  13.615   3.994   6.774  0.2805 -0.1761  0.3447
40791W        W44011  14.522   7.634  14.663 -0.2708 -0.1210  0.0384
40792W        W44012  12.857   3.704  12.138  0.1895  0.1375  0.0421
40793W        W44013   0.675   4.790   1.221  0.1405  0.1592  0.1847
40794W        W44014   1.684  14.888   4.894 -0.1943 -0.3452  0.0234
40795W        W44015  13.278  15.018   6.641 -0.1315 -0.0578 -0.0944
40796W        W44016  15.645  16.519   9.023  0.1683 -0.2442  0.4798
40797W        W44017   1.862   1.990  10.802 -0.1154  0.0376 -0.0706
40798W        W44018  15.279  16.400  11.980  0.1001 -0.0333  0.1068
40799W        W44019  14.710   1.550   5.577  0.0220  0.3600  0.0207
40800W        W44020   9.404   2.480  16.696  0.2657 -0.0434  0.3258
40801W        W44021   4.159   9.656  14.425 -0.0320 -0.1771  0.0418
40802W        W44022   3.940  16.329  10.871  0.0604  0.1196 -0.0337
40803W        W44023  15.722   1.639  17.692  0.1107  0.3087  0.0693
40804W        W44024  12.832   3.024  16.411  0.0363 -0.1860  0.0124
40805W        W44025  16.374   2.991  10.205 -0.0447 -0.1109  0.1931
40806W        W44026  15.046   2.322   7.881 -0.1385  0.2690 -0.1446
40807W        W44027  11.847   1.294   3.032  0.0114  0.2802 -0.0900
40808W        W44028  14.878  13.512  13.810  0.0537  0.0986 -0.1347
40809W        W44029  15.654  17.784  17.060 -0.0335  0.3956 -0.1354
40810W        W44030  18.145  15.814   6.809  0.2192  0.2101  0.0454
40811W        W44031  15.036  10.617  12.090 -0.4588 -0.0331  0.1913
40812W        W44032   3.478  18.202   3.920 -0.1542 -0.3645 -0.0728
40813W        W44033  15.413   1.265   4.761  0.3054  0.0786 -0.0477
40814W        W44034  16.045   2.371  12.504 -0.2671  0.2578  0.1543
40815W        W44035   2.691   1.294   2.634 -0.3444 -0.3081  0.1199
40816W        W44036   1.529   3.552  16.736  0.1426  0.2852  0.0516
40817W        W44037  17.834  15.319   9.602  0.0708 -0.0071  0.0681
40818W        W44038   4.694  13.011  15.097  0.1076  0.3371 -0.1980
40819W        W44039  11.063   0.508  13.199 -0.0256  0.1033  0.1126
40820W        W44040   1.415   2.072  17.463 -0.3008  0.1330 -0.2374
40821W        W44041  14.631  17.275   3.132  0.0123  0.2546 -0.1599
40822W        W44042  17.718   4.753  14.093  0.3058 -0.2315  0.5365
40823W        W44043  11.860   0.793  11.902 -0.0079  0.4295 -0.3315
40824W        W44044  17.377   6.177  15.653 -0.0755  0.2565  0.3979
40825W        W44045   3.784   5.735  10.112  0.1554 -0.0076 -0.0630
40826W        W44046  15.068   0.615   1.064 -0.0098  0.1022  0.0500
40827W        W44047   7.659  14.696  13.817 -0.1295  0.0923 -0.1504
40828W        W44048  14.348  18.201   8.260 -0.0412  0.2050 -0.1088
40829W        W44049  17.790   1.347  10.021  0.1631 -0.1810  0.1375
40830W        W44050  13.012   0.734   6.271  0.1339  0.1992  0.1622
40831W        W44051  12.039   6.593   8.342  0.1227 -0.0218 -0.0716
40832W        W44052   3.095   3.462  12.490 -0.1428  0.0031  0.2731
40833W        W44053  16.206   2.461  15.285 -0.0800 -0.0618 -0.2952
40834W        W44054  14.407  13.897  11.228 -0.0143 -0.2222 -0.3291
40835W        W44055  16.882  17.548   9.304  0.2846  0.1018  0.2301
40836W        W44056   5.511   0.115  10.294 -0.0220  0.2259  0.1282
40837W        W44057  12.589   8.034  13.959  0.4214 -0.0122 -0.1112
40838W        W44058   8.605  18.253  12.802 -0.1421 -0.0601  0.0086
40839W        W44059   0.863  17.370  14.399 -0.1314  0.1374 -0.1420
40840W        W44060  16.800   3.704   2.257 -0.0255 -0.0448  0.0317
40841W        W44061  15.493  15.614  11.458 -0.0257  0.1919  0.1048
40842W        W44062   0.904  17.472  11.095 -0.0356 -0.0610 -0.0782
40843W        W44063  13.369  11.912   8.640  0.0893  0.3209 -0.0696
40844W        W44064  15.933   3.875  17.301 -0.1350 -0.1493  0.0872
40845W        W44065   0.990   4.954   0.863 -0.2881  0.2178 -0.1611
40846W        W44066  15.896  17.856  12.755 -0.2188  0.1567  0.2293
40847W        W44067  14.551  10.518  14.400 -0.0688  0.0111 -0.2794
40848W        W44068   6.407  17.303  12.065 -0.0647  0.1079  0.0467
40849W        W44069  12.839   1.256  12.669  0.3801  0.1357 -0.0406
40850W        W44070   1.522   4.939   0.642  0.1300 -0.1529  0.0594
40851W        W44071   4.178   2.583   5.144  0.0742  0.2496 -0.1124
40852W        W44072  11.203   0.550  14.157  0.0302 -0.0284 -0.0613
40853W        W44073  16.061   2.042   6.627  0.1030 -0.0923  0.1485
40854W        W44074  15.568   4.713   4.253  0.2104  0.3334 -0.0192
40855W        W44075   0.535  11.268   6.687 -0.1947  0.1885 -0.2552
40856W        W44076  18.109   2.444  11.126  0.0256 -0.1781  0.1222
40857W        W44077  17.890   2.806  11.447 -0.1078  0.1303 -0.0571
40858W        W44078  10.040   2.487  10.484 -0.0454 -0.2853 -0.0030
40859W        W44079   6.799   2.895   8.984 -0.0268  0.0282 -0.1006
40860W        W44080  12.630  17.627  15.869 -0.0132  0.0810 -0.0093
40861W        W44081  16.567   0.644  16.404  0.1608 -0.2928 -0.3527
40862W        W44082  12.287   0.071  10.896 -0.2067  0.0993 -0.0392
40863W        W44083  11.908  16.092  15.364  0.2968  0.2723  0.3236
40864W        W44084  13.277   7.066  17.594  0.0241 -0.3200 -0.1198
40865W        W44085   1.926   8.320   9.713  0.2557  0.1578  0.2370
40866W        W44086  12.473  17.728  10.038  0.3253  0.1716 -0.0942
40867W        W44087  14.643  15.274   0.426  0.0468 -0.1351 -0.2001
40868W        W44088  16.621  16.410  13.499 -0.0774 -0.1252 -0.1257
40869W        W44089  17.932  12.933   9.283  0.2024  0.1598  0.0132
40870W        W44090  13.071   8.748  14.962 -0.1640  0.0054  0.1759
40871W        W44091  16.797  13.771  15.006 -0.0141  0.1911 -0.2369
40872W        W44092  17.637  10.670  17.467 -0.1466  0.0446 -0.0170
40873W        W44093  16.663   1.920   3.271  0.1608  0.0167 -0.0033
40874W        W44094   0.640  17.311  13.916  0.0744  0.1726  0.0588
40875W        W44095   0.853  17.606  13.279  0.0794 -0.1951  0.1312
40876W        W44096   9.636  17.794   8.284  0.1092 -0.1660 -0.1107
40877W        W44097  16.867  12.474  17.704 -0.1114 -0.4124  0.0433
40878W        W44098  17.124  15.069  15.210  0.4109  0.0661 -0.2501
40879W        W44099   0.600   5.629  16.302  0.2449  0.0635  0.1429
40880W        W44100   4.578   5.441   4.230 -0.0957  0.2954 -0.1736
40881W        W44101   0.764   1.687  17.360  0.1951 -0.2379  0.0326
40882W        W44102   8.666  17.520   8.614  0.3075 -0.0476 -0.3088
40883W        W44103  14.516  14.497  17.226 -0.1610  0.1556  0.0006
40884W        W44104  13.765  12.036   8.409  0.0080 -0.0775 -0.2848
40885W        W44105   2.609   2.781  10.807 -0.1563  0.0372 -0.1609
40886W        W44106   1.350   1.566  15.181  0.0137 -0.1933  0.0717
40887W        W44107   5.087   9.462   7.241 -0.1036  0.1663  0.2482
40888W        W44108   1.083  16.918  16.509 -0.0851 -0.0511 -0.1643
40889W        W44109  14.637  17.372  12.206  0.3323 -0.2580 -0.3022
40890W        W44110  12.164  17.572  10.640  0.1042  0.0017  0.2805
40891W        W44111  17.119   5.406  10.474  0.3685  0.1260 -0.2501
40892W        W44112  14.317  17.171   6.937 -0.1864  0.0398 -0.1959
40893W        W44113  16.983  17.834   1.313 -0.1977  0.3455 -0.0932
40894W        W44114   0.644  17.973   9.114 -0.1649 -0.1135  0.1251
40895W        W44115   6.782  16.500  14.267 -0.1106  0.3467 -0.2559
40896W        W44116   1.898   3.876  11.777  0.2581  0.0687  0.0433
40897W        W44117  16.387  16.567  18.172 -0.2264  0.2336 -0.0243
40898W        W44118  16.033  15.530  10.188  0.1538 -0.0100  0.0378
40899W        W44119  10.536   6.653  14.379  0.1332  0.1944  0.2461
40900W        W44120  12.997   2.208   0.662  0.0842 -0.1105  0.2607
40901W        W44121  12.458  18.168   7.231 -0.2062 -0.0335 -0.2576
40902W        W44122  13.145  18.117   0.734  0.1095 -0.0768  0.0450
40903W        W44123   8.323   4.233   1.952 -0.2557  0.0913  0.2454
40904W        W44124   2.543   0.269  10.139  0.1002 -0.0405  0.1757
40905W        W44125  15.902   1.479  14.104  0.2658 -0.2061  0.2654
40906W        W44126   1.243   5.014  14.130 -0.0073  0.0873 -0.2072
40907W        W44127  14.396   4.628  17.333 -0.4592 -0.0083 -0.0250
40908W        W44128  16.293   5.210  15.873 -0.0090 -0.1022 -0.2389
40909W        W44129  17.733   2.643  15.012  0.0113 -0.0688 -0.0860
40910W        W44130  12.738   0.464   8.285 -0.2162  0.0583 -0.4911
40911W        W44131  17.513  10.210  12.844 -0.0578  0.0169 -0.2352
40912W        W44132   0.558  17.931   8.605 -0.1199 -0.4068 -0.3879
40913W        W44133  10.472  13.676   1.162 -0.0551 -0.0725  0.0970
40914W        W44134  13.542  14.855   8.445  0.1554  0.1988  0.0121
40915W        W44135  10.014   4.842   5.577  0.1442 -0.1553 -0.0895
40916W        W44136  17.162   3.197  16.474  0.2410 -0.0363  0.0074
40917W        W44137  15.742  15.311  14.278  0.0966  0.1507 -0.1983
40918W        W44138   1.118   9.820  17.172 -0.2505 -0.3431  0.1363
40919W        W44139  14.111  10.337  11.951  0.1712 -0.0152 -0.0572
40920W        W44140  15.140   6.025  16.409 -0.1349  0.3868 -0.1614
40921W        W44141   7.585   2.701  10.862 -0.2719  0.0656 -0.1635
40922W        W44142  15.360   6.135  10.830 -0.2273  0.0100  0.0466
40923W        W44143  13.494  10.132  15.822 -0.0691  0.1306  0.1310
40924W        W44144  15.750   5.109  15.968 -0.0465 -0.0228  0.1255
40925W        W44145  13.312   4.805  12.818 -0.3493 -0.0271 -0.0340
40926W        W44146   0.033  14.703   2.652  0.1572 -0.1464 -0.2890
40927W        W44147  14.764   0.309  11.448  0.3223 -0.0567  0.1552
40928W        W44148  13.686  14.333   8.276 -0.2058  0.4876  0.0468
40929W        W44149   8.596  12.971  12.421 -0.3086 -0.0105  0.0642
40930W        W44150   0.011   0.401   0.495 -0.2711  0.2009 -0.0469
40931W        W44151  17.143   2.581  12.396  0.3292 -0.2038  0.3065
40932W        W44152  15.623  12.983  13.914 -0.1010 -0.0057 -0.0860
40933W        W44153   1.424   2.305  10.127  0.0162  0.0411  0.0382
40934W        W44154   0.320   2.110  12.133 -0.1718  0.2342 -0.1385
40935W        W44155  15.530  17.545  16.596  0.2010  0.0263  0.3430
40936W        W44156  11.900   4.841   1.064  0.1757 -0.1292 -0.4298
40937W        W44157  13.131  12.359  17.246 -0.0872  0.0856  0.1265
40938W        W44158   6.043  16.057  15.378  0.0932 -0.1179  0.0326
40939W        W44159  14.569   5.900  12.980 -0.1577  0.2500  0.1625
40940W        W44160  16.719   8.195  13.153 -0.2013 -0.0479 -0.0487
40941W        W44161  15.053  14.281  10.698  0.0669 -0.0151 -0.0285
40942W        W44162  17.715   8.434   0.560 -0.0828  0.0114 -0.3576
40943W        W44163  10.784   4.526  18.024 -0.2888  0.3067 -0.1624
40944W        W44164   5.480   0.905  17.547  0.2982  0.1698 -0.0939
40945W        W44165  17.481   3.675  13.754 -0.2072  0.0665 -0.0881
40946W        W44166  15.945   0.484  13.839  0.0011  0.0194  0.1603
40947W        W44167  14.302   0.501   4.612 -0.0926  0.1655 -0.0811
40948W        W44168  16.444   1.148  17.325  0.0514 -0.3958  0.1314
40949W        W44169  14.958   5.367   3.401 -0.0559  0.0416  0.2088
40950W        W44170   2.777  17.547  12.607 -0.1670  0.0452  0.5046
40951W        W44171  14.513   3.740   1.596 -0.0459 -0.3785  0.2464
40952W        W44172  16.544  12.640   3.666  0.0386 -0.1320 -0.0604
40953W        W44173  12.888  16.863  14.042  0.3176  0.3608  0.2109
40954W        W44174   5.689   6.409  10.244 -0.0914 -0.1883 -0.3697
40955W        W44175   4.200  14.431  18.199 -0.2786  0.1195 -0.2917
40956W        W44176  16.795   5.108   7.342 -0.0442 -0.0101 -0.0149
40957W        W44177  12.182   6.550  17.239 -0.0551 -0.0268  0.2840
40958W        W44178  13.578   6.047  17.763 -0.2903  0.1383  0.0239
40959W        W44179  15.498   0.056  14.246 -0.2444 -0.0775  0.0243
40960W        W44180  14.078   8.292  16.521  0.0509  0.1156  0.0019
40961W        W44181  12.502   1.842  15.179  0.1435 -0.6382  0.3663
40962W        W44182  17.863   2.231   0.322 -0.1296 -0.1252  0.1920
40963W        W44183  13.981  16.429  17.269  0.1930  0.1549  0.1095
40964W        W44184  13.785   2.846   2.457  0.3296  0.1460 -0.1924
40965W        W44185  13.270   5.861  15.065  0.2304  0.1490 -0.5071
40966W        W44186   5.222   3.376  18.227 -0.0969  0.1189 -0.1220
40967W        W44187   0.476   5.015   0.768  0.0457  0.0213 -0.1338
40968W        W44188   0.990   1.271  13.030 -0.0375 -0.0871  0.2212
40969W        W44189   2.751   8.975  15.056  0.0916 -0.1190  0.0496
40970W        W44190  16.294   0.288  15.602  0.1015 -0.1372  0.1777
40971W        W44191  17.570   3.156  12.640  0.0360  0.0491  0.0244
40972W        W44192  17.483  15.540  17.478 -0.1989 -0.0632  0.0737
40973W        W44193   5.561  13.737  15.332 -0.1170 -0.0477  0.0201
40974W        W44194   0.070  16.909  16.448 -0.1617 -0.0114  0.0923
40975W        W44195   2.464   3.678  13.907  0.0500  0.0903  0.1168
40976W        W44196  13.386   7.836  18.181 -0.0504 -0.0424  0.3305
40977W        W44197   1.314   3.395  17.332  0.2330  0.0082  0.1067
40978W        W44198  14.549  13.413  13.315  0.0342 -0.2464  0.0416
40979W        W44199  16.675  16.663  14.290  0.0059  0.0859  0.0017
40980W        W44200  10.216  14.838  12.572 -0.1835  0.1720 -0.0847
40981W        W44201  12.808   0.649  14.938 -0.1807 -0.4018 -0.0677
40982W        W44202  12.750   4.457  16.185 -0.1046  0.1426  0.0326
40983W        W44203  15.662  14.686  10.033  0.2848 -0.1668 -0.2418
40984W        W44204  12.702   0.896  17.564  0.2174  0.3988  0.2574
40985W        W44205  15.568  16.146  11.278 -0.0364 -0.0214  0.0178
40986W        W44206   2.444  16.762   4.911  0.0988  0.1961 -0.0193
40987W        W44207  14.795  16.568  12.819 -0.1246  0.1084 -0.2063
40988W        W44208   2.391   2.499  16.515 -0.4474 -0.0046 -0.1876
40989W        W44209  17.430   1.332  12.302  0.0578  0.0004 -0.0945
40990W        W44210  14.361   8.768  10.207  0.0736  0.1750  0.2270
40991W        W44211   4.180   1.965   4.535 -0.0244  0.1717  0.1749
40992W        W44212   1.623   1.575  14.316 -0.0076 -0.1253  0.1825
40993W        W44213   2.998  16.762   9.279 -0.0434 -0.2512 -0.2012
40994W        W44214  14.975   2.871  17.601 -0.3222 -0.0599 -0.0552
40995W        W44215  15.872   8.994  16.851 -0.1838  0.0357 -0.1186
40996W        W44216   0.593   4.179   6.025 -0.1404  0.1389 -0.1667
40997W        W44217  13.992   2.847  17.272 -0.0976 -0.1314 -0.1364
40998W        W44218  17.625  16.523   0.769  0.0363 -0.2095 -0.2162
40999W        W44219  15.717   4.668   8.926  0.1609 -0.0856 -0.1785
41000W        W44220  12.015   0.418  14.806  0.3269 -0.3290  0.2520
41001W        W44221  14.979  18.176  14.386 -0.1610 -0.0792  0.1436
41002W        W44222   1.667  17.529  17.642  0.1777 -0.2600 -0.0347
41003W        W44223  15.365  18.064   1.309  0.0683 -0.2979  0.1879
41004W        W44224  16.456   4.591  12.936  0.0648 -0.1716  0.0352
41005W        W44225   3.316  16.777  17.947 -0.1002 -0.0507  0.0743
41006W        W44226   0.896  11.185   6.301 -0.3107  0.1119 -0.4186
41007W        W44227  15.313   3.595   9.645  0.4507 -0.1086  0.0519
41008W        W44228   1.806   4.118   6.424 -0.2748 -0.3041  0.2010
41009W        W44229  17.801   0.444  10.320 -0.0841 -0.0606 -0.1472
41010W        W44230  11.008  17.313  14.585 -0.0828 -0.1030 -0.2392
41011W        W44231  18.021   9.134  17.723 -0.0564  0.0001  0.0107
41012W        W44232   8.407  12.892  11.205 -0.0658  0.1192  0.1950
41013W        W44233  12.378  15.863  12.285 -0.0832  0.1799  0.0341
41014W        W44234  11.326  15.041  17.560  0.1625  0.0298 -0.0146
41015W        W44235  13.416  16.586  16.292 -0.3659 -0.4109 -0.2713
41016W        W44236  12.463   9.071  13.908 -0.0226  0.1175  0.0136
41017W        W44237   2.463   0.842  14.796 -0.2252 -0.1060  0.0815
41018W        W44238  13.201   1.454   0.851 -0.0924 -0.1579  0.2627
41019W        W44239  14.925  15.628  12.036  0.0185 -0.0428 -0.1419
41020W        W44240   5.844   5.135  15.266 -0.1285  0.1159  0.0852
41021W        W44241   8.388  12.341   2.412 -0.0714  0.3818 -0.0549
41022W        W44242   0.576   0.550  11.181  0.1157 -0.1423 -0.1106
41023W        W44243  18.103   6.915  14.683 -0.0901 -0.0089  0.1672
41024W        W44244  14.995   5.278  18.230 -0.2106  0.0182  0.0458
41025W        W44245   9.920   0.650  11.695  0.2960 -0.2545 -0.1150
41026W        W44246  15.033   4.563   3.066 -0.2210  0.1221  0.0586
41027W        W44247  15.545   0.854   3.990 -0.0886  0.0596 -0.1122
41028W        W44248  10.994   6.454  12.263  0.1058  0.0935 -0.0431
41029W        W44249  17.749   7.611  10.973  0.1437  0.1455 -0.0339
41030W        W44250  14.845  15.018   2.078 -0.1316 -0.0379  0.2677
41031W        W44251   8.975   0.194  11.302  0.0681  0.0781 -0.1790
41032W        W44252  11.533   3.090  15.952 -0.0067 -0.0275  0.0045
41033W        W44253  16.323  16.972  10.469  0.0615  0.1041 -0.1618
41034W        W44254  16.564   7.438  17.181  0.1010  0.0626  0.3041
41035W        W44255  12.566  15.674  17.002  0.1527 -0.0770 -0.0928
41036W        W44256   2.238   2.372  16.987  0.0914 -0.3315  0.0992
41037W        W44257   2.893  13.777   7.668 -0.0135  0.0350 -0.0994
41038W        W44258   9.918  13.365  17.656  0.0052  0.2693 -0.1255
41039W        W44259   0.147   6.184   2.957 -0.0227 -0.0204 -0.1299
41040W        W44260   0.073   7.299  13.555  0.0325  0.3801  0.0350
41041W        W44261  14.702  16.068   3.247 -0.0806  0.1763 -0.0187
41042W        W44262  16.445   4.076   2.994  0.1229 -0.0321 -0.1124
41043W        W44263  15.979   7.782   0.385  0.1646  0.1523  0.3023
41044W        W44264   6.378   3.826  17.156 -0.5076  0.3412 -0.0900
41045W        W44265  15.230  17.820   9.615 -0.0868 -0.0502  0.2992
41046W        W44266  12.601   2.130   1.145  0.2570  0.1498 -0.0188
41047W        W44267   1.945   2.235  13.186 -0.4248  0.0701  0.2006
41048W        W44268   4.298   2.308  14.634  0.0387  0.2183  0.3180
41049W        W44269   5.688   1.697   5.071  0.0642  0.0508  0.1067
41050W        W44270  17.963   0.667   0.973  0.1520 -0.4225 -0.1328
41051W        W44271   1.149   2.334  10.786  0.0017 -0.1172  0.0296
41052W        W44272   2.367   2.042  12.304  0.1419 -0.3571  0.1449
41053W        W44273  14.521   3.280  11.342 -0.1786 -0.0192 -0.2847
41054W        W44274   0.701   4.368  16.779 -0.1101  0.1919  0.0630
41055W        W44275  18.185  18.267  12.574  0.2934  0.0090 -0.3727
41056W        W44276   1.866   6.302   8.163  0.0090  0.2327  0.0719
41057W        W44277  17.224  10.358   4.287 -0.1557 -0.1954 -0.1102
41058W        W44278   2.284   4.341  14.630 -0.2387 -0.2223 -0.2476
41059W        W44279   0.841   2.201  17.420 -0.2401 -0.2675 -0.1280
41060W        W44280  17.910   4.427   1.009 -0.0148  0.2241  0.0824
41061W        W44281  11.792   8.045  11.602  0.0343  0.0886 -0.0366
41062W        W44282   1.167   6.083  16.607  0.3757 -0.0632  0.0729
41063W        W44283  14.710  16.680  16.472  0.0105 -0.2518  0.1525
41064W        W44284  11.082   6.178   8.443 -0.1047  0.2281 -0.0956
41065W        W44285   5.823  17.963  13.529 -0.2606  0.2928 -0.3363
41066W        W44286  15.599   0.033  12.428  0.1329 -0.1295 -0.0751
41067W        W44287  17.588   7.072  14.427  0.1245  0.1834 -0.1435
41068W        W44288   0.443   4.599  15.553  0.1230 -0.3743  0.1847
41069W        W44289  12.236  11.361  16.838 -0.1159  0.3766 -0.3857
41070W        W44290   0.730   0.377   7.433  0.2402 -0.3620  0.0912
41071W        W44291  15.905   2.339  13.006  0.1117  0.4060 -0.2778
41072W        W44292   5.752   1.662  15.217  0.1063  0.1446  0.2071
41073W        W44293  14.033  15.254   6.295 -0.1304 -0.0718  0.0175
41074W        W44294   5.224   1.233   4.029 -0.0722 -0.1486  0.0220
41075W        W44295  16.329  17.422   0.118 -0.2966 -0.3609  0.3237
41076W        W44296  12.367   2.637   0.392  0.2182 -0.0391 -0.1375
41077W        W44297   0.424   0.610  15.650 -0.3985  0.0856  0.0870
41078W        W44298  14.927  16.369  16.893 -0.0262 -0.0892 -0.2932
41079W        W44299   9.970   8.282   1.389 -0.1534  0.3542 -0.2248
41080W        W44300  13.633  15.026  11.827  0.1336 -0.1836  0.2070
41081W        W44301   5.496   0.775  13.748 -0.2048  0.0755  0.1596
41082W        W44302   8.811  17.046   7.918 -0.0574  0.1043  0.2162
41083W        W44303   7.008   2.413  10.711  0.4014  0.2897  0.1271
41084W        W44304   6.139  13.434   8.971 -0.0301 -0.2171 -0.1384
41085W        W44305   0.158  15.384  12.327  0.1724  0.2530  0.0574
41086W        W44306  16.251   2.339  14.772  0.3266  0.0245  0.2020
41087W        W44307  15.861   4.348   1.532 -0.1159  0.0349 -0.0336
41088W        W44308   1.657   8.806  16.131  0.1681  0.3422  0.0206
41089W        W44309  15.758  15.288   2.432  0.0369  0.0777  0.1142
41090W        W44310  16.265   2.793  13.088  0.4263  0.1080 -0.0591
41091W        W44311  14.923   5.366  11.083  0.1315 -0.1748  0.0916
41092W        W44312  11.057  17.647   1.416  0.1763  0.1948 -0.0452
41093W        W44313  17.398   4.714  16.959  0.2137 -0.4944 -0.2190
41094W        W44314   1.054   3.368   7.588 -0.1731  0.1755  0.0661
41095W        W44315  13.539   0.362   2.042 -0.1636  0.0717 -0.2010
41096W        W44316  14.012   0.799  13.155 -0.0665  0.2426 -0.1676
41097W        W44317   4.522   7.065  17.506  0.2356 -0.1889 -0.0439
41098W        W44318   2.073   0.426   4.605 -0.0713  0.3590 -0.1202
41099W        W44319   8.015   1.856   9.815 -0.1901 -0.0453  0.2268
41100W        W44320  18.068   8.852   0.485  0.2041 -0.4461 -0.0236
41101W        W44321  17.503  16.264   2.716 -0.1919  0.2612  0.0927
41102W        W44322  14.299   5.709   2.080  0.0287 -0.1383 -0.0150
41103W        W44323  13.129   3.477  16.283  0.0320  0.1767  0.0655
41104W        W44324  13.561   5.501  17.828  0.2152 -0.1221  0.0888
41105W        W44325  17.363  17.465  10.933 -0.2229  0.1089  0.0092
41106W        W44326  12.598   8.522  10.470 -0.0201  0.0651  0.0454
41107W        W44327  14.940   4.047   1.535  0.0197  0.0011 -0.0514
41108W        W44328  17.291  15.642  15.874 -0.0518  0.0642 -0.1373
41109W        W44329  15.420  17.393   4.905  0.0041  0.0943  0.2808
41110W        W44330  17.547   9.953   7.676  0.0361  0.0388  0.0322
41111W        W44331   9.626  15.187  12.434 -0.0158  0.1698  0.0881
41112W        W44332  18.078   3.587   0.435 -0.0100 -0.0493 -0.0111
41113W        W44333  15.678   1.368  15.268 -0.0116  0.4546  0.0160
41114W        W44334   1.579   1.712  12.681 -0.1456  0.1962  0.0638
41115W        W44335  16.820   3.736   2.863  0.1882  0.2730  0.2838
41116W        W44336  14.740  12.226   9.392  0.0210 -0.2469  0.1309
41117W        W44337   4.682   7.815   1.688 -0.1284  0.0400  0.0380
41118W        W44338   6.347  15.904  12.478  0.1099 -0.1519  0.2129
41119W        W44339  17.716   2.475  17.231  0.2956  0.1853 -0.1810
41120W        W44340   9.221  16.297   4.137  0.0110  0.1401 -0.1899
41121W        W44341   1.099  17.987   0.123 -0.0465  0.1624  0.1963
41122W        W44342   0.874   1.337   1.143 -0.0996  0.2529  0.2220
41123W        W44343  12.702   6.883  14.009  0.0255  0.0057 -0.0661
41124W        W44344   3.821  12.440  15.559  0.2763 -0.0617 -0.0891
41125W        W44345  13.596  14.303  14.799  0.0604  0.0394  0.0593
41126W        W44346  13.573   1.724  12.296  0.0728 -0.0697 -0.1233
41127W        W44347  11.447  15.511   3.294 -0.2905 -0.0224 -0.0588
41128W        W44348   2.772   4.188  10.496  0.0374 -0.0532  0.3493
41129W        W44349  17.215   0.662  14.482  0.3093 -0.1500  0.0032
41130W        W44350  17.131   1.331   0.274 -0.0758 -0.1908 -0.2406
41131W        W44351  16.473  17.397  12.272  0.1312 -0.2209 -0.0028
41132W        W44352  14.308  16.895  16.533  0.0372 -0.0348  0.0134
41133W        W44353  15.306   5.406   1.693 -0.0598 -0.0260  0.0828
41134W        W44354   0.719   2.729  11.267  0.0791 -0.1923 -0.0061
41135W        W44355  16.506   1.199   0.388 -0.0115  0.0893 -0.2743
41136W        W44356  10.902   3.197  16.782 -0.1642  0.3549  0.3087
41137W        W44357  13.683   2.855  14.870  0.2103  0.0994  0.0624
41138W        W44358  15.365   4.368   2.744 -0.2650 -0.2654 -0.3669
41139W        W44359   4.977   5.777   2.686 -0.1788  0.0808 -0.1358
41140W        W44360  17.514  12.623   1.976  0.0630 -0.1176 -0.0899
41141W        W44361   1.792  18.227   3.146  0.1105 -0.1745  0.3708
41142W        W44362  17.933  16.989  16.785  0.1620  0.0190  0.0391
41143W        W44363  15.658  16.282   3.009  0.0672 -0.0878  0.1280
41144W        W44364  12.478   5.921  13.789 -0.0769  0.4364  0.0264
41145W        W44365  17.330   4.555   3.220 -0.2091  0.3371  0.1689
41146W        W44366   2.775   6.533   8.357 -0.0410  0.0108  0.0996
41147W        W44367   2.965  14.477  17.182  0.1604  0.0342 -0.0665
41148W        W44368  17.505   3.033  17.787 -0.2204 -0.2132  0.1292
41149W        W44369  16.601  17.638  17.835  0.4331 -0.1801 -0.3286
41150W        W44370  11.745   8.830  13.278  0.2070  0.0851 -0.1992
41151W        W44371   5.574  16.926   4.096  0.2247  0.2378  0.0285
41152W        W44372  13.078   9.912   0.352  0.1899  0.1992  0.2560
41153W        W44373   0.651   2.492  12.193  0.2206  0.0401  0.0705
41154W        W44374  14.785   1.385   1.787 -0.0146 -0.3027  0.0785
41155W        W44375  15.996   7.259  14.744 -0.1028 -0.1508 -0.2949
41156W        W44376  12.257  15.139  16.874 -0.0798 -0.1499  0.0473
41157W        W44377  17.444  16.818  14.533  0.0344 -0.1878 -0.0571
41158W        W44378  17.199   5.740  17.897 -0.0118  0.0077  0.2386
41159W        W44379   2.632   8.512  18.030 -0.2472 -0.1130 -0.1740
41160W        W44380  16.243  16.713   3.387  0.0921 -0.1693 -0.1275
41161W        W44381  16.927   1.393   0.788 -0.1948 -0.1136 -0.0468
41162W        W44382  14.478  15.230  15.441 -0.1575 -0.1071 -0.1691
41163W        W44383  13.098   0.418  14.489  0.0245  0.1601 -0.2058
41164W        W44384  15.935   5.250   0.746 -0.2061 -0.0286 -0.1250
41165W        W44385   8.712  16.734  16.806  0.5125 -0.0069  0.2231
41166W        W44386  16.485   7.537   5.333  0.0596 -0.0698  0.0085
41167W        W44387  10.796   3.044   1.629 -0.0973 -0.0130  0.2367
41168W        W44388  16.922  15.347   0.323 -0.0440 -0.0996  0.2474
41169W        W44389   9.907   8.858   2.219  0.0657 -0.2381  0.2033
41170W        W44390  16.067   3.042  17.364  0.4343  0.1830 -0.0905
41171W        W44391  10.716   5.468  14.919 -0.0376 -0.1130  0.0436
41172W        W44392   1.269  17.145   0.154 -0.1393 -0.2100  0.1163
41173W        W44393   4.807  14.183   2.051  0.2136  0.0512  0.1835
41174W        W44394  13.787   3.060  15.413 -0.1972  0.1980  0.1816
41175W        W44395  14.928   1.856  14.987  0.2320  0.1204  0.0563
41176W        W44396  15.080  17.660  17.053  0.0156 -0.1051  0.3068
41177W        W44397  17.527  12.612  14.249 -0.2522 -0.0892 -0.0664
41178W        W44398  15.838   5.762   1.717  0.0071  0.0560 -0.1015
41179W        W44399  14.733  16.342   6.926 -0.2382 -0.0616 -0.3510
41180W        W44400  17.917   9.719   3.174 -0.0038 -0.1834 -0.2252
41181W        W44401  15.035   2.936   8.055  0.1462 -0.1628 -0.1494
41182W        W44402  16.327  15.096   3.274  0.1585  0.0554  0.2859
41183W        W44403  16.857   2.876  13.665 -0.0542  0.1160  0.0105
41184W        W44404  16.975   3.546  15.323 -0.0609  0.0526 -0.0423
41185W        W44405   0.398   3.043  13.156  0.0442 -0.1956 -0.3690
41186W        W44406   0.170   6.060  17.671  0.1738 -0.3748 -0.0212
41187W        W44407  17.755   4.573  12.527  0.0589  0.1537  0.1111
41188W        W44408  12.603   0.591  13.564  0.0222  0.3082  0.1442
41189W        W44409  11.274  13.121  18.134  0.0337  0.1064  0.0810
41190W        W44410  12.244  14.698  13.842 -0.2048 -0.1832  0.2228
41191W        W44411  10.727  16.883  16.845 -0.0577 -0.0939 -0.3162
41192W        W44412   0.060   0.108  13.051 -0.0365  0.0460  0.1539
41193W        W44413  14.889  18.064   1.469  0.0140  0.0354  0.1205
41194W        W44414   2.501   7.272   2.355  0.1256  0.0698 -0.2936
41195W        W44415  17.529   9.438   4.191  0.0003  0.4680 -0.2951
41196W        W44416   0.223   8.638  17.216  0.1400  0.3193 -0.2896
41197W        W44417  17.327   5.043  10.173  0.0535  0.0321  0.1754
41198W        W44418  11.802  17.352   8.453  0.3343  0.1136 -0.2396
41199W        W44419  14.076   8.578   2.750  0.1892 -0.0490 -0.1828
41200W        W44420  18.039   1.324   0.148  0.3723  0.0540  0.0801
41201W        W44421   9.648  17.093   3.089 -0.0977  0.0447  0.2470
41202W        W44422  13.876   0.660  15.761  0.0876 -0.0685 -0.2493
41203W        W44423  12.030   2.367   2.559  0.0282  0.0061  0.2326
41204W        W44424   1.589  13.509   0.121 -0.3481 -0.0893  0.1615
41205W        W44425  16.062  13.709  16.817  0.1814 -0.0635 -0.0253
41206W        W44426   8.601  17.456   7.516  0.0535 -0.0611 -0.3567
41207W        W44427  14.088  12.846  10.452 -0.2512  0.3966  0.1398
41208W        W44428  15.904   5.074   2.367 -0.2634  0.0817  0.0792
41209W        W44429  13.949  13.471   0.899  0.0673 -0.1361 -0.0531
41210W        W44430   9.132  17.510  12.518 -0.2331  0.0115 -0.2229
41211W        W44431   9.260   4.266   7.712  0.0064 -0.4538  0.0333
41212W        W44432  16.169  17.201  14.487  0.2023 -0.0585  0.1755
41213W        W44433  14.825   3.376  11.748  0.0080  0.0838 -0.0533
41214W        W44434   9.589  15.127  16.441  0.2363  0.1232 -0.1124
41215W        W44435  15.852   7.048  10.777 -0.1704 -0.2307  0.0037
41216W        W44436  15.011  15.740   3.555  0.0601  0.0845  0.0243
41217W        W44437  15.741   0.737  17.531 -0.1927  0.0939 -0.4058
41218W        W44438   1.863  16.666  13.311  0.0246 -0.3357  0.1614
41219W        W44439  16.644   5.348  11.800  0.0528  0.1064 -0.0569
41220W        W44440   3.673  14.055  15.421 -0.1339  0.3142  0.0338
41221W        W44441   1.031   0.289  11.457  0.0161 -0.1815 -0.0361
41222W        W44442  15.261  17.861  15.249  0.0247 -0.0580  0.0121
41223W        W44443   0.583   1.085  14.530  0.0430  0.0583  0.1007
41224W        W44444   0.284   9.730  16.614  0.0677  0.1325 -0.1256
41225W        W44445  14.730   0.126  18.085 -0.0594 -0.0263 -0.4920
41226W        W44446  17.120   8.506  16.543  0.1078  0.0056 -0.3868
41227W        W44447   0.208   1.714  13.982 -0.0885  0.1357 -0.0407
41228W        W44448  10.161   3.470  17.370  0.1240  0.2907  0.3972
41229W        W44449   7.912   4.125  10.570  0.0228  0.0696 -0.1869
41230W        W44450  17.257  16.178   4.573  0.1377  0.0172 -0.1518
41231W        W44451  15.521   2.683  16.975  0.0634 -0.1230  0.2202
41232W        W44452  17.675  11.398   7.623 -0.0365 -0.0182 -0.3462
41233W        W44453   6.627   7.776   4.800  0.0476 -0.3731  0.3274
41234W        W44454   0.276   6.411  15.866 -0.0501  0.2595 -0.0339
41235W        W44455   9.882   1.099   0.679 -0.2141 -0.0815 -0.0202
41236W        W44456  15.874   2.164  15.112  0.2529 -0.2996 -0.2849
41237W        W44457  18.245   3.229  13.272 -0.0167  0.1587 -0.1023
41238W        W44458   7.202  16.255  12.737 -0.1823 -0.1146  0.1989
41239W        W44459   0.327  12.570  11.637 -0.1844  0.2535 -0.2782
41240W        W44460   1.825   4.276   1.623 -0.2052  0.1585 -0.0318
41241W        W44461  16.819   3.109   1.124 -0.1736 -0.0499  0.0254
41242W        W44462  16.289   1.201   7.091 -0.2312  0.0244 -0.1710
41243W        W44463  13.984   7.502  13.961  0.0264  0.0520 -0.0396
41244W        W44464  17.353   1.448  14.583 -0.2936 -0.2141 -0.2224
41245W        W44465   1.416  16.797   9.130  0.1475  0.0752  0.0816
41246W        W44466   9.280   2.727  18.129  0.0261  0.2102 -0.0125
41247W        W44467  10.021   7.325   1.745 -0.1262 -0.0196 -0.2336
41248W        W44468   1.432   2.583  15.788 -0.0945 -0.2007  0.2405
41249W        W44469  13.191   5.976   0.508  0.0296 -0.1091 -0.2926
41250W        W44470  13.673   8.795   2.996  0.1940  0.2284  0.1275
41251W        W44471  11.769   1.160  12.276  0.1799  0.1484  0.2898
41252W        W44472  16.399   3.285   4.121 -0.1508 -0.2251 -0.0371
41253W        W44473  16.127   7.207  17.271  0.0582 -0.1171 -0.2293
41254W        W44474  16.204   5.780   3.920  0.3511 -0.3912 -0.0690
41255W        W44475  10.086  15.420  13.115  0.1614  0.3480  0.0198
41256W        W44476   1.650   3.036  16.101  0.1523  0.2968 -0.1057
41257W        W44477  17.459  14.388  11.823 -0.1311  0.1185 -0.1492
41258W        W44478  13.325   1.595  17.508  0.1615 -0.2024  0.2876
41259W        W44479  11.973  16.811   0.253 -0.0560  0.1113 -0.2097
41260W        W44480   0.307  16.180  13.538  0.1584 -0.0643 -0.1094
41261W        W44481  15.826   7.515  13.171  0.0482  0.1162  0.0482
41262W        W44482   4.437   4.666  17.747  0.1314 -0.4534 -0.0369
41263W        W44483   1.491  10.888  16.522  0.0049  0.2301  0.0594
41264W        W44484  12.743   3.320   2.066  0.3036  0.4561 -0.3420
41265W        W44485  12.303   4.118  14.337 -0.0179 -0.1322 -0.0531
41266W        W44486   0.574   8.538   0.253  0.2522 -0.3146 -0.1362
41267W        W44487  17.860   5.965  17.005 -0.1346  0.2728  0.0139
41268W        W44488  13.081  17.131  16.861 -0.1267 -0.1516 -0.1790
41269W        W44489  15.395   9.452  16.006 -0.0773 -0.0347 -0.0496
41270W        W44490  10.672   1.590  10.579 -0.1808 -0.0175  0.1138
41271W        W44491   1.386   4.307  12.423 -0.3149 -0.1350 -0.0679
41272W        W44492   4.154   3.078   9.488  0.2987  0.0621  0.1747
41273W        W44493  14.711   8.152  17.146 -0.1744  0.1061  0.0413
41274W        W44494  11.072   6.766  15.869  0.2543 -0.0562 -0.0104
41275W        W44495   1.068   4.388   9.103  0.0288 -0.2541  0.0522
41276W        W44496  15.512   6.823  16.769 -0.2122  0.0364  0.0120
41277W        W44497  12.090  16.606   4.621  0.0433 -0.0755 -0.0732
41278W        W44498  14.242  13.017  11.246  0.0472  0.3975  0.2974
41279W        W44499  17.107  13.836   1.092  0.2896 -0.0345  0.0901
41280W        W44500  17.560  17.153  15.208 -0.1323  0.1371  0.4606
41281W        W44501  17.855  14.246  11.072  0.1895  0.0073  0.0477
41282W        W44502   3.155   8.096   6.955  0.0581 -0.0998 -0.1874
41283W        W44503  12.645   4.017  12.993  0.1472 -0.0860 -0.0145
41284W        W44504  16.165   4.944  17.663  0.1176 -0.2357  0.0343
41285W        W44505  16.740   1.946  10.211  0.1051  0.0232 -0.0095
41286W        W44506   3.085   6.527   0.777  0.2359  0.0672  0.3536
41287W        W44507  15.143  11.954  15.871  0.0670 -0.0234  0.1163
41288W        W44508  13.897  17.993  14.436 -0.1955 -0.2115 -0.0071
41289W        W44509  16.528   7.445  13.867  0.1534  0.0611  0.3500
41290W        W44510  12.951   0.539  17.053  0.3389  0.0489 -0.0463
41291W        W44511  15.355   0.365  11.215  0.1757  0.1897 -0.2084
41292W        W44512  12.953   4.933   1.198  0.2816 -0.1423 -0.0666
41293W        W44513  15.132  16.731   2.484 -0.1532 -0.1371 -0.2121
41294W        W44514  14.651   3.509   9.164  0.1641  0.0853 -0.1600
41295W        W44515  16.157   0.393  16.163  0.2691 -0.1129  0.1228
41296W        W44516  16.834   5.222  12.269  0.1577 -0.2379 -0.3888
41297W        W44517   1.782  16.678   8.761  0.4558 -0.0386 -0.1246
41298W        W44518   9.671  14.612  11.284  0.2896 -0.1201  0.1774
41299W        W44519   2.643   3.412   1.042  0.0673  0.1097  0.0478
41300W        W44520  14.456  17.034  10.458  0.0014  0.4525  0.0248
41301W        W44521  13.221   3.863  17.159  0.0549 -0.0521  0.0772
41302W        W44522  14.066   6.261  16.785 -0.1448  0.1413  0.3610
41303W        W44523  10.586   5.898   4.915 -0.0656 -0.2066 -0.0538
41304W        W44524  11.914   5.606  17.435  0.0145  0.1571  0.2199
41305W        W44525  10.449  14.810  11.897  0.1957  0.0043  0.1354
41306W        W44526   3.065   1.251  17.371  0.0897  0.0651 -0.0486
41307W        W44527  18.103   0.503  12.816 -0.2033  0.0763 -0.0993
41308W        W44528  14.879   0.911  14.353 -0.0880  0.0177  0.0162
41309W        W44529  15.322   1.954   8.113  0.0968 -0.0140  0.0842
41310W        W44530   9.242  12.040   2.710  0.0205 -0.1304  0.1117
41311W        W44531  13.088   4.485   2.016 -0.0123  0.1402 -0.3872
41312W        W44532   6.485   3.060  13.023  0.0188 -0.0202  0.1530
41313W        W44533   0.012   5.665  15.799 -0.0514 -0.2307  0.0592
41314W        W44534  14.547   4.384  16.030 -0.3284  0.3102  0.1731
41315W        W44535  12.734  14.420  14.774 -0.0847 -0.3064 -0.1008
41316W        W44536  12.409   3.024   0.780 -0.4394 -0.0561 -0.1394
41317W        W44537  18.110   9.541  18.078  0.1346  0.0403  0.1588
41318W        W44538  16.266   3.299  13.837  0.1119  0.2602  0.0880
41319W        W44539   1.203   1.088   0.837 -0.0899  0.0433  0.0300
41320W        W44540  16.615  18.119  16.738 -0.1622  0.0013  0.0768
41321W        W44541  16.596  16.945   0.164  0.0272 -0.0296 -0.2241
41322W        W44542  15.864   7.614  15.882 -0.2215 -0.0023 -0.1194
41323W        W44543   3.301   8.418   6.477  0.0368 -0.0846 -0.0437
41324W        W44544   0.475   5.537   7.858  0.1671  0.0287 -0.3719
41325W        W44545  13.750   3.422   5.878  0.1883  0.1773  0.1468
41326W        W44546  10.591   5.275  12.748 -0.0654 -0.0865 -0.0271
41327W        W44547  16.327  13.595  15.584  0.1464 -0.1349 -0.1435
41328W        W44548   9.352   4.503   5.540  0.1818 -0.1978 -0.0235
41329W        W44549  14.387   0.376   1.720 -0.2142  0.0221 -0.0090
41330W        W44550   6.255  10.106   5.074  0.1658 -0.0566 -0.0581
41331W        W44551  13.258   7.292   6.068  0.3238 -0.0051 -0.0092
41332W        W44552   1.839  10.136   0.113  0.0395 -0.2061 -0.0656
41333W        W44553  15.805   7.239  16.883  0.1007 -0.0516 -0.1883
41334W        W44554  11.200  10.167   0.753 -0.1241  0.1749  0.0547
41335W        W44555   0.504   3.349   1.721  0.0060  0.0052  0.0662
41336W        W44556  10.316   3.962  18.113  0.0357  0.2514 -0.0319
41337W        W44557   8.616   2.398   9.999  0.1357 -0.4439  0.1914
41338W        W44558  14.617   2.085   3.321 -0.2757 -0.2297  0.1833
41339W        W44559   7.816   5.759   5.617  0.1057  0.2568 -0.1161
41340W        W44560  16.860   8.867  17.829  0.1839 -0.0810  0.2124
41341W        W44561  14.487   5.302   3.146 -0.1705 -0.2675 -0.1949
41342W        W44562  11.738   2.816  13.296  0.0102  0.3036  0.3537
41343W        W44563  14.270   9.606   0.221 -0.2936 -0.0946  0.1615
41344W        W44564  12.923   7.254   3.203  0.0652  0.0664 -0.0092
41345W        W44565  17.612   1.482   4.231  0.0137 -0.2445 -0.1864
41346W        W44566   3.600   7.945   3.012 -0.3016 -0.2012  0.1172
41347W        W44567  16.965   8.130  11.748 -0.0259  0.2785 -0.0854
41348W        W44568   2.752   4.716   8.345 -0.1263 -0.1513 -0.1650
41349W        W44569  14.481   7.951   3.884  0.2026  0.0268  0.0581
41350W        W44570   0.900   8.526   2.380  0.2814 -0.1657  0.2236
41351W        W44571  17.228   8.949  10.580  0.1364 -0.0370  0.2848
41352W        W44572  12.428   5.681   0.742 -0.1321  0.2831 -0.0678
41353W        W44573  11.668   5.868   9.770 -0.0107 -0.0388  0.4443
41354W        W44574   2.248   9.401  15.680  0.4114 -0.0538 -0.0802
41355W        W44575   4.703   0.718   1.525  0.0057 -0.0173  0.2147
41356W        W44576  16.247   1.427   1.880 -0.0654 -0.0089  0.0604
41357W        W44577   0.122  12.028  14.962  0.3046  0.1694  0.2542
41358W        W44578   2.856   6.544  17.412  0.3731  0.0428  0.2574
41359W        W44579  12.457   4.621  17.502 -0.1206  0.1301  0.0651
41360W        W44580  13.387   6.151  16.597  0.1393  0.5147  0.3617
41361W        W44581  14.578   2.778   2.468  0.3082 -0.2189 -0.0798
41362W        W44582   1.357   6.947   3.538 -0.1715 -0.0451  0.1723
41363W        W44583   3.954  13.738   2.261 -0.1967  0.2845  0.1673
41364W        W44584  12.131   7.109  13.863 -0.0683 -0.1453  0.1601
41365W        W44585  18.125  10.583  17.211 -0.1536  0.1030  0.0861
41366W        W44586  15.477   4.354   1.956 -0.1276  0.3857  0.0076
41367W        W44587   5.324   1.780   0.420 -0.1775 -0.0275 -0.2869
41368W        W44588  17.859  16.834   0.323  0.2935 -0.0660  0.1417
41369W        W44589   2.416  15.648  10.456 -0.3138 -0.0802  0.1260
41370W        W44590  10.277   5.580   1.738 -0.0970 -0.0433  0.1814
41371W        W44591  12.875   0.893   4.076 -0.0980 -0.2260  0.0482
41372W        W44592  13.721   9.722   1.674 -0.0578  0.0725  0.0105
41373W        W44593  13.793   6.065   5.653 -0.2166 -0.2852  0.0628
41374W        W44594   5.909   3.893   3.807  0.2649 -0.1267 -0.0515
41375W        W44595   1.571   7.514   2.685  0.0349 -0.2369 -0.1852
41376W        W44596  11.682   3.574   1.754 -0.4342 -0.0912  0.0828
41377W        W44597  12.602   3.220   4.950 -0.1202  0.2083 -0.2199
41378W        W44598  17.630   1.068  15.846  0.6190 -0.0449  0.0075
41379W        W44599  16.894   5.368   7.768  0.2929 -0.1271  0.2669
41380W        W44600   0.665  17.258  16.560 -0.0738  0.0145  0.0661
41381W        W44601  16.228   1.937   1.084  0.0559 -0.1805  0.1855
41382W        W44602   2.160   1.327  16.821 -0.1314  0.0197 -0.0459
41383W        W44603  11.151   2.631   2.749 -0.0315  0.1478  0.1260
41384W        W44604   4.240   2.529   3.001 -0.1559 -0.2743  0.1829
41385W        W44605  15.983   2.977   5.888  0.3234  0.0878 -0.0093
41386W        W44606   8.569   2.096   3.277  0.1459  0.0495 -0.0492
41387W        W44607  15.648   2.600   4.953  0.1050  0.2152 -0.0222
41388W        W44608   0.859  10.153  17.720  0.0875  0.0708  0.4402
41389W        W44609  14.708   2.431   8.244  0.2171  0.1930  0.1257
41390W        W44610   5.297  10.378   6.587  0.1242  0.0228  0.0373
41391W        W44611  10.970  15.874  15.144  0.3767  0.1632  0.1233
41392W        W44612  11.202   4.788   4.064 -0.3408  0.3903 -0.2593
41393W        W44613  17.385   4.265   4.436 -0.1606 -0.0646  0.2401
41394W        W44614  13.615   8.345   6.247 -0.1614 -0.0720  0.4469
41395W        W44615  16.106  10.473  17.577 -0.0853  0.0857  0.1958
41396W        W44616  13.631  11.481   1.100 -0.0535 -0.1266  0.0160
41397W        W44617   1.423  12.382   2.397  0.1381  0.2618 -0.0384
41398W        W44618  16.391   2.712   8.050 -0.0926 -0.0629  0.1105
41399W        W44619  16.373   6.870  18.026 -0.4534  0.0601 -0.3870
41400W        W44620  17.773   1.864   4.879 -0.0477 -0.0856 -0.1179
41401W        W44621  15.348  17.274  14.369  0.1695  0.0136 -0.1363
41402W        W44622  13.247   6.826   3.148  0.0223  0.1119 -0.0207
41403W        W44623  14.811   4.019  18.243 -0.0823 -0.1355 -0.1205
41404W        W44624  13.464   5.622  13.543 -0.5411 -0.3729 -0.0378
41405W        W44625  17.852   9.449   1.812 -0.2101  0.3812 -0.1410
41406W        W44626  13.249   1.971   9.197 -0.2108  0.1080  0.2083
41407W        W44627  11.612   0.414   2.750  0.1815 -0.2257 -0.0173
41408W        W44628  16.784   8.829   4.673 -0.1473 -0.2510  0.1044
41409W        W44629   4.080  16.479   6.008 -0.0612  0.0803  0.2209
41410W        W44630  11.056   8.668  13.930 -0.0867  0.1614 -0.0528
41411W        W44631   4.684   5.664   1.947 -0.0363  0.1024 -0.2568
41412W        W44632  15.572   8.508  16.590  0.0801  0.0129  0.0946
41413W        W44633  17.744   7.726   2.490  0.0808 -0.1210 -0.1079
41414W        W44634   0.621   9.613   4.808 -0.2096 -0.0907 -0.1295
41415W        W44635   4.209   5.475  16.040 -0.3615  0.2539  0.3347
41416W        W44636   0.909  12.180   5.019  0.1781  0.2230  0.2522
41417W        W44637   0.309   3.563  11.244 -0.2970 -0.0815  0.1417
41418W        W44638  13.589   6.183  14.432  0.1566  0.4355  0.1319
41419W        W44639  18.122   5.503  17.027 -0.1728 -0.0008  0.2707
41420W        W44640  10.281   3.457   3.221 -0.0151  0.0033  0.1362
41421W        W44641  15.386  10.297  12.122  0.2233 -0.1122 -0.0411
41422W        W44642  13.908   1.890   3.557  0.1358  0.0577 -0.1465
41423W        W44643  15.862   8.551  15.791  0.3449  0.1979 -0.1033
41424W        W44644  14.584   3.810  17.757  0.0655  0.0036 -0.3236
41425W        W44645   2.272  12.287  16.923 -0.0314  0.0229 -0.2274
41426W        W44646  13.267   9.405   7.277 -0.0540  0.1990 -0.2128
41427W        W44647  17.240   5.910   4.142  0.0229  0.0482  0.0888
41428W        W44648   0.578   5.109   6.589  0.0129  0.1254  0.2228
41429W        W44649  17.524   6.026  16.120 -0.1091 -0.0433 -0.0323
41430W        W44650  16.480   4.902   1.485  0.3558 -0.2188  0.0853
41431W        W44651   1.671   7.777  15.416 -0.1350  0.4163 -0.0790
41432W        W44652  16.087   7.888  16.207 -0.0213 -0.0796  0.2093
41433W        W44653  16.950   0.628   1.561  0.1086 -0.2281  0.0878
41434W        W44654  13.791  12.947   8.139  0.3015  0.0020  0.1723
41435W        W44655   0.373   5.329   4.092  0.0197 -0.0652  0.1667
41436W        W44656  17.139  13.366  17.919 -0.2605 -0.2323  0.3822
41437W        W44657  17.580  17.415   0.511 -0.0158 -0.1524  0.4002
41438W        W44658  10.221   5.119   4.681 -0.1866  0.0661 -0.1814
41439W        W44659  17.044  11.036   0.536  0.3997  0.3426 -0.1612
41440W        W44660  11.160   6.554   4.162  0.2681  0.2365 -0.3577
41441W        W44661   3.260  15.193   3.830  0.1143 -0.0346 -0.1278
41442W        W44662  13.280   7.177   7.890  0.0912 -0.0818 -0.4023
41443W        W44663   6.996  11.319   4.203 -0.3732 -0.2564 -0.1185
41444W        W44664   6.719   5.224  16.327  0.0278 -0.1066  0.0947
41445W        W44665  16.515  15.089   2.810  0.0295 -0.0372  0.1820
41446W        W44666   2.412  10.453   0.669  0.0465  0.3731 -0.1635
41447W        W44667   2.291  15.309  15.693 -0.0053 -0.2228  0.1213
41448W        W44668   5.243   6.206   0.946 -0.0209  0.3958  0.2964
41449W        W44669  11.255   6.290   5.812  0.0903 -0.3246 -0.1117
41450W        W44670  16.870   6.860   3.716 -0.0488  0.0233 -0.0104
41451W        W44671   1.110   8.376   1.985 -0.0698 -0.0644  0.0238
41452W        W44672   5.048   3.256   0.395  0.0838  0.2900  0.0048
41453W        W44673   1.963   4.932  11.989  0.1260  0.0105 -0.4111
41454W        W44674   9.819  11.589   9.934  0.2622 -0.0842 -0.1547
41455W        W44675  17.986   6.965   0.450  0.0492 -0.0719  0.0356
41456W        W44676   1.406  16.319   3.899  0.0776 -0.1198  0.1390
41457W        W44677   3.112   6.442   1.454 -0.0110 -0.2315 -0.1756
41458W        W44678   2.325  12.563  15.704 -0.1306 -0.0547 -0.1697
41459W        W44679  12.107  10.924  17.096  0.1557 -0.0623 -0.0914
41460W        W44680  11.517   1.500   5.275 -0.2067 -0.1043 -0.0595
41461W        W44681  16.214   5.960   2.637  0.0782  0.0738  0.1150
41462W        W44682  13.114  11.661   7.262  0.1861 -0.2372 -0.0633
41463W        W44683  15.736   2.216   5.329 -0.1928  0.1707 -0.0215
41464W        W44684   0.291   8.993   3.539  0.0024  0.0186  0.1176
41465W        W44685  16.516  14.346   2.141 -0.3038 -0.1786  0.0144
41466W        W44686  11.417   9.081   0.471 -0.0400 -0.2058 -0.0304
41467W        W44687  10.842   4.424   8.508  0.1171 -0.0547  0.3547
41468W        W44688  16.038   0.455   5.030 -0.0163  0.2625 -0.0566
41469W        W44689   2.040   7.649   0.976 -0.1033  0.2030  0.0269
41470W        W44690  16.517   7.549  12.975  0.0671  0.2654  0.1198
41471W        W44691  15.254  11.646   3.295  0.0806  0.2251 -0.0366
41472W        W44692  15.848   4.962   3.450  0.2231  0.0610  0.2286
41473W        W44693  16.609  18.213   0.431 -0.1057 -0.2009 -0.1839
41474W        W44694   7.178  15.557  17.166  0.2948 -0.0141 -0.1882
41475W        W44695  11.369   0.212   1.448 -0.0958  0.3087  0.0878
41476W        W44696  15.273   1.095   5.634 -0.1590 -0.0537 -0.1990
41477W        W44697  14.444   8.377   0.341 -0.1616  0.0710 -0.1444
41478W        W44698  17.120   8.532   0.426  0.1014 -0.3544 -0.1112
41479W        W44699  16.676  10.024  18.138  0.1930 -0.0074 -0.0851
41480W        W44700  14.398   8.423  17.886  0.0625 -0.0474  0.0979
41481W        W44701  10.290   2.463  14.225 -0.3679 -0.2092  0.2029
41482W        W44702  15.485  13.934   0.586 -0.2853  0.0021 -0.1460
41483W        W44703   1.598  10.324   0.810  0.0476  0.2242  0.1571
41484W        W44704  15.734   8.980   4.003 -0.1681  0.1224  0.0987
41485W        W44705   0.109   6.213   2.215  0.1498  0.1075  0.2031
41486W        W44706   2.063   5.061   3.103  0.0106 -0.2371  0.2975
41487W        W44707  10.949   7.547   5.006 -0.1540 -0.2380  0.1816
41488W        W44708  15.172  10.836   3.331 -0.2860  0.0117  0.0766
41489W        W44709  14.778   1.200   2.974  0.3780 -0.0237 -0.0087
41490W        W44710  10.864   4.470  15.150  0.0304  0.2133 -0.1537
41491W        W44711  15.631  11.869  17.683 -0.0178  0.1142 -0.1291
41492W        W44712  15.178  10.577   4.335  0.1322 -0.1688  0.0449
41493W        W44713  15.758  10.127   0.499  0.0646  0.1241 -0.1094
41494W        W44714  14.041   5.727  10.277 -0.2382  0.0512 -0.1033
41495W        W44715  12.841  12.886  10.228 -0.0127 -0.0538 -0.0364
41496W        W44716  17.808  14.388   1.637  0.1285  0.3174 -0.1770
41497W        W44717   2.219   5.066  17.076 -0.2656 -0.0267  0.0871
41498W        W44718  16.128   3.568   4.881  0.1720  0.3498 -0.0216
41499W        W44719   8.887  11.171   1.370  0.3886  0.0245 -0.3034
41500W        W44720   8.400   1.744   1.488 -0.2010 -0.1039 -0.1969
41501W        W44721  10.175  16.073  16.798 -0.0590  0.0308 -0.1271
41502W        W44722  10.236   3.674   6.251  0.0572  0.1286 -0.0044
41503W        W44723  17.253   5.575   2.606  0.0090  0.0222  0.0256
41504W        W44724   7.754   4.957   0.710  0.0646 -0.0848  0.0522
41505W        W44725  17.389   5.962   3.119 -0.0715  0.1419 -0.1701
41506W        W44726  13.262   3.363  13.973 -0.3227  0.2339 -0.2616
41507W        W44727  13.876   3.457  15.662  0.1023  0.0773 -0.0040
41508W        W44728  16.361  11.083  17.086 -0.0488 -0.2030  0.0244
41509W        W44729   1.797   0.155   3.927  0.0103  0.1590  0.1344
41510W        W44730  12.920   0.569   8.953 -0.2177  0.0179 -0.1620
41511W        W44731   3.490   6.559   5.602  0.0245  0.2547  0.2451
41512W        W44732  14.627   4.187   3.250 -0.1282  0.0150  0.1408
41513W        W44733  14.368  12.004  13.533  0.2027  0.0141  0.0527
41514W        W44734   9.230   0.053  16.035  0.1305  0.0293 -0.1640
41515W        W44735  15.966   7.724   3.103  0.1224  0.0930 -0.3719
41516W        W44736  16.764   0.812   3.092 -0.0103 -0.0116 -0.4356
41517W        W44737  18.259   3.715   5.428  0.0154 -0.0858  0.0540
41518W        W44738  11.934   2.696   6.988 -0.1435 -0.3286 -0.0628
41519W        W44739  15.453   5.789   3.175  0.4511 -0.0238  0.0577
41520W        W44740  12.350   3.361   1.763  0.2161  0.2587  0.0222
41521W        W44741   2.401   7.999   4.415  0.2119 -0.1022 -0.1751
41522W        W44742   2.228   6.967   3.870  0.3866 -0.3332 -0.1238
41523W        W44743  12.347   3.596  16.293  0.2457  0.1065  0.3087
41524W        W44744   1.815   0.153   1.426 -0.0437 -0.0990 -0.0246
41525W        W44745  11.202   9.958  15.979  0.2073  0.4013  0.1740
41526W        W44746   1.952   9.161   0.550 -0.1853 -0.2430 -0.0034
41527W        W44747   2.823  10.695   0.798  0.0112 -0.3410  0.1816
41528W        W44748   7.816   4.792  17.845  0.1320 -0.1570 -0.1149
41529W        W44749  11.688   3.120  12.023 -0.0987 -0.1786  0.6422
41530W        W44750  14.770   7.719  16.724  0.4653 -0.1393 -0.1050
41531W        W44751   5.833   9.783   2.956  0.1546 -0.2561  0.0146
41532W        W44752  15.289   9.302   3.022 -0.0489  0.1970  0.1329
41533W        W44753  14.093   6.528   4.422  0.0553 -0.2836 -0.2298
41534W        W44754   7.740   5.700  17.895  0.0100 -0.1775 -0.2287
41535W        W44755   4.869   2.418   8.452  0.2424  0.1488 -0.0766
41536W        W44756  14.866  17.641  13.535 -0.4251 -0.0407  0.1297
41537W        W44757  16.793   8.148   2.341  0.1397  0.1119  0.1168
41538W        W44758  15.050   2.351   6.479 -0.1101  0.0266 -0.0184
41539W        W44759  15.775  12.873   4.294  0.1374  0.0483 -0.2626
41540W        W44760   6.895   9.769   1.008  0.0213  0.1762 -0.3466
41541W        W44761  17.729   3.495   0.945  0.0455  0.0320 -0.0012
41542W        W44762  15.450  10.979  17.764  0.1652  0.0791 -0.1842
41543W        W44763  16.797   5.094  18.195 -0.1202  0.1179  0.1408
41544W        W44764   5.707   4.441   1.997  0.2700 -0.0880  0.3002
41545W        W44765   8.259   3.751   2.167  0.2344  0.0078 -0.0579
41546W        W44766   2.616   7.240   3.253  0.0317 -0.0388  0.2020
41547W        W44767   1.918   8.520   9.233  0.2299 -0.2029 -0.0068
41548W        W44768  17.200   9.841   4.497 -0.2128 -0.1146 -0.0899
41549W        W44769  17.868   6.076   0.497 -0.1679  0.1125  0.0457
41550W        W44770  15.045   6.003   1.476  0.1708 -0.0789 -0.1014
41551W        W44771  17.166   3.993   2.608 -0.1401  0.0442 -0.0595
41552W        W44772  17.130   0.528   3.327  0.2428  0.0727 -0.0679
41553W        W44773  16.170   3.872   1.665 -0.0794 -0.0293 -0.0870
41554W        W44774  16.604   9.301  17.656 -0.1281  0.0601 -0.1782
41555W        W44775  14.183   4.727   4.694  0.2571 -0.0335  0.2204
41556W        W44776   4.578   3.103   5.358 -0.1612  0.1796 -0.0649
41557W        W44777   8.391   6.646   3.835  0.1894 -0.1200  0.0212
41558W        W44778  14.921   5.919   5.104  0.1374  0.3526  0.2789
41559W        W44779   8.256  17.915  16.143 -0.1760  0.0412  0.0060
41560W        W44780  14.146   6.757   3.170  0.0376  0.0694 -0.4562
41561W        W44781  12.787   5.154   5.346  0.1594 -0.0315 -0.0310
41562W        W44782  17.422   6.464   4.115 -0.1720  0.0851 -0.3201
41563W        W44783  12.551   6.623   4.496  0.1192  0.0840 -0.0463
41564W        W44784  15.570   4.051   6.653  0.2196 -0.1273 -0.0664
41565W        W44785   9.352   1.621   6.006  0.1551 -0.1561  0.1927
41566W        W44786  17.568   6.493  17.483  0.1431  0.2393 -0.4018
41567W        W44787   3.020  18.062  17.228  0.0874 -0.0979  0.0244
41568W        W44788  13.066  11.210   4.300  0.1442  0.2482 -0.0528
41569W        W44789  16.686  12.286   5.819 -0.3643  0.0428  0.0915
41570W        W44790   2.284   3.698   3.242  0.2990 -0.1433 -0.1256
41571W        W44791  17.869  12.243  14.473 -0.1431  0.3224  0.0281
41572W        W44792  14.839   9.829   1.412 -0.1561  0.2163 -0.4039
41573W        W44793  15.052  14.407  17.371  0.2162  0.1360  0.0007
41574W        W44794   0.867   5.258   3.761 -0.3948 -0.0187  0.2393
41575W        W44795   4.138   2.708   1.245  0.0463  0.1142  0.2140
41576W        W44796  16.671   9.230   4.491 -0.0825  0.2144 -0.0344
41577W        W44797   2.032  17.214   6.263 -0.1300  0.2389  0.2463
41578W        W44798   7.138   8.173   2.220 -0.2387  0.0949  0.0484
41579W        W44799  17.802  10.980   5.293  0.2058  0.4059  0.1355
41580W        W44800   0.919  10.952  15.953 -0.1098 -0.2541  0.2775
41581W        W44801  16.148   4.547  17.391  0.2452  0.0891 -0.1257
41582W        W44802  16.450   5.062   2.005 -0.0583  0.2246  0.1524
41583W        W44803   1.570   3.098   2.085  0.0109 -0.0537 -0.2380
41584W        W44804  17.814   6.254   4.853 -0.4220  0.0453  0.0540
41585W        W44805   0.790   7.864   2.900  0.0095  0.0428 -0.2345
41586W        W44806  15.769   8.378   1.204  0.0713  0.0509 -0.2028
41587W        W44807   0.915   2.061   4.940  0.0817 -0.3094 -0.2012
41588W        W44808  18.180   7.735   2.063  0.1810  0.2528 -0.4429
41589W        W44809  12.163   6.203   4.946  0.1611  0.2689  0.1906
41590W        W44810  14.308   2.466  15.870  0.1822  0.1271 -0.1500
41591W        W44811  15.900   4.902  18.111 -0.2593  0.1019  0.0571
41592W        W44812   0.012   7.863   1.420 -0.0070  0.1491  0.1249
41593W        W44813   7.640  17.142   2.749  0.1184  0.2145 -0.3634
41594W        W44814   1.173   8.957   2.377  0.1563 -0.1946  0.0274
41595W        W44815  16.075   7.057   4.248  0.1182 -0.0108  0.1289
41596W        W44816   0.805   4.483   1.660  0.0570 -0.0174 -0.0849
41597W        W44817   7.770  17.949  17.940  0.0250  0.0094 -0.0863
41598W        W44818  12.702  13.479   6.214 -0.2021 -0.0915  0.2041
41599W        W44819  16.757   2.356   2.417 -0.1340  0.2419 -0.0237
41600W        W44820  11.612   7.200  15.031 -0.1532  0.0590 -0.0370
41601W        W44821   3.362  10.133  14.921 -0.3208 -0.3879 -0.0541
41602W        W44822  11.440   3.153   3.405 -0.2238  0.0562  0.2256
41603W        W44823  14.637   5.623   6.773 -0.1883 -0.0782 -0.0564
41604W        W44824   1.391  11.398   2.428  0.1326 -0.0058  0.1111
41605W        W44825   0.601   5.790  17.161 -0.0985 -0.0400  0.1339
41606W        W44826  15.688   4.470   3.839 -0.1008 -0.0823  0.0892
41607W        W44827  16.150  10.958   0.869 -0.1775  0.0597 -0.3727
41608W        W44828  12.490   7.188  10.078 -0.0118  0.5083 -0.3779
41609W        W44829  17.229  13.217  15.272  0.2153  0.5167 -0.0753
41610W        W44830  16.056  11.631   5.985  0.3700  0.0930 -0.1435
41611W        W44831   7.993  17.915  13.950  0.2309 -0.1363  0.0652
41612W        W44832  15.393   0.357  17.478 -0.1856  0.1447 -0.0056
41613W        W44833  11.128  12.792  14.151  0.1820  0.1720 -0.1353
41614W        W44834   7.489   1.971   1.766  0.1643 -0.1580 -0.0626
41615W        W44835   9.945   4.180   1.629  0.1088 -0.3709  0.0680
41616W        W44836  17.266   1.619  13.512  0.2922  0.2802  0.0536
41617W        W44837   6.077  10.922  15.975 -0.2458  0.0804  0.2415
41618W        W44838   4.005  10.035   2.720 -0.2397 -0.3478  0.3214
41619W        W44839   0.686  12.587  17.282  0.1986  0.0783  0.1016
41620W        W44840  11.713   5.720   2.141  0.0221  0.1286  0.1182
41621W        W44841   9.942   5.544   7.166  0.2714 -0.1250 -0.0611
41622W        W44842  13.538  10.620  10.643  0.3138  0.2254 -0.1732
41623W        W44843   5.907  10.111  16.280 -0.0543 -0.1007 -0.2308
41624W        W44844  17.280   3.021   2.714 -0.2614  0.2803 -0.0255
41625W        W44845  11.413  11.104   0.341  0.2052  0.1055  0.0096
41626W        W44846   0.219   4.970   3.145 -0.3754 -0.1665 -0.1617
41627W        W44847  18.100   6.342   9.128 -0.3808 -0.2445  0.0002
41628W        W44848  14.541   5.688   3.472  0.2888 -0.1393  0.0574
41629W        W44849  11.333   5.433   2.435  0.2407 -0.2803  0.3586
41630W        W44850   1.053   9.805   5.170 -0.3386  0.1188 -0.2232
41631W        W44851  15.391   0.358   0.473  0.1934 -0.0430  0.1845
41632W        W44852  17.765   9.060   3.986  0.2042  0.1248  0.1957
41633W        W44853  12.947   3.676  15.832  0.0185 -0.3167  0.1371
41634W        W44854  14.801   4.638  17.637 -0.1226  0.0999 -0.2037
41635W        W44855   3.271   1.066   4.835  0.3186 -0.0458  0.0688
41636W        W44856   1.634   3.781   2.754  0.0390  0.3271  0.0167
41637W        W44857   4.848   7.562  17.495 -0.1326  0.3254  0.1071
41638W        W44858  13.491   9.137   0.301  0.2439  0.1749 -0.1075
41639W        W44859   9.157   4.562   6.147  0.0630 -0.0081 -0.2424
41640W        W44860  15.950  11.180  10.219 -0.1432 -0.1374  0.2045
41641W        W44861  16.399   9.947  16.134  0.2059  0.0292  0.3408
41642W        W44862  17.692  10.697  14.658  0.3143  0.2950 -0.1237
41643W        W44863   6.584   8.864   9.319 -0.1400 -0.0271  0.0400
41644W        W44864   0.154   8.492   3.961 -0.2944  0.0027  0.1036
41645W        W44865  13.281   3.316   0.451 -0.0178 -0.0495 -0.1321
41646W        W44866  11.165   2.231   6.296  0.1955 -0.1102  0.2545
41647W        W44867   1.261   2.967   6.393  0.0528  0.0245  0.0839
41648W        W44868  16.319   5.896  12.278  0.1259  0.0790  0.0340
41649W        W44869   7.751   4.701   9.702 -0.3154 -0.0061 -0.1311
41650W        W44870   0.840   8.588   6.363  0.0342  0.0873 -0.2052
41651W        W44871   5.735  10.400   4.167  0.2476  0.4347 -0.2977
41652W        W44872   9.484  12.331  15.853  0.3152 -0.0589 -0.2973
41653W        W44873   3.208  15.257   0.471 -0.0585 -0.0586  0.2443
41654W        W44874  10.840  10.909  16.446  0.0810  0.1780 -0.0066
41655W        W44875  15.711   4.715  17.614 -0.1094  0.0140  0.0775
41656W        W44876   3.815   4.410   3.402  0.1351  0.3051 -0.1969
41657W        W44877  11.039   4.106   0.430 -0.1367 -0.2734 -0.0833
41658W        W44878   5.807   6.708  13.148 -0.3055 -0.2305  0.0546
41659W        W44879  17.108  11.788  16.202  0.2381 -0.1521 -0.3119
41660W        W44880   1.010   3.742   6.521  0.3322 -0.2166  0.1143
41661W        W44881  12.690   6.115  13.334  0.0425  0.2373  0.1281
41662W        W44882   4.714   7.122   1.508 -0.0670 -0.3740 -0.0989
41663W        W44883  17.255  12.184  17.922 -0.0040 -0.1174 -0.1215
41664W        W44884   7.053   5.784   4.481 -0.1105  0.3081  0.0871
41665W        W44885  15.646   6.609  10.880  0.2865  0.0119 -0.0702
41666W        W44886   1.868  14.343  13.846  0.0592  0.3240  0.2296
41667W        W44887   1.246  10.739  17.979 -0.2003 -0.0336  0.3796
41668W        W44888  17.797   9.825   0.404 -0.4643 -0.1337 -0.0712
41669W        W44889  15.282  11.475   0.215  0.4394 -0.0727  0.0258
41670W        W44890   7.784   3.208   5.038  0.0931 -0.1144  0.0055
41671W        W44891  16.754   3.315  11.805  0.1096  0.3434 -0.2145
41672W        W44892  16.302   6.367   7.736  0.2512  0.0259  0.2115
41673W        W44893  12.221   6.024  16.158 -0.0303 -0.1908  0.0286
41674W        W44894   1.277   8.967   5.808 -0.0744 -0.0019 -0.1825
41675W        W44895   7.460   5.184   0.225 -0.1731  0.1887  0.2532
41676W        W44896   3.263  10.454   5.313 -0.4257  0.2136 -0.0843
41677W        W44897  15.910  10.263   0.953  0.2811 -0.0513 -0.0810
41678W        W44898  15.941   9.068   4.912 -0.2125  0.1609  0.1020
41679W        W44899   0.107   6.844   0.848 -0.1108 -0.0139  0.1216
41680W        W44900   2.365  16.100   4.241 -0.0026  0.0687 -0.3792
41681W        W44901   1.417   7.924   8.508  0.1350  0.0812  0.0436
41682W        W44902   0.203   5.207  18.155  0.3652  0.1875 -0.1501
41683W        W44903  14.957   6.891  18.194 -0.0778 -0.1933  0.2034
41684W        W44904  15.368   1.847  15.187 -0.4762  0.0867  0.0792
41685W        W44905  17.292   6.078   0.417  0.2210  0.2569  0.2118
41686W        W44906  17.219   5.936  15.196  0.2370  0.2140 -0.0573
41687W        W44907   1.321  11.962   2.709 -0.2811 -0.1349  0.0748
41688W        W44908  16.127   7.626  16.994  0.0974  0.2276  0.0082
41689W        W44909  13.058   6.295  14.455  0.1152 -0.0650 -0.0460
41690W        W44910  15.732  18.123   7.911 -0.1781 -0.2907  0.0495
41691W        W44911   1.843  10.202  17.542 -0.3403 -0.0093 -0.1421
41692W        W44912  17.217   8.116   4.883  0.0648 -0.0909 -0.4051
41693W        W44913  16.601  10.654   2.711 -0.1069  0.1189  0.0724
41694W        W44914   1.142  11.285  16.372 -0.1045 -0.1302 -0.0558
41695W        W44915  16.951   7.000   6.820 -0.3174 -0.0999  0.1964
41696W        W44916  18.064  10.030   4.024  0.0356  0.0785 -0.0049
41697W        W44917  13.375  17.312   2.379 -0.1267  0.4515  0.0474
41698W        W44918   0.457  15.624   5.959  0.1194 -0.0969  0.0938
41699W        W44919  14.724  14.217   3.531 -0.0735 -0.0462  0.1008
41700W        W44920   1.214   9.699  16.445 -0.0738 -0.0549 -0.0927
41701W        W44921   0.103   9.213   0.898  0.0503  0.3103  0.1274
41702W        W44922   7.946   7.618   4.881 -0.0580 -0.0047  0.0361
41703W        W44923   2.309   6.833   4.349 -0.0320 -0.1513 -0.1954
41704W        W44924  17.728   2.621   5.336  0.0942  0.1040  0.1286
41705W        W44925  18.082   5.617   1.202  0.1867 -0.1249  0.1395
41706W        W44926   2.385  12.118   5.882  0.1728  0.1712  0.1203
41707W        W44927   9.005  10.521  18.081  0.0699 -0.0281 -0.0403
41708W        W44928   0.276   8.279   4.903  0.0708 -0.0562 -0.2166
41709W        W44929   0.958   7.047  14.707  0.2738  0.0793 -0.2206
41710W        W44930   9.144  10.394   7.989 -0.2501 -0.0535  0.0456
41711W        W44931   1.931  10.751   5.995  0.0843  0.1346  0.1473
41712W        W44932  17.632   6.373  13.915 -0.3057  0.1441  0.1828
41713W        W44933   3.099   6.926   5.140  0.1779 -0.2967 -0.0463
41714W        W44934  17.998   9.096   2.174  0.1156  0.4251  0.0941
41715W        W44935  15.884   7.240   6.045 -0.2279 -0.0332 -0.1332
41716W        W44936  17.222   7.533   2.258  0.0863 -0.1830 -0.0197
41717W        W44937   2.206   4.804  17.969 -0.0787 -0.3828 -0.1848
41718W        W44938   2.738  10.239   9.512  0.3440  0.2009 -0.0316
41719W        W44939  16.872  10.159   7.985 -0.6387  0.0522 -0.0597
41720W        W44940   1.045  14.190   6.822  0.0141 -0.0372 -0.1571
41721W        W44941   0.815  14.625   5.411  0.0936 -0.1390  0.0146
41722W        W44942  13.768  16.941   2.036 -0.1403  0.0675 -0.1986
41723W        W44943  17.322   3.488   7.570 -0.1210  0.3243 -0.2412
41724W        W44944   2.396   2.998   0.451  0.2453 -0.0134  0.1644
41725W        W44945  14.225   1.566   5.359 -0.2402  0.0655 -0.1534
41726W        W44946  14.266   4.538  10.519  0.1721 -0.2103  0.2314
41727W        W44947   2.814   9.891   6.436 -0.0560 -0.0512 -0.1349
41728W        W44948   6.705  13.010  17.986  0.0034 -0.1157  0.1001
41729W        W44949   2.165  10.658  17.807  0.0032  0.0466  0.0747
41730W        W44950  12.792   2.730   4.165 -0.0193  0.2114  0.1965
41731W        W44951   5.077   7.667   6.303  0.0839  0.2876 -0.0548
41732W        W44952  13.360   6.204   3.618 -0.1652 -0.0860 -0.0127
41733W        W44953  16.316   6.647   6.631 -0.1488  0.5074  0.0258
41734W        W44954  17.852  10.417  11.184  0.1848 -0.2391  0.0573
41735W        W44955  15.176   6.922   4.987 -0.1866 -0.2577  0.0594
41736W        W44956  15.490   3.619  10.569 -0.2834  0.2954 -0.0016
41737W        W44957  11.239   8.535   4.922  0.3049 -0.3312  0.0960
41738W        W44958  15.437   3.289   7.056 -0.0269 -0.0635  0.1069
41739W        W44959   4.943   5.413   9.248 -0.0911  0.0363  0.0474
41740W        W44960  15.335  11.786  10.123 -0.0442  0.2739 -0.0787
41741W        W44961  14.885  10.851   2.873  0.1612 -0.1453  0.3732
41742W        W44962  16.696   5.520   0.904 -0.1473 -0.2445  0.0217
41743W        W44963   4.315   5.471  10.153 -0.1194 -0.2204 -0.1577
41744W        W44964  18.178  11.247  17.561 -0.1552 -0.0483 -0.0799
41745W        W44965   1.705   7.547  16.420  0.1030  0.0161 -0.1932
41746W        W44966   3.876   9.414  16.347 -0.0455 -0.0048  0.0094
41747W        W44967  13.104  10.913   5.804 -0.3065  0.5891  0.1185
41748W        W44968  15.339   6.024   4.646 -0.0179  0.1418 -0.4554
41749W        W44969  15.084   1.921  10.265 -0.1034  0.0748 -0.2408
41750W        W44970   9.965   8.395   6.922 -0.1175  0.0105 -0.1072
41751W        W44971  11.764   5.264   2.767  0.3116 -0.0082  0.3399
41752W        W44972  14.084   3.660   9.996 -0.2912 -0.0794  0.2089
41753W        W44973  14.380   6.129   9.002 -0.3380  0.3323  0.0787
41754W        W44974  10.371   4.906   5.121  0.0518  0.1917 -0.3682
41755W        W44975  15.286  11.613  16.728  0.1002  0.0734  0.1428
41756W        W44976  12.167   3.159  11.763  0.3428 -0.0600 -0.2946
41757W        W44977   4.827   4.542   6.153  0.2535  0.1208  0.1047
41758W        W44978   1.561   6.953   8.783  0.3568 -0.0993  0.0397
41759W        W44979  16.656   6.933  15.703 -0.3428 -0.0659 -0.1810
41760W        W44980  16.274   9.354   2.001 -0.1530  0.0037 -0.1929
41761W        W44981  13.525   1.103   1.295  0.1772 -0.1914  0.0465
41762W        W44982  16.788   5.685  10.662 -0.0034  0.0733 -0.0784
41763W        W44983   6.385  14.983   8.537 -0.0946  0.2667  0.3161
41764W        W44984  16.838  17.770  10.596  0.2544  0.1067  0.1596
41765W        W44985  17.840   8.578   0.082 -0.3074  0.0635 -0.0800
41766W        W44986  11.669  14.228   7.951  0.1660  0.0024 -0.3091
41767W        W44987   3.266   3.005   2.776 -0.4181  0.0077  0.3412
41768W        W44988  18.048   5.791   6.814 -0.2889  0.2434  0.4159
41769W        W44989   3.005   6.919   4.114 -0.1797  0.0176 -0.2990
41770W        W44990  11.425   4.560   5.104  0.1235  0.4312 -0.1486
41771W        W44991  11.868   6.855   6.496 -0.3332 -0.1696  0.2871
41772W        W44992   0.168   2.938   4.740 -0.0631  0.0772 -0.1391
41773W        W44993  13.723   8.824   6.789 -0.2469 -0.2033 -0.0266
41774W        W44994  13.273   1.228   8.549 -0.0284  0.0939 -0.3608
41775W        W44995   2.866  13.056   9.535 -0.0210 -0.0561  0.0477
41776W        W44996  13.292   7.362   1.314  0.0880  0.2669  0.2178
41777W        W44997  11.411   3.988   4.676 -0.1043 -0.1554  0.3544
41778W        W44998  16.378   7.897  11.028 -0.1915 -0.4563 -0.0070
41779W        W44999  17.724   3.591  14.654  0.2294 -0.0908  0.2496
41780W        W45000   1.362   3.199   7.204 -0.1306  0.1126 -0.0952
41781W        W45001   0.541   0.920   5.949 -0.0102 -0.2974  0.0175
41782W        W45002   8.929   0.462   8.251 -0.2626  0.0439  0.1629
41783W        W45003   3.068  13.263   3.603  0.1014 -0.1534 -0.1825
41784W        W45004   4.287   8.383   0.886 -0.0976  0.3368  0.0556
41785W        W45005  14.862   3.501   4.471  0.0678  0.0050 -0.0545
41786W        W45006   1.774   4.920   9.353 -0.3663 -0.0572 -0.2436
41787W        W45007  12.534   6.155   5.429 -0.3344 -0.1178 -0.1208
41788W        W45008  12.382  16.269   9.070  0.1125  0.3147 -0.1705
41789W        W45009  12.346   3.428   3.835 -0.0362 -0.1423 -0.1085
41790W        W45010   3.998   6.775   0.104 -0.1949 -0.1490 -0.2444
41791W        W45011  15.639  15.362   9.139  0.1466  0.0331  0.0479
41792W        W45012  12.926   1.180   6.140 -0.0240 -0.2391  0.2516
41793W        W45013  13.273   2.557   0.537 -0.0392 -0.2335 -0.0808
41794W        W45014  11.009   5.690   9.231 -0.1192  0.0165  0.1646
41795W        W45015   3.594  11.936   5.388  0.1609  0.1763  0.0980
41796W        W45016  14.187   1.925   1.982  0.1915 -0.0266  0.1358
41797W        W45017  16.078   5.684   5.705 -0.0588  0.0169  0.0027
41798W        W45018  17.658   3.672   3.603 -0.0604 -0.2366 -0.1979
41799W        W45019   6.225  17.745   6.746  0.0783 -0.4065  0.0638
41800W        W45020   3.831   9.561   9.316 -0.0401  0.1114 -0.2060
41801W        W45021  12.578  12.381   3.150 -0.0864 -0.1354  0.0072
41802W        W45022  12.852   2.513   1.503 -0.2211  0.1403  0.0277
41803W        W45023   1.953   3.244   2.965  0.0059  0.1911 -0.2797
41804W        W45024   3.154   3.529   5.750  0.0886 -0.1057  0.0928
41805W        W45025   1.015   8.995  10.440 -0.1582 -0.0293 -0.0099
41806W        W45026   3.339   9.307  10.914  0.1126  0.1509 -0.0028
41807W        W45027  15.974   5.949   6.944  0.0584 -0.1043  0.3007
41808W        W45028   5.201   7.109   3.412  0.1059  0.2569 -0.2809
41809W        W45029  15.796   7.758   4.000  0.1291 -0.0442  0.0206
41810W        W45030   0.645   2.127   5.655  0.3042 -0.2060 -0.1298
41811W        W45031   9.269   8.022  18.010  0.0771  0.2446 -0.1292
41812W        W45032  12.384   9.270   4.716 -0.1836  0.1456  0.1528
41813W        W45033   2.861   8.021  10.489  0.2434 -0.1181 -0.1946
41814W        W45034   2.856   4.265   4.462 -0.3187 -0.0937  0.2120
41815W        W45035  13.817   1.741   7.128  0.2114  0.0026 -0.2557
41816W        W45036  17.096   8.302   3.760 -0.2325  0.1192 -0.0652
41817W        W45037   3.168  13.517  10.486  0.3718 -0.0229  0.0661
41818W        W45038  17.668   7.873   5.053 -0.0676  0.3309 -0.2556
41819W        W45039   0.156   2.955   1.627 -0.1859 -0.1149  0.1557
41820W        W45040   3.254  10.496  18.182 -0.0043 -0.0854  0.1623
41821W        W45041   0.289   5.956   0.409 -0.0188  0.2511  0.2245
41822W        W45042  17.921  15.708  13.034 -0.0056 -0.2834 -0.2489
41823W        W45043   3.489   5.931  15.577  0.2117  0.2246 -0.0147
41824W        W45044  12.537   8.443   3.627 -0.2785  0.1012  0.1630
41825W        W45045  17.872   2.365   8.916  0.1169 -0.0706 -0.1709
41826W        W45046   2.146   6.946  17.835 -0.0733  0.3625 -0.0562
41827W        W45047   0.464   4.561   7.405 -0.1828 -0.1038  0.0434
41828W        W45048   7.346  10.017   1.919  0.0889 -0.1312 -0.2801
41829W        W45049   5.555   9.689   3.398 -0.1286  0.2258 -0.0427
41830W        W45050   0.824   6.574   3.709 -0.1822  0.0293 -0.0009
41831W        W45051  13.180   8.653  10.530 -0.0932 -0.0784  0.1287
41832W        W45052   3.098   5.834   0.198  0.3161 -0.0371  0.1184
41833W        W45053   0.028  11.973   0.673 -0.1730 -0.1061  0.0436
41834W        W45054   0.250   7.537   1.759  0.0194  0.0074 -0.0133
41835W        W45055  17.485   6.661  16.075 -0.1641  0.2398 -0.2101
41836W        W45056   3.031   3.228   6.782 -0.1111 -0.2605  0.0364
41837W        W45057  14.701   6.044   2.848 -0.6003 -0.0469  0.0310
41838W        W45058  16.419  13.406   3.285 -0.1794  0.2247  0.0242
41839W        W45059   0.197   9.370   8.324  0.4413  0.2131 -0.4187
41840W        W45060  18.209   0.003   6.102  0.0252  0.1824 -0.2603
41841W        W45061   8.368   8.176   6.672  0.2062 -0.1024 -0.1209
41842W        W45062  14.192  11.313  17.040 -0.3689  0.2441  0.0039
41843W        W45063   0.441   8.712   7.258  0.1010  0.2159 -0.1052
41844W        W45064  15.238   5.096   5.759  0.0875  0.0468  0.2224
41845W        W45065   2.757  14.518   4.036  0.1341 -0.3090 -0.0468
41846W        W45066  13.862   5.534  13.856  0.1216 -0.0506  0.0591
41847W        W45067  13.222  10.623  17.792 -0.1883 -0.1495 -0.1233
41848W        W45068  16.526   3.128  17.512  0.3015 -0.0507  0.1402
41849W        W45069  14.733   5.397   0.432  0.0992 -0.0098 -0.0713
41850W        W45070   2.364   4.322   8.162  0.1042  0.1032 -0.2467
41851W        W45071  16.161   8.665   6.687 -0.1947 -0.1684  0.0959
41852W        W45072   1.633   7.377   0.827 -0.3640  0.0932  0.1377
41853W        W45073  13.101   6.669   3.641  0.1337 -0.3647 -0.1512
41854W        W45074  15.412   3.435   3.671  0.3585  0.1728  0.0962
41855W        W45075   3.580   5.664   4.573  0.2582 -0.0580  0.2447
41856W        W45076  14.619   8.897   1.661 -0.0841 -0.1748  0.2769
41857W        W45077  16.937   7.112   4.532 -0.0791  0.6274  0.3867
41858W        W45078   3.510  12.415   3.895 -0.0892  0.1063  0.1177
41859W        W45079  12.028   9.483  17.053  0.2211  0.0035  0.1083
41860W        W45080  15.804   7.338   3.412 -0.4210  0.3002 -0.2123
41861W        W45081   1.564   8.359   4.898  0.0001  0.0619 -0.3818
41862W        W45082  17.403   3.959   2.166  0.0367  0.2397  0.0302
41863W        W45083  13.108   6.785  15.688  0.4398  0.2375 -0.2400
41864W        W45084  17.683   7.853   4.478 -0.0982  0.1174  0.0923
41865W        W45085   3.231   6.936   6.037  0.1805  0.0476  0.2576
41866W        W45086   2.038  16.492   1.325  0.1394 -0.0792 -0.3730
41867W        W45087  12.276   2.584  10.354 -0.1518  0.0104 -0.0794
41868W        W45088   0.876   3.053  11.730 -0.0885 -0.0879  0.0106
41869W        W45089  16.521   9.469  10.248 -0.0543  0.1868 -0.2448
41870W        W45090   3.516   8.990  18.187 -0.1185 -0.2299 -0.2500
41871W        W45091  17.724   1.427   1.201 -0.1390 -0.2471 -0.2292
41872W        W45092  12.890  15.781   7.795  0.0348  0.2466 -0.0366
41873W        W45093  12.214   2.265  11.476 -0.3087  0.0659  0.0100
41874W        W45094  15.896   8.324  16.260 -0.2067 -0.1892  0.1699
41875W        W45095   8.246   5.199  16.146 -0.0219  0.0248  0.0360
41876W        W45096   0.004   8.052  10.367 -0.1254 -0.0333  0.2240
41877W        W45097   0.936   5.432  10.410 -0.0411 -0.0849  0.3599
41878W        W45098  15.658   8.847   1.510  0.1997  0.1406  0.1691
41879W        W45099   0.048   8.879   1.533 -0.1178 -0.1442  0.0872
41880W        W45100  15.854  14.415   5.554 -0.0048  0.0229 -0.2057
41881W        W45101   6.740   7.726   0.613 -0.0584  0.0790 -0.0024
41882W        W45102   1.893   8.898   9.985 -0.0712 -0.1978 -0.1175
41883W        W45103  10.553  10.508   1.269 -0.0475 -0.0448  0.2850
41884W        W45104  16.438   4.424   6.900 -0.0616  0.0773 -0.1671
41885W        W45105  13.371  10.983   4.714 -0.2179  0.0010 -0.3868
41886W        W45106   2.326   8.049   1.666 -0.1241 -0.0707 -0.3069
41887W        W45107  15.304  11.072   8.816 -0.0738 -0.1950  0.0388
41888W        W45108   0.632  11.372  11.163  0.1366  0.1297 -0.1640
41889W        W45109  10.455   2.621  10.228  0.3098  0.0434 -0.1632
41890W        W45110  17.750   6.980   6.541  0.0641  0.0035 -0.1033
41891W        W45111   0.895   6.245   4.123 -0.1053  0.0504 -0.2367
41892W        W45112   0.520  11.865   9.111  0.1186 -0.0762  0.0401
41893W        W45113   1.933   7.979   4.082 -0.0856  0.1140  0.1071
41894W        W45114  16.127  10.564   2.444  0.0337  0.0177  0.2814
41895W        W45115   9.052  10.512   2.107  0.0351  0.1108 -0.3181
41896W        W45116  13.265   3.135   2.146 -0.1639 -0.1279 -0.0089
41897W        W45117   0.497   6.379   5.918 -0.0329  0.0436 -0.1678
41898W        W45118   4.782   5.399  12.078  0.1330 -0.0856 -0.0817
41899W        W45119  17.621   4.730   8.025  0.2542 -0.0167  0.0598
41900W        W45120  17.611   8.833  17.858 -0.0250  0.0738  0.1313
41901W        W45121   2.979  10.001  17.084 -0.1330  0.2477 -0.2178
41902W        W45122  14.716  12.540   6.112 -0.0976  0.0288 -0.2059
41903W        W45123  12.444   9.735  18.001 -0.1188  0.2388 -0.0259
41904W        W45124   2.541   1.057   5.692  0.0033 -0.0871  0.1837
41905W        W45125   3.139   5.650   4.345 -0.0528  0.2300  0.1714
41906W        W45126  13.111   3.469   4.403 -0.1881 -0.0180  0.2085
41907W        W45127  10.621   5.294   9.073 -0.0422 -0.0773 -0.1053
41908W        W45128  13.800   2.261   4.247 -0.0856  0.0394 -0.3152
41909W        W45129   3.650  18.107   2.248 -0.5269  0.3558 -0.0280
41910W        W45130  10.202   5.430   9.286 -0.0905 -0.1113  0.0616
41911W        W45131   3.425   6.379   7.065  0.0503  0.3309  0.0505
41912W        W45132   0.541  12.751   8.999  0.2494  0.0672 -0.1025
41913W        W45133  15.375   7.150   6.037 -0.1355  0.0223  0.0953
41914W        W45134   2.958  10.629   3.373  0.2349  0.1139  0.3847
41915W        W45135  17.019   3.001  10.531 -0.1266  0.3425  0.0290
41916W        W45136   1.207   4.257   2.679  0.0899 -0.0700  0.0787
41917W        W45137  16.860   5.910   9.383  0.0589  0.2436  0.2229
41918W        W45138   2.940   5.478  10.018  0.2603 -0.1043 -0.0382
41919W        W45139   5.864   4.347   5.626 -0.1737  0.0150 -0.1469
41920W        W45140  16.987   6.146   1.859  0.0474  0.2401 -0.0164
41921W        W45141  16.964  10.192   3.548  0.2388  0.0060  0.1649
41922W        W45142  10.845   0.527  18.006  0.0982  0.2033  0.2876
41923W        W45143  16.814  15.653  13.063  0.2310 -0.0862  0.0512
41924W        W45144  17.020   9.195   3.354 -0.1220  0.2574  0.3147
41925W        W45145   0.252   5.116   7.987 -0.2391  0.1430  0.1021
41926W        W45146   4.015   2.071   6.401  0.2320 -0.1881 -0.1090
41927W        W45147  15.412   6.050   6.187 -0.2676  0.2027  0.0765
41928W        W45148   2.318   4.224   3.798 -0.4525 -0.0733 -0.0058
41929W        W45149  14.398   2.692   9.198 -0.0645  0.3658  0.2469
41930W        W45150  13.609   3.213   9.166 -0.1549 -0.2674  0.1070
41931W        W45151  17.109   3.256  13.983  0.1140  0.4091  0.0987
41932W        W45152  18.257   7.992   3.308 -0.2863  0.0307 -0.4058
41933W        W45153   0.041   7.563   3.664 -0.1024 -0.0020 -0.2157
41934W        W45154  15.315   7.477   1.258 -0.1962 -0.1240  0.1125
41935W        W45155  13.349   8.927   7.081  0.0878  0.0407 -0.0773
41936W        W45156  14.008   3.710   2.562  0.2039 -0.0027  0.3575
41937W        W45157   7.528   4.578   9.299 -0.1990 -0.0464  0.2847
41938W        W45158   3.386  17.906   8.338 -0.1284  0.0364 -0.0041
41939W        W45159  13.913   6.888  18.237  0.1031 -0.0752 -0.0362
41940W        W45160   4.155   2.339   5.928 -0.1981 -0.0971  0.0410
41941W        W45161  11.517   5.256   7.016 -0.1917  0.0201 -0.1615
41942W        W45162  15.067   9.279   7.027  0.1261 -0.3541 -0.2540
41943W        W45163  12.763  10.952  10.514 -0.0983  0.0123  0.0743
41944W        W45164   0.613   3.828   7.904  0.1810  0.2061  0.1471
41945W        W45165  12.358   1.527   5.801  0.0938  0.0712  0.2820
41946W        W45166  15.621   2.739   3.792  0.1691  0.1026 -0.1562
41947W        W45167  16.091   1.265   6.641  0.0702 -0.0986 -0.2869
41948W        W45168  14.603   6.714   7.580 -0.3493  0.0317 -0.1723
41949W        W45169   2.344   3.937   0.440 -0.2208 -0.0965 -0.1315
41950W        W45170  10.870  10.136   9.750  0.2543 -0.2888 -0.1852
41951W        W45171   1.469  13.156   6.430  0.3134  0.1348  0.2155
41952W        W45172   1.945   8.921   1.339  0.1923  0.0153  0.0561
41953W        W45173   4.906   4.877   9.863 -0.0226  0.1231 -0.0442
41954W        W45174  14.751   9.751   8.287 -0.0707  0.1502 -0.0710
41955W        W45175   0.952   5.584   9.123  0.0339  0.1637 -0.1222
41956W        W45176  14.476   0.471   3.019 -0.0447 -0.0112  0.1310
41957W        W45177  18.078   1.087  15.075 -0.0264 -0.0320  0.0502
41958W        W45178   2.492   4.124   4.794 -0.2868 -0.0704  0.0804
41959W        W45179  17.194   8.460  10.817 -0.0448 -0.0699 -0.3476
41960W        W45180   4.645   7.577   1.229 -0.0448  0.1513  0.1357
41961W        W45181  15.922   8.632  17.809 -0.1991  0.1609  0.1883
41962W        W45182  12.587   5.868   8.448  0.2746 -0.4653 -0.0654
41963W        W45183  13.077   6.412   8.974  0.0952  0.5387 -0.1543
41964W        W45184   1.928   9.391   3.568  0.0272  0.1928 -0.0706
41965W        W45185  11.835   5.588   0.123  0.1772  0.0690  0.2592
41966W        W45186  17.768   2.530   7.879 -0.2533 -0.2923 -0.0875
41967W        W45187  17.984  11.416   9.685 -0.1594 -0.1546 -0.1533
41968W        W45188  10.233   2.012   1.677 -0.1228 -0.1572 -0.2311
41969W        W45189   0.491   7.086   5.514 -0.0353 -0.0481  0.2659
41970W        W45190   0.932   9.909  18.116 -0.2144  0.1459 -0.3123
41971W        W45191   3.446  10.657  17.668 -0.0139 -0.4197  0.2353
41972W        W45192  11.609   8.351  11.136  0.0572  0.0630 -0.0009
41973W        W45193   4.108   9.116   6.109 -0.1248 -0.2497 -0.0693
41974W        W45194   1.731  11.330  13.295  0.0695 -0.0209  0.0369
41975W        W45195   0.245   4.677   5.378 -0.1458  0.0300 -0.0169
41976W        W45196   2.542   4.290  11.694  0.0589  0.0059 -0.0378
41977W        W45197  17.482   6.226   8.867 -0.2418  0.2607  0.1847
41978W        W45198  13.570   7.308  14.632  0.0350 -0.0285 -0.1479
41979W        W45199  17.244   4.703   5.481 -0.0094  0.2774 -0.0450
41980W        W45200   9.057   7.426  14.252  0.1161 -0.1017 -0.0967
41981W        W45201  17.754  14.391   6.020 -0.0725  0.0646 -0.0832
41982W        W45202   3.610   8.977   8.423  0.1529 -0.0754  0.5017
41983W        W45203   2.474   5.708   1.019  0.0660 -0.0376 -0.0941
41984W        W45204   1.230   7.922   2.195  0.1355  0.2611 -0.0899
41985W        W45205  13.605  16.179  10.113  0.1499 -0.4000  0.0679
41986W        W45206   0.431  10.668   5.172  0.1588 -0.1054 -0.0523
41987W        W45207  16.087   9.185   6.762  0.2531  0.0233  0.0689
41988W        W45208   2.210  18.008   5.338  0.2000  0.1519  0.0551
41989W        W45209   0.679   9.078   4.488 -0.0429  0.0067 -0.1287
41990W        W45210  14.050   9.063   2.890 -0.0546  0.3385 -0.2378
41991W        W45211  16.215   7.186   0.807 -0.1357 -0.0114  0.0927
41992W        W45212   3.964  12.296   2.206  0.1172 -0.0212  0.0498
41993W        W45213  11.519   1.971  10.811 -0.0198 -0.1977  0.1550
41994W        W45214   0.618   4.550   5.725  0.0804  0.1481 -0.0835
41995W        W45215  15.685   9.221   0.685 -0.0005  0.1157  0.2425
41996W        W45216  14.080  11.636   8.703 -0.0864 -0.0141  0.0690
41997W        W45217   9.491  13.810  17.597  0.2029 -0.1952  0.0147
41998W        W45218  10.918   7.089   1.965  0.0846  0.1866  0.0986
41999W        W45219  14.071  10.403  14.324  0.0379 -0.1668  0.3326
42000W        W45220  14.322  17.899   8.746  0.0837  0.2127  0.2383
42001W        W45221   6.756  16.780   1.893 -0.1852 -0.2827 -0.1310
42002W        W45222  18.096   6.589   0.087  0.1484  0.1966 -0.3623
42003W        W45223  16.131   8.050   5.352 -0.4076  0.1315 -0.1217
42004W        W45224  14.730   4.588  10.877  0.2792 -0.0379 -0.1704
42005W        W45225  12.166   5.343   6.624  0.0810 -0.1386 -0.1339
42006W        W45226  15.119  12.261   5.118  0.1380 -0.0776 -0.1366
42007W        W45227   0.534   2.838   3.931 -0.0056 -0.1396 -0.2341
42008W        W45228   6.989   1.915   0.583  0.1937 -0.1388 -0.1673
42009W        W45229  13.818   8.535   7.788 -0.2200  0.0526 -0.0282
42010W        W45230  11.949  10.297  12.104 -0.1304  0.1055 -0.2003
42011W        W45231  16.658   7.009   5.529  0.0897 -0.1493 -0.3214
42012W        W45232  16.774   6.170   2.401  0.1516 -0.1088 -0.3210
42013W        W45233  18.183   6.225  12.727 -0.0057 -0.0787 -0.3554
42014W        W45234  10.680  11.372   4.809 -0.2888 -0.0195  0.2137
42015W        W45235   1.951   9.782   4.641  0.1108  0.0667 -0.2866
42016W        W45236   1.679   3.201   9.214 -0.1939  0.2470  0.1672
42017W        W45237   3.864   7.808   3.374  0.0525 -0.0179  0.0707
42018W        W45238   6.765   7.516  16.505  0.3446  0.4027 -0.3295
42019W        W45239   3.674   3.721   6.729 -0.1219  0.0157 -0.3043
42020W        W45240  14.155   6.390  13.096 -0.1573  0.0593 -0.0514
42021W        W45241   1.177   5.824   6.035 -0.0859  0.2117  0.0013
42022W        W45242  16.060   6.560   4.955 -0.2570 -0.0416  0.0349
42023W        W45243  15.615   7.717   5.901  0.1205 -0.2493 -0.1383
42024W        W45244  16.801  12.104   3.961  0.1518 -0.1637 -0.1562
42025W        W45245   1.071  14.258  15.944  0.2119  0.2226  0.1898
42026W        W45246  15.596   6.894   2.619  0.1424 -0.1636 -0.1620
42027W        W45247   2.055   5.912   3.937 -0.2742 -0.0597 -0.0894
42028W        W45248  10.984   4.961  17.190 -0.1658 -0.0730  0.0391
42029W        W45249   1.967   3.716   3.737 -0.0939 -0.1252  0.0323
42030W        W45250  14.338  15.102  12.747 -0.0791  0.2549 -0.0789
42031W        W45251   2.572   1.443   5.226 -0.4278 -0.0206 -0.1462
42032W        W45252   0.188  10.321  11.075  0.0961  0.0198  0.0612
42033W        W45253  12.695   5.989   4.885  0.1235  0.2223  0.2848
42034W        W45254   8.752   8.441   7.095  0.1327  0.1276 -0.2978
42035W        W45255   3.418   6.549   4.246 -0.2898  0.0637 -0.3107
42036W        W45256   7.240   7.904   1.690 -0.0593  0.2989  0.1241
42037W        W45257  17.419   7.562   3.439 -0.2523  0.0166 -0.1461
42038W        W45258  15.332   7.518   3.627 -0.1868  0.0924 -0.1153
42039W        W45259  17.355   6.252   4.572  0.1197 -0.0171  0.0840
42040W        W45260  10.129   7.181   2.749 -0.0683  0.0149 -0.2384
42041W        W45261   3.904   4.512   6.080 -0.3059  0.2295  0.0296
42042W        W45262  16.564   3.619   4.468  0.0518  0.2054  0.0595
42043W        W45263  11.716   7.995   6.536 -0.1476  0.3204  0.0548
42044W        W45264   8.460   5.698   2.428 -0.2539  0.0697 -0.3557
42045W        W45265   2.688   9.985  17.572 -0.2744 -0.3313  0.1387
42046W        W45266   0.957  10.581   2.617  0.2461  0.0309 -0.2533
42047W        W45267   2.907   9.358   6.433  0.0803  0.1031  0.0866
42048W        W45268  13.803  11.799   5.195 -0.1763 -0.2000 -0.0335
42049W        W45269  10.547  18.195   3.831 -0.0275 -0.3085  0.2884
42050W        W45270  17.445  12.177  12.338  0.1374 -0.1854  0.4648
42051W        W45271   0.092  12.540   6.767 -0.1781  0.1178 -0.0851
42052W        W45272  15.072   4.679  11.454 -0.0591 -0.1773 -0.2116
42053W        W45273  14.346   7.116  10.763 -0.0236  0.1783  0.1473
42054W        W45274   0.720  18.098   6.464 -0.2594 -0.0016  0.0953
42055W        W45275  15.253   9.225   9.099 -0.1205  0.0558 -0.0791
42056W        W45276  15.513   6.413   5.774  0.0701  0.0653 -0.0982
42057W        W45277  12.410   3.492   3.292  0.0895  0.0679 -0.0553
42058W        W45278  17.228   6.296   6.938  0.3482  0.0871 -0.0799
42059W        W45279   3.429  10.869   7.867 -0.0428 -0.1037  0.2334
42060W        W45280  17.796   5.568  12.305 -0.0684  0.0922  0.0830
42061W        W45281   1.023   9.860   8.124  0.0987 -0.1162  0.2196
42062W        W45282  14.603  17.578   1.348  0.1678  0.4809 -0.1370
42063W        W45283   5.303   3.979   6.174 -0.1567 -0.3559 -0.0762
42064W        W45284  10.391  17.320   4.446 -0.1575 -0.4990 -0.0539
42065W        W45285  11.312   1.057   6.299  0.1303  0.0124  0.0237
42066W        W45286   0.893   0.721  17.924 -0.1504 -0.0357 -0.3166
42067W        W45287   3.696   6.306  17.754  0.0360  0.2449  0.1365
42068W        W45288   1.947   3.303   7.351 -0.2909 -0.1404 -0.0379
42069W        W45289  13.095  16.359   1.891  0.0220 -0.1896 -0.0472
42070W        W45290  13.932  10.085   7.109 -0.0027  0.1258 -0.1246
42071W        W45291  14.325   2.331   5.108 -0.4309  0.0460  0.1092
42072W        W45292  14.016   7.656   9.304 -0.0118  0.1009 -0.0220
42073W        W45293   6.025   8.552  16.315 -0.0003 -0.3846  0.2706
42074W        W45294  12.088   1.103   1.203  0.1025  0.0573  0.0060
42075W        W45295   9.152   1.572  13.558  0.1965  0.1685  0.2525
42076W        W45296  12.545  10.670   3.481 -0.1553  0.0452 -0.3054
42077W        W45297  11.359   4.471   1.887  0.0631  0.0407  0.0408
42078W        W45298  12.695   9.146   6.569 -0.0437 -0.0797 -0.1445
42079W        W45299   1.986   8.342   5.547  0.1058 -0.0646  0.1701
42080W        W45300  14.663   6.986   4.881  0.3714  0.1298 -0.0681
42081W        W45301   5.092   8.876   7.299 -0.0584 -0.0451 -0.0754
42082W        W45302  15.758   7.932  13.418 -0.0681  0.3019 -0.0553
42083W        W45303  13.648   5.460   6.260 -0.0449  0.1421  0.0434
42084W        W45304   0.424   5.361  14.433  0.0066  0.1166 -0.0106
42085W        W45305   2.634   0.162   5.175  0.0405  0.1321  0.2410
42086W        W45306  12.672  10.443   3.002  0.0614 -0.1367  0.0343
42087W        W45307   2.606  11.798   9.393  0.0234 -0.1093 -0.1390
42088W        W45308   2.835  13.126  11.092  0.0694  0.0708 -0.1263
42089W        W45309   2.432   0.251   7.694 -0.0544  0.1127 -0.0716
42090W        W45310   9.272   6.352  15.214 -0.4569 -0.2618 -0.0562
42091W        W45311  17.972   9.984  12.607 -0.0697 -0.0349 -0.1162
42092W        W45312  10.895  15.709   9.674  0.0992 -0.0871 -0.3156
42093W        W45313  16.966  17.717   6.287 -0.0667 -0.1234 -0.1021
42094W        W45314  12.416   9.356  10.568  0.2626 -0.0869  0.0245
42095W        W45315  12.864   8.562   9.128 -0.0749 -0.2825  0.0176
42096W        W45316  13.162   0.378  10.564 -0.0207 -0.1331 -0.0242
42097W        W45317  15.092   7.153   8.143  0.0619  0.1093  0.0747
42098W        W45318  15.735   0.795   7.799 -0.0356  0.0281  0.0806
42099W        W45319  13.801   9.660  15.118  0.1754 -0.2284 -0.1897
42100W        W45320   1.106   7.220   8.624  0.1523 -0.1006  0.2023
42101W        W45321  15.538   4.754  11.708 -0.1207  0.1110  0.2448
42102W        W45322   0.004   1.036   8.368  0.0438  0.1904  0.0506
42103W        W45323  12.297  12.788  10.387  0.1262 -0.0614 -0.2421
42104W        W45324   0.506   3.993  11.978  0.1767  0.1566  0.0628
42105W        W45325  17.715   5.298  15.702 -0.0914  0.1545  0.0845
42106W        W45326  10.081   1.809   8.917  0.5098 -0.1132  0.0059
42107W        W45327  15.420   4.851  12.201  0.1113  0.0213  0.0885
42108W        W45328  17.022   8.962   9.296 -0.2041 -0.0465 -0.2325
42109W        W45329  13.808   3.963  14.398 -0.1264  0.0552  0.0940
42110W        W45330  16.957   7.268   8.688  0.1330  0.1459  0.0555
42111W        W45331  17.791   0.727   5.770  0.1594 -0.1767 -0.0794
42112W        W45332  17.198   7.320   7.217  0.0218 -0.0497  0.3040
42113W        W45333   1.509  10.729   8.160 -0.1323  0.0720  0.1360
42114W        W45334  15.600   2.342   7.813 -0.1047  0.1089  0.1219
42115W        W45335   1.504   8.982   2.886 -0.1494 -0.0517  0.0743
42116W        W45336  14.265  16.540   7.271  0.0357  0.0715  0.3390
42117W        W45337  11.810   4.027  12.395  0.0835 -0.2803 -0.0371
42118W        W45338  15.474   7.201   6.980 -0.3218  0.3125  0.1232
42119W        W45339  12.252   1.090  12.016 -0.1674  0.0068  0.1187
42120W        W45340   2.453   6.740  16.116 -0.1591  0.0072 -0.0390
42121W        W45341   5.536  10.413  10.803 -0.2240  0.0054  0.1253
42122W        W45342  15.392   4.053  11.190 -0.1739 -0.0646 -0.3253
42123W        W45343   9.482   7.482  12.545 -0.3235 -0.1868 -0.1117
42124W        W45344  17.929   1.622  15.253  0.3278  0.3708  0.1264
42125W        W45345  11.800   1.231   0.726  0.2003  0.1437 -0.0975
42126W        W45346  15.828   1.560  10.075 -0.0149  0.4270 -0.1845
42127W        W45347  17.742  13.428  16.644 -0.1559  0.0393  0.1176
42128W        W45348  15.526   7.352  11.532  0.0966  0.2090 -0.1089
42129W        W45349   3.669   7.176  10.555 -0.0339 -0.1422  0.0617
42130W        W45350   8.452  10.976   4.574  0.1397  0.0225 -0.0059
42131W        W45351  16.953   7.517  10.342  0.3548 -0.1814 -0.0970
42132W        W45352  17.110   6.862   0.457  0.5099 -0.5354  0.0640
42133W        W45353   5.066   2.511  11.617 -0.0120  0.0975 -0.0655
42134W        W45354  11.948  11.857   2.309  0.0197  0.0022 -0.3649
42135W        W45355  18.215   7.583   6.801  0.2419 -0.1762 -0.0207
42136W        W45356  17.710   6.266   6.070 -0.2077  0.3380 -0.0043
42137W        W45357  14.387  11.350  11.386 -0.0200  0.0024  0.2226
42138W        W45358   2.099   9.902   6.642  0.0503  0.1845 -0.0016
42139W        W45359   2.574   3.213   8.584  0.1444  0.2690 -0.3161
42140W        W45360   4.657  14.397  13.381  0.1122  0.4124  0.1107
42141W        W45361   9.303   1.896  10.622  0.0710  0.2797  0.2901
42142W        W45362   8.283   6.904   4.268 -0.0057  0.0235 -0.2719
42143W        W45363  16.046   6.956   8.207  0.0445 -0.1868 -0.0167
42144W        W45364  13.246   6.489  10.208 -0.0191  0.1448 -0.1127
42145W        W45365  17.833   2.735   4.189  0.0599 -0.2324  0.0462
42146W        W45366   1.097   4.829   7.766 -0.1952  0.1142  0.2504
42147W        W45367   5.592   0.050  12.464  0.2550  0.2302  0.1295
42148W        W45368  12.905   4.615   8.240  0.2250 -0.2596  0.1233
42149W        W45369  12.766   8.673   3.974 -0.3826 -0.1705 -0.0464
42150W        W45370   0.612   6.382   2.130  0.2277 -0.0919 -0.3873
42151W        W45371  14.810  10.290   7.137  0.0538 -0.3295 -0.1130
42152W        W45372  12.622   7.779   7.704  0.1335  0.0359 -0.1168
42153W        W45373   0.216  13.673   6.206  0.0007  0.2108  0.0637
42154W        W45374  15.223   6.159  14.105  0.0075  0.0867 -0.0827
42155W        W45375   2.931  11.261  10.041  0.0379  0.1994 -0.2880
42156W        W45376  12.501   1.122   1.509  0.1720 -0.1799 -0.0677
42157W        W45377  16.693   7.201   7.240  0.0035 -0.1120  0.0047
42158W        W45378  13.830   6.230   8.925  0.1248 -0.3052  0.0264
42159W        W45379  15.868   8.101  12.963 -0.1982 -0.0787  0.1213
42160W        W45380   0.487   8.863  15.603 -0.1165  0.3097 -0.0580
42161W        W45381   4.566   8.838   8.174  0.2240 -0.0359 -0.0839
42162W        W45382   6.063   3.347  10.905 -0.1688 -0.3818  0.1270
42163W        W45383  13.837   8.007  10.079 -0.0406  0.1601  0.2567
42164W        W45384  17.396   9.725   6.249 -0.3806  0.0745 -0.3994
42165W        W45385  12.992  17.852   8.596 -0.1852 -0.1743 -0.2067
42166W        W45386  12.496   5.851   1.215 -0.3438 -0.2271  0.3504
42167W        W45387  14.158   0.778   1.383 -0.0858 -0.1409 -0.2254
42168W        W45388   3.390  17.951   9.863 -0.0179  0.0541 -0.1548
42169W        W45389  14.863   6.430   3.118 -0.1620 -0.0413 -0.0322
42170W        W45390   8.770   2.336   6.685  0.2760 -0.5044  0.0305
42171W        W45391   0.717   0.526  12.349  0.3500  0.0034 -0.0887
42172W        W45392  13.910  10.838   9.086  0.1088  0.0070  0.3087
42173W        W45393   2.918   6.006  16.628  0.1485 -0.0219  0.0576
42174W        W45394  17.760   5.677   3.951 -0.1384 -0.1390 -0.2403
42175W        W45395  17.065   6.579  12.176 -0.0997 -0.0109  0.0889
42176W        W45396  10.153   5.874  12.814  0.1929  0.1106 -0.1912
42177W        W45397  14.087   7.180  10.046  0.4036  0.3260 -0.2922
42178W        W45398   3.147   6.241  10.420 -0.1445 -0.1201 -0.0189
42179W        W45399  12.362   8.043  13.014  0.1632 -0.1456  0.0156
42180W        W45400  15.375   2.722  13.070 -0.1745 -0.1465 -0.1924
42181W        W45401  16.094   7.662  13.671  0.0560 -0.0249  0.1142
42182W        W45402   0.393   9.086   9.187 -0.0590 -0.0870 -0.1291
42183W        W45403   3.287   9.151  13.119 -0.2308 -0.0595  0.0556
42184W        W45404  13.684   7.669   1.339  0.0851 -0.4344  0.0063
42185W        W45405   6.576   5.506   7.062  0.1099 -0.3277  0.2941
42186W        W45406   0.118   5.831  10.519 -0.0256 -0.2246 -0.1018
42187W        W45407  12.810   4.983  16.823  0.0675 -0.3795  0.1497
42188W        W45408  12.897   1.506   1.769  0.2601  0.2492 -0.0633
42189W        W45409   3.264  14.590   8.461  0.0579 -0.3870  0.0735
42190W        W45410  17.714   3.876   5.403 -0.1096 -0.3514 -0.0920
42191W        W45411   0.907   3.405   8.149 -0.3896 -0.1171 -0.5562
42192W        W45412  14.894  10.823   7.126 -0.1462  0.1711  0.0717
42193W        W45413   2.993   9.778   9.557  0.3376  0.0558  0.0406
42194W        W45414  17.606   2.214   6.961  0.1272 -0.3439  0.0542
42195W        W45415  12.077   3.805   9.570 -0.0788 -0.1627  0.1777
42196W        W45416   2.251   7.073   9.505 -0.1090 -0.2971  0.1497
42197W        W45417  14.937   3.042  14.791  0.3355 -0.0655 -0.0487
42198W        W45418   3.997   3.870  15.402  0.2013  0.1048 -0.2470
42199W        W45419   6.092  16.546   8.637 -0.2296  0.0479  0.1096
42200W        W45420   6.423   8.867   8.817 -0.0780 -0.1071  0.1159
42201W        W45421   2.998   7.873  15.851 -0.0214 -0.0808 -0.0303
42202W        W45422   1.322  17.505   8.474  0.0399 -0.3062 -0.1217
42203W        W45423   9.920   6.289  13.089  0.0669  0.1607  0.1941
42204W        W45424  13.290   5.318   5.908  0.1028  0.1470 -0.1575
42205W        W45425  11.374   7.694   4.741  0.3904 -0.0092 -0.2154
42206W        W45426   3.685   9.702  10.232 -0.0197 -0.0518  0.1352
42207W        W45427  13.579   7.765  13.897 -0.0840 -0.2010  0.1961
42208W        W45428  15.246   1.092   9.977 -0.0729 -0.0387  0.0689
42209W        W45429  16.889   7.762   0.883  0.0946 -0.1294  0.1262
42210W        W45430   0.669   3.480   6.884  0.0624  0.0673  0.0853
42211W        W45431   3.666  13.193   4.443 -0.2780 -0.0319  0.1990
42212W        W45432  15.104  13.050  13.941  0.2244  0.4194  0.0722
42213W        W45433   1.683  12.870   7.762 -0.0967  0.4001  0.0398
42214W        W45434   3.572   4.845   8.286 -0.1507  0.1261  0.1797
42215W        W45435  15.316   0.060   6.266  0.1581  0.0333  0.0251
42216W        W45436  14.509   1.360   4.572  0.2828  0.0091  0.1356
42217W        W45437  17.460   6.656   8.536  0.1608  0.0505 -0.1504
42218W        W45438   5.841   8.405  10.370  0.5834  0.0670  0.5072
42219W        W45439  17.817   6.773  11.524  0.1591  0.0742  0.3315
42220W        W45440  15.693   5.895  12.889 -0.3131 -0.0117  0.0318
42221W        W45441   9.718   7.664  12.977 -0.0392  0.3763 -0.1182
42222W        W45442  12.636   5.206   6.465 -0.1521  0.2052  0.3000
42223W        W45443   2.164   1.649  10.978 -0.0922 -0.1558 -0.1494
42224W        W45444  15.555   9.353  13.507  0.4198  0.0688  0.2193
42225W        W45445  15.638  12.625  11.164 -0.2346 -0.0885  0.0937
42226W        W45446  16.632   3.850   1.586 -0.4083  0.0069  0.2821
42227W        W45447  15.344   6.684   9.024 -0.0122  0.1898 -0.1901
42228W        W45448   2.225   3.408   8.286 -0.0132  0.2627  0.1121
42229W        W45449   1.073   5.733   5.565  0.2337  0.0587  0.0750
42230W        W45450   2.371   4.501   7.065  0.4053  0.1037  0.1798
42231W        W45451  17.073   4.043  11.097 -0.5231 -0.0504  0.1630
42232W        W45452  15.276   7.940   9.504  0.0063 -0.2180  0.0211
42233W        W45453  15.197   4.664   2.331 -0.2001 -0.2665 -0.1489
42234W        W45454   4.136   6.022  13.638  0.2860 -0.1334  0.4644
42235W        W45455  12.069   5.941  16.991  0.1076  0.1797  0.1285
42236W        W45456   2.196   3.478   9.925 -0.1144 -0.0198  0.0745
42237W        W45457  17.835  17.647  12.154  0.1891 -0.0314  0.0353
42238W        W45458   0.047   3.877  12.238  0.0673  0.3713 -0.0614
42239W        W45459  13.414   2.071   7.831 -0.0483 -0.0641  0.0279
42240W        W45460   1.524   4.608  16.739 -0.1124  0.0271 -0.1224
42241W        W45461   4.382   2.648   7.800 -0.0051 -0.4065  0.1937
42242W        W45462   0.432   8.592   8.186  0.0150 -0.1415 -0.1013
42243W        W45463  17.242   1.497   6.366 -0.3126 -0.1357 -0.1262
42244W        W45464   0.265   9.353   5.716  0.1592 -0.2737  0.0262
42245W        W45465  14.277   1.488   7.709 -0.1811  0.2701  0.1304
42246W        W45466   1.223  15.863   8.628 -0.0684  0.0830  0.0491
42247W        W45467   2.247   8.369   6.753  0.0968  0.2259 -0.3110
42248W        W45468  11.456   3.609   4.356 -0.0720  0.0749 -0.1041
42249W        W45469   1.835   0.755  12.384 -0.1730 -0.1917 -0.0514
42250W        W45470   3.313   3.476  11.516 -0.0956  0.2548 -0.0488
42251W        W45471   2.313   6.157  12.267 -0.3521 -0.0442 -0.2548
42252W        W45472   1.669   1.412   2.597  0.0291 -0.0311  0.3043
42253W        W45473  13.386   3.994  13.153  0.2373 -0.2057  0.1806
42254W        W45474  13.639   9.208  13.223 -0.1642 -0.0334  0.0497
42255W        W45475   4.194   7.879  13.669  0.4872  0.0937 -0.0573
42256W        W45476  10.138   0.063  13.415 -0.2533 -0.0985 -0.2454
42257W        W45477  13.488  11.440  11.292  0.0418  0.2391 -0.1553
42258W        W45478   2.542   4.668  12.650 -0.1036  0.2833  0.1141
42259W        W45479  11.527   9.430   9.891 -0.1298 -0.0301  0.2380
42260W        W45480  17.187   1.865   5.056 -0.1737 -0.2222  0.1129
42261W        W45481   1.747  12.182  11.252 -0.2286 -0.0988  0.1538
42262W        W45482   1.275   7.757   7.141 -0.2262  0.0471 -0.0416
42263W        W45483  16.754   9.686   5.357  0.1378  0.0389  0.0469
42264W        W45484  17.157   9.482   8.556  0.0800 -0.1067 -0.1311
42265W        W45485   0.367   2.529  13.756  0.0807  0.2260 -0.0780
42266W        W45486  16.155   6.650   9.535  0.2774 -0.2511  0.0147
42267W        W45487  14.038   7.995   8.050 -0.1657 -0.3004 -0.1624
42268W        W45488   0.234   1.259   2.447  0.2365 -0.0675  0.0485
42269W        W45489   9.580   0.789  14.219 -0.0980 -0.1822  0.0562
42270W        W45490  12.932  10.414   7.135 -0.1780 -0.1374  0.0270
42271W        W45491   5.245   2.814   9.204 -0.0776  0.3669 -0.3743
42272W        W45492   3.176   6.209   7.843 -0.1907  0.1687  0.1961
42273W        W45493   1.249   9.013   4.504 -0.3960  0.3247 -0.4035
42274W        W45494   2.632  12.402  10.223 -0.1999  0.1209  0.1383
42275W        W45495   1.540   3.670   7.443 -0.1169 -0.2599  0.1086
42276W        W45496  17.674   9.562  12.134  0.0695 -0.0724 -0.0180
42277W        W45497   4.297   6.165   5.738 -0.0938  0.3390 -0.0362
42278W        W45498   6.466   4.462   7.147  0.3491  0.2383 -0.1618
42279W        W45499  13.407  11.297   9.738 -0.2123  0.1983  0.1106
42280W        W45500  16.697  17.995  13.016 -0.0372  0.2887  0.1410
42281W        W45501  17.325   4.416  10.803 -0.0686 -0.1002 -0.2787
42282W        W45502  12.540   9.787   5.880  0.2276  0.0626  0.3325
42283W        W45503   1.634   5.989   0.006  0.1312  0.1775 -0.4791
42284W        W45504   1.345   5.492   8.320  0.0550 -0.0556  0.0122
42285W        W45505   8.103   5.359  13.644  0.1118 -0.3807 -0.2432
42286W        W45506  16.898   4.157  11.605  0.0111  0.0874 -0.0661
42287W        W45507   2.007   4.408   8.524 -0.0035  0.0851 -0.2420
42288W        W45508  17.981   6.068  10.992  0.1757 -0.0024 -0.0868
42289W        W45509   6.093   6.723   9.578  0.0322 -0.0763  0.0476
42290W        W45510  17.687  16.354   8.390 -0.0095 -0.0661  0.1793
42291W        W45511  16.783   8.826   3.112 -0.2092  0.2180 -0.1036
42292W        W45512  16.131   8.601  16.804  0.0135  0.2242  0.2015
42293W        W45513   6.228   7.807   0.639 -0.2979  0.1138 -0.2408
42294W        W45514  17.662   5.764   7.584 -0.0480 -0.0313  0.0628
42295W        W45515   4.970   8.933  10.333 -0.0026  0.0530 -0.1479
42296W        W45516  14.166  10.500   7.555 -0.0028  0.6270 -0.1866
42297W        W45517  18.046   6.002   7.967 -0.0959 -0.2150  0.1401
42298W        W45518  14.843   8.465  16.287 -0.3369  0.2464 -0.0052
42299W        W45519  13.395   4.177  10.752 -0.0579  0.0273 -0.0382
42300W        W45520   1.059  11.098   1.781 -0.0264  0.0522  0.0850
42301W        W45521   0.707   6.707  14.471 -0.1511  0.0277 -0.2243
42302W        W45522   1.973   4.789   7.114 -0.0424 -0.0486  0.1402
42303W        W45523   0.435   5.699  12.701  0.2451  0.0016  0.1010
42304W        W45524   2.985   6.723   9.423  0.2752  0.2838 -0.0062
42305W        W45525   0.732  15.014   5.829 -0.1335 -0.2238  0.0328
42306W        W45526   1.666   7.549   9.124 -0.0744  0.0952 -0.0913
42307W        W45527   9.295   2.375  17.754 -0.0454 -0.1125 -0.0674
42308W        W45528  11.191   9.718  18.089 -0.3280  0.0166  0.0395
42309W        W45529   1.309   6.609   9.564  0.0527  0.1027  0.0357
42310W        W45530  17.857   7.040  12.512  0.2308 -0.1659  0.0073
42311W        W45531  13.406   6.835  18.224 -0.1602  0.1115  0.0475
42312W        W45532  17.070   9.945   4.009  0.0486 -0.0809 -0.0639
42313W        W45533   0.416   6.370  10.487  0.1204 -0.1507 -0.0857
42314W        W45534  13.197   2.111  10.614  0.2012 -0.1996  0.2082
42315W        W45535   2.145  17.054  10.399  0.1488  0.0243 -0.1145
42316W        W45536   2.895  10.982   7.757  0.0238 -0.2349  0.2455
42317W        W45537  16.938  11.987   1.648  0.0228 -0.0828 -0.0013
42318W        W45538   1.103  11.486   9.723  0.1729  0.3220  0.2476
42319W        W45539  15.410  12.157   8.162  0.1893  0.3419 -0.0702
42320W        W45540   2.388   8.494   9.095 -0.2166  0.0944 -0.1875
42321W        W45541   8.163  15.243  12.109  0.1878  0.1166 -0.5569
42322W        W45542   0.956   3.608   9.757  0.2420 -0.1340  0.0189
42323W        W45543   1.686   8.553  15.653  0.0826 -0.2551 -0.2020
42324W        W45544   1.292   9.033  12.525 -0.0229 -0.1587  0.0661
42325W        W45545   0.589   6.852   8.726  0.2950  0.0981 -0.0553
42326W        W45546  14.578   4.554  14.337  0.1806 -0.3597 -0.2098
42327W        W45547   9.609  11.768   8.762  0.3520  0.0841 -0.1315
42328W        W45548  10.158   4.316  10.447 -0.1021 -0.1199  0.0390
42329W        W45549  15.158   4.469   6.616 -0.2174  0.4140  0.0760
42330W        W45550   5.690   2.403   4.127  0.0802  0.2013 -0.0555
42331W        W45551   6.833   7.045  12.942  0.4176 -0.0525 -0.1545
42332W        W45552  17.398  12.177   8.596  0.1452  0.2073  0.0799
42333W        W45553   4.741  13.087   4.448  0.1874 -0.2367  0.4702
42334W        W45554   1.549   8.209   2.897 -0.1669 -0.1409 -0.0899
42335W        W45555   4.340   3.913   7.835  0.2559 -0.1305 -0.0349
42336W        W45556  16.640   3.482   7.687  0.3125  0.0339 -0.1665
42337W        W45557  15.608   6.513  14.212 -0.0650 -0.0476 -0.0660
42338W        W45558  13.487  11.951   9.618  0.0904  0.1381  0.1816
42339W        W45559  16.818  10.436   0.273  0.2221 -0.0683 -0.0364
42340W        W45560   6.331   4.668  13.916 -0.1222 -0.1645 -0.1761
42341W        W45561  14.042   1.660   2.486  0.0379  0.2388  0.0819
42342W        W45562   5.564  10.530   7.648  0.2136 -0.1355  0.1364
42343W        W45563   3.739   0.253   9.606  0.1877  0.1780  0.0350
42344W        W45564   3.382  16.978   8.993 -0.1511  0.1286  0.0519
42345W        W45565   6.145   7.439   6.077  0.1376 -0.1570  0.3357
42346W        W45566  10.090   7.733   2.621  0.1011 -0.0634  0.1315
42347W        W45567  12.978  18.197   7.083 -0.3764  0.0220 -0.3340
42348W        W45568  16.494   8.554   5.446  0.1403 -0.0526  0.1430
42349W        W45569  17.211   6.902  11.767 -0.0805  0.3091 -0.0794
42350W        W45570  16.920   9.101  13.318 -0.0869 -0.0002  0.0907
42351W        W45571  13.316   9.232   8.495  0.0337  0.1087 -0.0320
42352W        W45572  16.240   9.783  13.455  0.2143  0.0122  0.3460
42353W        W45573  16.202  13.699  11.471 -0.1517  0.3015 -0.0496
42354W        W45574   4.987   5.407  10.714  0.2047  0.0845  0.0065
42355W        W45575  11.489   4.933   9.810 -0.1695  0.1034  0.0755
42356W        W45576   2.130   6.579   3.604  0.3112 -0.1260 -0.0097
42357W        W45577   5.889   1.976  10.295  0.3582 -0.2313  0.0262
42358W        W45578   1.518   4.593   6.119  0.2291 -0.3301 -0.0751
42359W        W45579  16.369   2.268   7.127  0.0199 -0.1426  0.0661
42360W        W45580   1.661  11.266  14.147 -0.0509  0.1336  0.0137
42361W        W45581   7.318   5.456  17.701 -0.1491  0.3666 -0.0042
42362W        W45582  14.491   7.660   8.659 -0.3575 -0.0663  0.0549
42363W        W45583   3.043   9.480   4.442  0.0967  0.0466  0.0588
42364W        W45584  13.648  13.903   6.589 -0.1265  0.2043  0.3457
42365W        W45585   4.562  11.381  13.178  0.1269  0.1583  0.0241
42366W        W45586   3.428  15.683   2.738 -0.0993  0.0994 -0.1599
42367W        W45587   3.924  10.617  12.947  0.0727  0.0798 -0.1528
42368W        W45588  11.146   6.195   6.673 -0.0671  0.0142 -0.2164
42369W        W45589  16.358  10.088  11.981 -0.2786 -0.3180 -0.0657
42370W        W45590   2.911   0.766   5.937 -0.1585  0.3762 -0.0820
42371W        W45591   9.671   6.186  12.579  0.0958  0.2325  0.0958
42372W        W45592   0.358  10.760  16.941 -0.2694  0.0422  0.0561
42373W        W45593  15.102   2.341  18.215 -0.3457 -0.0935  0.1846
42374W        W45594   3.686  16.127   2.829 -0.1028  0.2067  0.1448
42375W        W45595  15.032   4.020   7.776  0.3249 -0.3321  0.1314
42376W        W45596  12.490   2.398   9.641 -0.1217  0.2076 -0.1835
42377W        W45597  13.455   5.169   4.202 -0.1202 -0.1419 -0.3897
42378W        W45598  16.486  12.345   9.975  0.1227  0.2826 -0.2995
42379W        W45599   7.008   9.335  12.868 -0.0726 -0.1148  0.0224
42380W        W45600   5.633   9.661  12.468  0.1296  0.0771 -0.1622
42381W        W45601  13.465   2.285   9.493  0.1534  0.0525 -0.2219
42382W        W45602  13.190   1.408   5.306 -0.0307  0.1194 -0.0827
42383W        W45603   0.575  14.032   8.757  0.0833  0.1316  0.0979
42384W        W45604   1.840  11.752   5.767 -0.2941 -0.0207  0.0219
42385W        W45605  11.605   9.077   6.702 -0.0498  0.2027 -0.1898
42386W        W45606  12.127   0.986  11.493 -0.3097  0.2619 -0.2253
42387W        W45607  17.029   3.098  15.856 -0.3186  0.1351 -0.1637
42388W        W45608  10.201   5.066  13.473 -0.0375 -0.0330  0.1077
42389W        W45609  15.927   6.040   7.815 -0.0266 -0.0188 -0.2299
42390W        W45610  15.899  10.783  14.734 -0.2545 -0.2863  0.1331
42391W        W45611   1.567   6.461   6.660  0.0295  0.2693  0.2963
42392W        W45612  13.429   0.448   7.688  0.2365  0.1087 -0.0878
42393W        W45613   8.472   2.361  12.561 -0.2281  0.2597 -0.1559
42394W        W45614  13.485   1.788   9.825 -0.0335 -0.1427  0.2038
42395W        W45615  13.967   2.758   7.600  0.1585 -0.2624  0.3370
42396W        W45616  13.363   6.640  11.745 -0.1716 -0.0745 -0.0911
42397W        W45617   4.511   0.580   6.894 -0.0627 -0.2211  0.1457
42398W        W45618  16.834  11.604  12.439 -0.1741 -0.2101 -0.3241
42399W        W45619  16.818   4.419  11.182 -0.1497 -0.0877 -0.2673
42400W        W45620  14.764   4.404   8.319 -0.0944 -0.0374  0.1903
42401W        W45621  15.038   5.586  10.371 -0.1244  0.0318 -0.0223
42402W        W45622  16.351   9.877   2.290 -0.0902 -0.1497 -0.0589
42403W        W45623   4.137   7.535  12.385  0.1055 -0.1172 -0.1046
42404W        W45624   3.112   4.877   7.343 -0.0082  0.0572  0.1544
42405W        W45625   3.719   4.984  11.865 -0.0532  0.0134 -0.0792
42406W        W45626   1.823   9.737   6.276 -0.1196 -0.1471  0.0771
42407W        W45627  13.138   9.067  14.041 -0.1410  0.3495 -0.1929
42408W        W45628  11.489   7.293   8.389 -0.1478  0.0491 -0.1356
42409W        W45629  14.623   1.112  10.567 -0.3123 -0.3488  0.1864
42410W        W45630   7.266   1.984   0.154 -0.1487 -0.0129  0.0041
42411W        W45631  13.923  18.005  15.654  0.3889 -0.2389  0.0057
42412W        W45632  14.981   9.218  13.456  0.3120  0.0506 -0.0990
42413W        W45633   3.361   5.041  17.738  0.2736 -0.1153  0.2405
42414W        W45634  17.046   3.474   9.178 -0.1311  0.0719 -0.0109
42415W        W45635   2.679   4.051   4.049  0.3093  0.3630 -0.0922
42416W        W45636  14.674   0.317  14.253  0.0580  0.1977 -0.1770
42417W        W45637  15.785   6.529  18.047  0.1989  0.0214  0.3877
42418W        W45638   0.824  12.210   9.554  0.1006  0.2331 -0.1878
42419W        W45639   2.747   2.026   8.103 -0.1615 -0.1080  0.2553
42420W        W45640   8.115   0.779   7.898  0.1446  0.2490  0.0877
42421W        W45641   0.284  12.324   6.326  0.1413 -0.0195  0.0391
42422W        W45642  17.377  14.176  14.956 -0.1927 -0.0541 -0.1992
42423W        W45643  14.722   1.146   2.439  0.5842  0.5201  0.2142
42424W        W45644  15.779   8.144   9.432  0.0838 -0.0485  0.1760
42425W        W45645   0.607   5.483   1.730  0.0362  0.3565 -0.2084
42426W        W45646  10.564   4.167   4.377  0.0531  0.1435 -0.0470
42427W        W45647  16.124  10.874   7.669 -0.0306  0.1435  0.0705
42428W        W45648  14.794   4.886   6.573  0.0967 -0.1297  0.0208
42429W        W45649  17.520  10.646   5.049  0.0985 -0.2316  0.1319
42430W        W45650  18.202   9.766   5.513  0.1297 -0.0848  0.1701
42431W        W45651   4.209   8.210  10.674 -0.0998 -0.1882  0.1763
42432W        W45652   1.726   7.421   8.579 -0.0031 -0.0962 -0.3729
42433W        W45653  12.128   4.733   9.186  0.0563  0.1249 -0.0017
42434W        W45654  13.538   5.605  10.393 -0.1706 -0.0028 -0.0392
42435W        W45655   1.847   5.833   9.783  0.2043  0.0182  0.4700
42436W        W45656  16.644   1.440   9.286  0.1254 -0.0468  0.1749
42437W        W45657   1.793   2.398   8.926 -0.1302 -0.0044 -0.0742
42438W        W45658   6.554   4.694  17.764  0.0569  0.0850  0.1432
42439W        W45659  17.631  13.719   6.680 -0.2139  0.4727  0.3249
42440W        W45660  15.956   6.448  13.040 -0.0935  0.0445 -0.2168
42441W        W45661  15.329   6.910   5.498  0.1294  0.1395 -0.0436
42442W        W45662  16.635   6.442  11.069  0.1960 -0.1428  0.1321
42443W        W45663  13.430   4.436   0.511  0.3423  0.0865  0.2073
42444W        W45664   2.648   7.571  12.920  0.2761 -0.3178 -0.1510
42445W        W45665   4.399   7.104  10.777 -0.2582 -0.1445 -0.4505
42446W        W45666  16.548  16.274  14.637  0.0347  0.2574 -0.1111
42447W        W45667  17.595  13.921   6.222  0.0517  0.0392  0.0668
42448W        W45668  16.130  12.949   8.842 -0.0864  0.0243  0.2164
42449W        W45669   2.413   7.111  14.749  0.5079 -0.0997  0.0680
42450W        W45670   4.880   6.266  13.187  0.2724 -0.1837 -0.0822
42451W        W45671   4.283   8.421  10.173  0.0756 -0.0741 -0.2590
42452W        W45672  11.772   4.199  10.663  0.1888 -0.0227 -0.0022
42453W        W45673   0.809   4.116   7.293 -0.3826 -0.0934  0.1017
42454W        W45674  10.142   2.770   8.040  0.1399 -0.2747 -0.4197
42455W        W45675  17.863  11.662   0.689 -0.0645  0.0098 -0.5027
42456W        W45676   2.536   4.250   6.125 -0.1841  0.2612 -0.2808
42457W        W45677  18.207   4.563  14.323  0.3250 -0.2404  0.0706
42458W        W45678  11.601   3.976   8.874 -0.0437 -0.2173  0.3504
42459W        W45679   3.584   8.184  11.095 -0.0205 -0.0507  0.1805
42460W        W45680  16.074   4.734   5.321 -0.3110 -0.2031  0.0115
42461W        W45681  14.433   5.050  10.762  0.0009 -0.4705  0.1114
42462W        W45682  16.533  11.587   3.085 -0.1814  0.0893  0.2204
42463W        W45683   0.031   9.013  13.235  0.2218 -0.0433  0.3289
42464W        W45684  16.985  16.025   9.451  0.0524  0.4323 -0.0950
42465W        W45685   1.358  10.222   7.360  0.0311 -0.1801 -0.0812
42466W        W45686  15.526  11.452   8.573 -0.3376 -0.0134  0.1383
42467W        W45687  13.059   4.510  13.170  0.0987  0.0823 -0.0118
42468W        W45688  15.180   5.996   9.570 -0.0978 -0.1533  0.2163
42469W        W45689   4.428   0.111   7.697 -0.2282  0.1003  0.0261
42470W        W45690   1.444  11.105   8.589  0.0927  0.1298  0.1009
42471W        W45691  13.967   1.265  11.993  0.0171 -0.2426 -0.3041
42472W        W45692  12.970   2.691  15.941 -0.3491 -0.1944 -0.0621
42473W        W45693  16.324  15.374   6.767  0.1034  0.0757 -0.0805
42474W        W45694   1.540  16.865   6.835 -0.0462  0.2012 -0.0116
42475W        W45695  14.105   6.265   7.918 -0.0801 -0.0741  0.0267
42476W        W45696   4.782   3.846   5.750 -0.3782  0.1326 -0.0453
42477W        W45697   1.408   3.243   3.965 -0.2248 -0.1684  0.1894
42478W        W45698   0.107   4.396   0.602  0.2901 -0.0045  0.0019
42479W        W45699  15.248   5.047  10.296 -0.1089 -0.0722 -0.0229
42480W        W45700   1.037   4.417  14.718 -0.2170 -0.2049  0.0226
42481W        W45701   5.482   7.058   8.019 -0.1778 -0.1307 -0.0228
42482W        W45702   3.219   4.713  14.331  0.1512 -0.1914  0.0840
42483W        W45703   0.304   2.681  11.035 -0.1580  0.1210 -0.1544
42484W        W45704  13.919  12.241   0.580  0.2235 -0.2545 -0.1472
42485W        W45705   0.097   1.444  10.777 -0.1352  0.1007  0.0783
42486W        W45706  16.235  16.965   9.445  0.0447 -0.1083  0.0625
42487W        W45707   0.221   6.514   9.475  0.0712  0.1406 -0.1180
42488W        W45708  17.417   7.183   6.058  0.2656 -0.0086 -0.1868
42489W        W45709  12.540   3.229   5.562  0.2192 -0.1367 -0.0709
42490W        W45710  15.567   2.793  16.463 -0.0983  0.2263  0.3168
42491W        W45711  14.695   9.455  15.063 -0.5247 -0.1886 -0.0102
42492W        W45712   1.456   5.978  16.164  0.0526  0.1626  0.3259
42493W        W45713  15.699   8.730  18.252  0.2332  0.0886  0.2954
42494W        W45714   2.922   6.797  10.294 -0.0937 -0.1283 -0.3189
42495W        W45715  11.620   6.099   1.740 -0.3033 -0.3119  0.1679
42496W        W45716   4.690  17.353   6.048 -0.1583 -0.0046 -0.1432
42497W        W45717  15.834  10.163  12.353 -0.1208  0.1168  0.1258
42498W        W45718  16.471   7.312  13.415 -0.0592  0.0079  0.1104
42499W        W45719  15.963  12.659   3.855  0.1512 -0.0486  0.0660
42500W        W45720   2.568  13.943   9.382  0.0645 -0.1127  0.0509
42501W        W45721  18.018  12.442   9.959 -0.1832  0.0488 -0.1323
42502W        W45722  15.750  13.309   1.806  0.0366  0.3706 -0.0756
42503W        W45723  16.992   7.416  13.102  0.0357 -0.4348  0.0127
42504W        W45724  17.039   8.989  16.508 -0.3352  0.1749 -0.0252
42505W        W45725   0.266   5.813  10.007 -0.2044 -0.1849  0.1243
42506W        W45726  17.736   5.584  14.582 -0.0138 -0.0421 -0.0753
42507W        W45727  15.548   2.845  14.125  0.1519  0.0762 -0.0403
42508W        W45728   9.490   5.602  14.674 -0.2323 -0.0974  0.0930
42509W        W45729  16.993  10.921  14.616 -0.0374  0.1192  0.0921
42510W        W45730  10.768   8.274  15.750 -0.5966 -0.0372 -0.1310
42511W        W45731  12.569  11.107  17.169 -0.0398  0.2140 -0.1050
42512W        W45732   1.330   8.614  10.470 -0.1480  0.1879  0.0175
42513W        W45733  18.174   3.017  15.039  0.1455  0.2513 -0.1345
42514W        W45734  17.970  17.412  15.066  0.2330  0.2011 -0.4440
42515W        W45735  14.164   3.505   5.635 -0.1547  0.2015 -0.0805
42516W        W45736  17.802   2.834  13.542 -0.0274  0.0703  0.0053
42517W        W45737  15.071   3.595  13.839  0.1108 -0.4562 -0.3304
42518W        W45738  17.417   0.813  15.149 -0.1296  0.4094 -0.3234
42519W        W45739  12.621   4.125  11.962 -0.2692  0.0479  0.2447
42520W        W45740  10.386   1.549  12.394  0.0694  0.2530 -0.0214
42521W        W45741   3.027   4.440  11.305  0.1345 -0.0949 -0.1672
42522W        W45742  10.483   6.425  17.113 -0.2737  0.3917 -0.0063
42523W        W45743  15.848   5.817   6.165 -0.2384 -0.2314 -0.1692
42524W        W45744  14.215  14.684   9.588 -0.0937 -0.1453  0.1384
42525W        W45745  16.893   6.757  16.132  0.1262  0.0958  0.2519
42526W        W45746  13.018  10.573  12.818 -0.0263 -0.0598  0.0476
42527W        W45747   0.777   5.576   9.946  0.0125 -0.1033 -0.0254
42528W        W45748  16.335   2.102  10.475 -0.0210  0.0241  0.1957
42529W        W45749  14.428   4.254  14.763 -0.1249  0.3615  0.2704
42530W        W45750   9.520   0.453   4.745  0.0275 -0.0748  0.1615
42531W        W45751   1.726   7.781  13.912  0.0596  0.0551  0.0837
42532W        W45752  17.073   1.625  18.115 -0.0287 -0.1485  0.1791
42533W        W45753   5.715   7.032   5.519  0.1063  0.2400 -0.0762
42534W        W45754  15.723  17.975   1.697 -0.1795  0.0700 -0.0525
42535W        W45755  13.906  14.727  15.508  0.2547 -0.0189  0.0634
42536W        W45756  15.602   5.310  16.443 -0.2531 -0.2030  0.1364
42537W        W45757  15.770   5.083  17.256  0.0970  0.2471  0.1736
42538W        W45758   0.345  18.168   8.240 -0.0431 -0.0996 -0.0526
42539W        W45759  12.792   2.648  13.800  0.1474  0.0689 -0.0141
42540W        W45760   9.450   6.057  14.389  0.0409  0.0143 -0.1438
42541W        W45761  18.245   1.843  10.452  0.2753 -0.2353  0.0570
42542W        W45762   0.731   3.303  16.068 -0.1131 -0.1532  0.0455
42543W        W45763  15.517  12.341   7.722 -0.1174  0.0095  0.2713
42544W        W45764   0.477   8.144  13.550 -0.0457  0.1088  0.1126
42545W        W45765  17.298   5.108  12.630 -0.0651  0.3479 -0.1695
42546W        W45766  13.510   8.579  14.893 -0.3309  0.0668 -0.0738
42547W        W45767  14.451   2.440   2.791 -0.0539 -0.0257 -0.2530
42548W        W45768  17.695   2.598  11.889 -0.1386 -0.4392 -0.1718
42549W        W45769  10.007   1.045  13.434 -0.2779 -0.0138 -0.0639
42550W        W45770  16.831   0.065   8.110 -0.2108 -0.1834  0.2261
42551W        W45771  17.998   6.528  12.387 -0.4215  0.0663  0.1600
42552W        W45772   3.124   2.712  15.401 -0.1894  0.5070  0.0837
42553W        W45773   9.911  14.582  10.078  0.0802  0.2876 -0.1049
42554W        W45774  15.196   9.156  12.717 -0.2904  0.0660 -0.0134
42555W        W45775  13.390   1.292  13.568  0.1708 -0.0078 -0.1294
42556W        W45776  15.313  14.837  17.504 -0.2272 -0.0802  0.1353
42557W        W45777   2.551  12.428  13.395 -0.0153  0.0710 -0.1995
42558W        W45778   4.295   6.440  11.993 -0.0313 -0.1251  0.1439
42559W        W45779  12.681   5.576  14.463 -0.1175 -0.0606 -0.2242
42560W        W45780   8.675  18.195   9.974 -0.0310  0.5081 -0.2822
42561W        W45781  16.417  10.085  15.635 -0.2170  0.1505  0.3293
42562W        W45782  16.157   3.435  17.648  0.0734  0.2367 -0.0709
42563W        W45783  17.260   8.503  14.368  0.3303  0.0757  0.2152
42564W        W45784  17.267   3.126   8.869  0.2144  0.4011 -0.0779
42565W        W45785  13.853   8.967  15.048  0.0801 -0.2038 -0.0563
42566W        W45786   0.004   4.397   8.865 -0.0560  0.1369 -0.2319
42567W        W45787  17.269  13.919  11.729 -0.1274 -0.0035 -0.1844
42568W        W45788  17.516   1.202  13.194 -0.1579 -0.0114 -0.1250
42569W        W45789  17.400  16.669  16.083  0.3146 -0.0569 -0.0823
42570W        W45790  14.475   2.313   1.834  0.0411  0.1380  0.0354
42571W        W45791   1.754  10.544  16.046  0.1637  0.0047 -0.0080
42572W        W45792   0.706   0.420   1.970  0.3638  0.1190 -0.0907
42573W        W45793  14.734   8.249  15.678  0.1206  0.0487 -0.1990
42574W        W45794   2.769  11.164  14.878 -0.3058 -0.3450  0.1718
42575W        W45795   4.583   7.742   8.596  0.5091  0.1886  0.2153
42576W        W45796  15.910   4.866  15.001  0.1238  0.0303 -0.1879
42577W        W45797   0.310   2.475   4.770 -0.3864 -0.3809  0.0320
42578W        W45798  12.303   0.436  12.687 -0.1693  0.0667 -0.3168
42579W        W45799  11.435  15.715  16.272  0.1615  0.0623  0.1036
42580W        W45800   3.858   7.175  10.101  0.0428  0.3293 -0.2256
42581W        W45801  14.089   7.354  13.401 -0.0702 -0.0145  0.1101
42582W        W45802  15.263   6.495  14.985  0.1460 -0.0934  0.0454
42583W        W45803   1.740  16.330  11.452  0.0705 -0.1164  0.1878
42584W        W45804  17.146  12.062  13.051  0.1178  0.0096  0.0967
42585W        W45805  13.875   0.733  15.277  0.1507  0.1520  0.2397
42586W        W45806  13.159   3.840   9.266  0.1064  0.0406  0.0054
42587W        W45807   1.708   9.176   5.609  0.0813  0.2697  0.1559
42588W        W45808  15.851   7.212  13.498 -0.0736  0.0116 -0.0404
42589W        W45809   0.843   6.563  16.560 -0.0264 -0.1276  0.1679
42590W        W45810  16.144   6.331  14.438 -0.2934 -0.2789  0.3422
42591W        W45811   3.166   3.092  12.895 -0.0178 -0.1206 -0.0769
42592W        W45812   9.685   2.168  18.053  0.1170 -0.2522 -0.0025
42593W        W45813   0.297   5.081  16.432  0.0233 -0.0566 -0.0507
42594W        W45814  17.048   6.536  12.659 -0.0634 -0.1938  0.3686
42595W        W45815  14.067  14.227  12.385 -0.0884  0.2160 -0.4155
42596W        W45816  17.249  17.770   8.770 -0.1705 -0.1076 -0.1224
42597W        W45817   5.708   5.748   9.045  0.0518  0.1073 -0.0500
42598W        W45818   0.210  17.507  15.125 -0.1565 -0.4251  0.0247
42599W        W45819   6.794  17.364  10.728 -0.0386 -0.0542 -0.1408
42600W        W45820  14.532   5.653   9.080 -0.0489  0.2517 -0.1600
42601W        W45821  16.217  10.330   7.515  0.0005  0.0850  0.1198
42602W        W45822  13.886   2.830   8.095  0.1670  0.3018  0.2833
42603W        W45823   1.813   0.698  17.767  0.0365 -0.0197 -0.3088
42604W        W45824  16.434   2.438   7.620 -0.0084 -0.3312  0.1246
42605W        W45825  16.007   3.848  14.596  0.2730 -0.1758  0.0305
42606W        W45826  17.296   7.238  12.212  0.0795  0.0202  0.3015
42607W        W45827   1.558  16.609  17.120  0.2375  0.0238 -0.3733
42608W        W45828  17.425   4.204  15.049  0.1156  0.0807  0.0203
42609W        W45829   8.955  16.574  10.617  0.0991 -0.0569  0.0144
42610W        W45830   0.550   6.785  10.232  0.1869  0.0137  0.1279
42611W        W45831  15.670  15.290  14.737  0.0723  0.1018 -0.1417
42612W        W45832  15.592   6.240  16.584  0.0936  0.1570  0.4107
42613W        W45833  14.310   6.392   1.265 -0.0275  0.1162 -0.1401
42614W        W45834  14.676   4.672  16.914  0.1232  0.0532  0.1649
42615W        W45835   1.349   8.530  15.257 -0.1183  0.1271  0.3345
42616W        W45836  16.422   0.446  13.423 -0.1823  0.0326 -0.0732
42617W        W45837  13.212   3.562  14.872 -0.1882  0.2600  0.1288
42618W        W45838   3.990   5.860  12.841 -0.1464  0.2493 -0.0082
42619W        W45839  15.895   6.936  11.684 -0.1130  0.2649 -0.2684
42620W        W45840  12.754  12.903  12.229  0.0314  0.4071 -0.0866
42621W        W45841  16.474   4.135   0.083  0.0156  0.0794 -0.0258
42622W        W45842  14.795   1.973   9.500  0.1332  0.0904 -0.1375
42623W        W45843   1.083   3.792  17.508 -0.0217  0.2297 -0.2058
42624W        W45844  12.260   3.791  12.087  0.2367 -0.0396  0.2663
42625W        W45845  14.504   8.524  13.890  0.0595  0.0907 -0.4069
42626W        W45846  17.268   5.242  17.767  0.3090 -0.4266 -0.2153
42627W        W45847  15.485   2.224  11.837 -0.0488  0.3072 -0.0473
42628W        W45848  16.843   1.210  12.346  0.2976  0.1796  0.0039
42629W        W45849  16.745  13.709   5.212  0.1790 -0.0774  0.2019
42630W        W45850  15.594   8.169  14.315  0.0184 -0.1667  0.1151
42631W        W45851  17.275   7.266  15.015  0.3793 -0.2388 -0.0398
42632W        W45852   2.866   3.289   8.070  0.0608 -0.0721 -0.1197
42633W        W45853   1.344  17.345   9.997  0.0629  0.0428  0.1054
42634W        W45854  14.146   8.042   9.624 -0.1043 -0.1457  0.0230
42635W        W45855  10.203   9.088   4.371 -0.1571  0.2912 -0.1201
42636W        W45856  11.839  15.481   9.847 -0.1611 -0.1418  0.2210
42637W        W45857  16.699  17.238   7.251 -0.1188  0.1178 -0.1188
42638W        W45858   1.608   7.760  12.940 -0.0990  0.0255 -0.0745
42639W        W45859   1.190   7.314   6.529  0.1733 -0.1448  0.0147
42640W        W45860  16.885   7.710  11.320 -0.1903 -0.1275  0.1201
42641W        W45861  18.121   7.792  14.973  0.2004  0.0964 -0.2246
42642W        W45862   8.937   0.925  17.115 -0.0251 -0.2191  0.0215
42643W        W45863   1.715  10.488  18.052  0.1504 -0.0651  0.0428
42644W        W45864  16.835   1.548  16.403  0.0071  0.0639 -0.0178
42645W        W45865  15.186   0.539   6.622  0.0173 -0.2256  0.3609
42646W        W45866  10.799  18.031  11.441 -0.2594 -0.2042 -0.2728
42647W        W45867  11.325   9.545  16.319 -0.1152 -0.1119 -0.2634
42648W        W45868  13.875   2.122  18.211  0.2696  0.1405  0.1007
42649W        W45869  13.733   1.297   8.672 -0.2204  0.0086  0.1813
42650W        W45870   7.770   2.557   9.335  0.1208  0.0406  0.1690
42651W        W45871  15.905   9.725  16.861 -0.0333 -0.0002 -0.0321
42652W        W45872  17.306  11.743  15.330 -0.1107 -0.1615 -0.2364
42653W        W45873  16.695   5.937  13.655 -0.2669  0.0121  0.2065
42654W        W45874   3.542  11.479  13.399 -0.0945  0.3514  0.0231
42655W        W45875  15.548   6.615   7.214 -0.0965 -0.0099 -0.1313
42656W        W45876   3.862   5.313  12.253 -0.2625  0.1143  0.0206
42657W        W45877   1.770  10.384  16.570 -0.1800  0.1528  0.0424
42658W        W45878  15.428  14.361  12.773  0.1023 -0.0319  0.0242
42659W        W45879  14.955   1.390  14.929 -0.0759  0.0875 -0.3718
42660W        W45880  14.275  14.273  10.828  0.0600  0.0865  0.1231
42661W        W45881  16.471   3.218  12.411  0.0180 -0.2052 -0.0334
42662W        W45882  11.448   5.554  13.117  0.2159 -0.2641  0.1838
42663W        W45883  15.894   9.445   6.193 -0.0348  0.1099  0.1080
42664W        W45884  11.103  17.404  12.501 -0.2869  0.2540 -0.1476
42665W        W45885  13.014   5.169  10.925  0.0891 -0.0420 -0.1872
42666W        W45886   2.261   4.566  10.467  0.0630 -0.2037  0.0229
42667W        W45887   5.163   5.388  12.904  0.0734  0.0928  0.2687
42668W        W45888  13.968   6.926  17.745 -0.2105 -0.1768 -0.1477
42669W        W45889  16.482   4.898   9.380  0.0564  0.1524 -0.0014
42670W        W45890  15.209  16.334  15.981  0.0306 -0.0798 -0.3892
42671W        W45891  16.733   3.082   9.146 -0.2294  0.1732 -0.1827
42672W        W45892  12.874   2.725  11.163 -0.0069  0.0836 -0.0678
42673W        W45893  15.507   5.263   6.636 -0.2089  0.4146  0.2429
42674W        W45894  13.173   7.945   9.731 -0.1137  0.0156  0.1032
42675W        W45895   1.255  17.626  10.402  0.0019  0.1491 -0.0269
42676W        W45896  13.039   3.823  13.977  0.3290 -0.0406 -0.1733
42677W        W45897  13.811   1.000   9.994 -0.0380 -0.1830 -0.1008
42678W        W45898   3.359   2.481   7.748  0.0833 -0.4010 -0.1095
42679W        W45899  15.819   4.218  11.522 -0.0596  0.0839  0.5600
42680W        W45900  17.490  17.662  15.120  0.0892 -0.3716 -0.0922
42681W        W45901   3.353   2.344  12.163  0.3689  0.2008  0.0344
42682W        W45902   0.204   9.830  11.204 -0.1835  0.0784  0.0851
42683W        W45903   0.977   3.547  11.882  0.0986 -0.2532 -0.1154
42684W        W45904  14.255  12.476   5.415 -0.1543 -0.2059  0.0920
42685W        W45905  13.676  18.059   2.911 -0.0810  0.3218  0.0072
42686W        W45906   0.959  16.677   1.297 -0.3959  0.2393  0.0027
42687W        W45907  14.680   1.548  13.010 -0.0271  0.0128  0.0642
42688W        W45908  16.306  10.941  12.605  0.1674  0.0127  0.3148
42689W        W45909   9.825   7.898   8.263 -0.0127  0.0113  0.4742
42690W        W45910   1.930   5.045  13.368 -0.1681 -0.0536 -0.1815
42691W        W45911  11.095   6.974  17.674  0.0743 -0.3071  0.1111
42692W        W45912  14.649   6.002   9.473 -0.2114 -0.1424  0.1330
42693W        W45913   0.677   8.575  12.224  0.0623 -0.2307  0.2175
42694W        W45914  15.124  11.197   0.710  0.0137 -0.0534  0.1219
42695W        W45915   2.443   9.913  12.584 -0.1186 -0.1291  0.2456
42696W        W45916   1.853  12.624   9.671  0.4443 -0.1700  0.1043
42697W        W45917  11.653   5.934  11.618 -0.0996 -0.1155 -0.2607
42698W        W45918   2.844   8.512   9.904  0.0178  0.1009 -0.0402
42699W        W45919   1.452   8.246  12.098 -0.0112  0.2218 -0.0298
42700W        W45920  16.979   0.704  11.793 -0.0488 -0.0606  0.0750
42701W        W45921  13.701  14.773   0.258  0.0708  0.5124  0.1055
42702W        W45922   1.004  16.971   9.866 -0.3947 -0.1485 -0.2766
42703W        W45923   1.328   6.708  16.463 -0.1096 -0.1418  0.1238
42704W        W45924  16.336   2.606  14.134  0.0212 -0.2308  0.0378
42705W        W45925   0.202   5.951  13.118  0.0613 -0.1806  0.0236
42706W        W45926  12.376  12.114  12.495  0.0625 -0.0728 -0.1913
42707W        W45927  16.385   5.450  12.386 -0.1806  0.0513  0.1197
42708W        W45928  12.770   3.910  16.311  0.0154 -0.0483 -0.1305
42709W        W45929   3.561   8.194  15.233 -0.3801 -0.1197 -0.0549
42710W        W45930   2.177   9.358   7.014  0.0880  0.0854  0.2471
42711W        W45931   2.990   5.686  12.755 -0.0990  0.2069  0.2405
42712W        W45932   3.576   3.297  16.826 -0.2527 -0.2146 -0.2688
42713W        W45933  15.258  12.480  15.759  0.1568  0.1817  0.1514
42714W        W45934  14.234   2.683   5.488 -0.2158 -0.1299 -0.0900
42715W        W45935   4.201   8.880   0.770 -0.1997  0.0854 -0.0637
42716W        W45936   0.114   4.206   1.072 -0.0934  0.1378 -0.0424
42717W        W45937   0.632   0.143   7.866 -0.2982 -0.0246 -0.4067
42718W        W45938  14.314  17.884  11.693 -0.1864 -0.1437 -0.1055
42719W        W45939  15.119   2.539   0.401  0.0902  0.1778  0.0699
42720W        W45940   4.681  12.957  10.634  0.0408 -0.1906  0.0133
42721W        W45941  13.035  14.441  14.378  0.0909  0.0964  0.1626
42722W        W45942  14.156   9.398   8.123  0.0165  0.0801 -0.2660
42723W        W45943   0.557   3.401  10.099  0.1060  0.0277  0.1393
42724W        W45944  17.044  17.552  13.147 -0.0945  0.1265  0.4881
42725W        W45945  16.173  16.105  15.031 -0.0700  0.2771  0.0154
42726W        W45946  11.903   5.851  12.163 -0.0025 -0.0166 -0.0329
42727W        W45947  13.603   4.372   1.368 -0.1602  0.0973 -0.1907
42728W        W45948   1.799   7.384  10.852 -0.0366  0.1606  0.0831
42729W        W45949  11.091   8.339  14.310 -0.1004 -0.1889 -0.0437
42730W        W45950  16.129   7.841   8.543 -0.0419 -0.3239 -0.1472
42731W        W45951  15.244  16.897  11.784  0.0779  0.2654 -0.1438
42732W        W45952  17.279   0.699  13.289 -0.0575  0.0791  0.0241
42733W        W45953   2.793  12.363   6.390  0.2459 -0.0263  0.1013
42734W        W45954   1.496   9.431  15.212 -0.0544 -0.0448  0.1007
42735W        W45955  12.442   1.993  11.893  0.0678  0.1991  0.2628
42736W        W45956  15.082   6.073  12.842  0.3380 -0.2658 -0.2484
42737W        W45957   4.334   7.654   7.961 -0.0214  0.1887 -0.0403
42738W        W45958  10.806   1.304   7.025 -0.1232  0.0625 -0.1861
42739W        W45959   1.449   9.806  12.132 -0.3043 -0.2325  0.1472
42740W        W45960  14.364   7.393   9.622  0.0628  0.1106 -0.0341
42741W        W45961  12.020  18.032  10.503  0.3785 -0.1607  0.2997
42742W        W45962  15.163  11.142  18.165  0.1642  0.0978  0.1814
42743W        W45963  15.638  15.072  16.524 -0.2436 -0.1536 -0.0898
42744W        W45964  17.154   5.557  13.053  0.0903  0.0428  0.1852
42745W        W45965  16.773   7.275   8.150 -0.0392 -0.1953 -0.1330
42746W        W45966  17.241   9.340   9.561  0.0229  0.4642  0.0933
42747W        W45967   1.437   7.693  14.889  0.2219  0.3821 -0.0818
42748W        W45968  14.773   8.625   6.784  0.0733  0.0993 -0.0009
42749W        W45969   0.971   7.049   9.200  0.0840 -0.0694  0.1499
42750W        W45970   7.535   7.323   8.755 -0.1416 -0.2351 -0.2585
42751W        W45971  14.610  10.928  13.536  0.0423  0.3760 -0.2166
42752W        W45972   2.179  12.524  15.209  0.0854 -0.0881  0.0903
42753W        W45973   1.639   6.624  16.901 -0.0381 -0.2034 -0.1792
42754W        W45974  12.428   1.427  13.394 -0.1376 -0.2378 -0.3701
42755W        W45975  14.806   0.288   7.555  0.1334  0.1834 -0.4492
42756W        W45976  11.979   1.781  13.761 -0.0169  0.0593  0.3289
42757W        W45977   0.892   4.931  13.789  0.1043 -0.0600  0.1692
42758W        W45978  13.152  10.465   0.330  0.0519 -0.2977 -0.4101
42759W        W45979  13.889   6.269   9.704 -0.2323 -0.0114 -0.2241
42760W        W45980   7.531   6.809  14.905 -0.1482 -0.0130 -0.1173
42761W        W45981  15.737   3.465  13.370  0.1536 -0.0288 -0.2026
42762W        W45982  17.899   5.574  11.338  0.2060 -0.1975 -0.0466
42763W        W45983  15.645   5.655   0.749  0.0378 -0.1286 -0.0736
42764W        W45984  12.767   3.771  11.344  0.1338  0.2407 -0.1260
42765W        W45985  11.015   7.420  10.941 -0.1070  0.2157  0.3744
42766W        W45986   1.423   4.692   0.204 -0.1558 -0.1066 -0.0617
42767W        W45987  16.473  10.563   5.688 -0.1417  0.1187  0.0040
42768W        W45988   0.713   3.240  15.522  0.1431 -0.2318 -0.2244
42769W        W45989   6.272   2.908   6.843 -0.1129 -0.1489  0.0734
42770W        W45990   0.816   4.492  17.781 -0.0454 -0.5161 -0.0903
42771W        W45991   0.482   5.919  15.882 -0.0888 -0.3547 -0.1772
42772W        W45992  15.002   4.498   7.885 -0.0031  0.0679 -0.0723
42773W        W45993  12.905   4.501  11.791  0.0038 -0.0943  0.1334
42774W        W45994  15.048   4.464  14.679  0.1791 -0.1029  0.1123
42775W        W45995   0.057   1.326  14.252  0.1380  0.0978 -0.2630
42776W        W45996   2.263   5.436   6.487  0.2412 -0.0650 -0.0400
42777W        W45997  16.241   0.708  13.087  0.2038 -0.3825  0.0925
42778W        W45998  17.351  17.897  10.528  0.0102  0.0710 -0.1463
42779W        W45999  12.131   0.147   3.567  0.0615  0.0766  0.0796
42780W        W46000  15.278  12.044  13.615 -0.2343 -0.2631  0.0040
42781W        W46001   1.448   4.739   9.074 -0.1488 -0.4286 -0.0056
42782W        W46002   9.865   4.683  13.341  0.2920 -0.1157  0.2783
42783W        W46003   1.938  16.909  17.035 -0.1674  0.0308 -0.0496
42784W        W46004  12.675   6.571  15.121 -0.0747  0.2552  0.1838
42785W        W46005   0.564   3.849  10.959 -0.1545  0.2637 -0.2018
42786W        W46006  16.198   4.382  13.404  0.0951 -0.0228 -0.2013
42787W        W46007   4.868   7.853   7.319 -0.0187  0.0598 -0.1576
42788W        W46008   0.705   6.027   9.096 -0.0690  0.0412 -0.0886
42789W        W46009  11.792   6.321  14.845 -0.0655 -0.3032  0.4734
42790W        W46010  16.141   3.484  15.754  0.0598  0.0309 -0.2467
42791W        W46011  14.677   2.616  14.960 -0.1999 -0.5238  0.0135
42792W        W46012   2.230   3.026  10.069  0.0006 -0.0054 -0.1586
42793W        W46013  14.718   5.838  15.708  0.1283  0.0884 -0.2312
42794W        W46014   3.635   8.603  13.737 -0.0185  0.0739  0.1033
42795W        W46015   3.391   3.969  13.704 -0.1963  0.1813 -0.2844
42796W        W46016   2.817  18.218  15.993  0.1179 -0.0014  0.1039
42797W        W46017  10.675   5.075  13.182 -0.1660  0.0766  0.1168
42798W        W46018  17.539   9.442   7.899 -0.0307 -0.2453  0.2473
42799W        W46019  12.546   8.687   4.397 -0.0697  0.0089 -0.0928
42800W        W46020  16.926   3.177  14.409 -0.2275 -0.1067 -0.0050
42801W        W46021  13.798   7.113  17.296 -0.0788  0.1050 -0.3857
42802W        W46022   2.381  10.915   7.855  0.1276 -0.2567 -0.3082
42803W        W46023  12.804   6.431   4.066 -0.2254  0.1482 -0.3786
42804W        W46024   1.861  10.655  14.171 -0.3821  0.0579 -0.1751
42805W        W46025  18.147  10.008   7.592  0.0403  0.2192 -0.0425
42806W        W46026  12.750  17.333  14.282  0.0449 -0.0262  0.1187
42807W        W46027   1.191   8.752  11.239  0.5071 -0.0272 -0.1229
42808W        W46028  16.764   8.555  12.652 -0.0622  0.0483  0.0141
42809W        W46029  13.880   0.162   6.845 -0.1076  0.1818  0.0940
42810W        W46030   0.721  12.105  16.477  0.0118  0.1267  0.0610
42811W        W46031   3.175   8.547  16.404 -0.0838 -0.1490  0.5235
42812W        W46032   0.905  14.434  14.927  0.3138 -0.0197  0.3666
42813W        W46033   2.162   6.045   0.041  0.1081 -0.3427 -0.1435
42814W        W46034  17.296   9.191  17.968  0.0397 -0.1658 -0.2420
42815W        W46035  10.328  10.875  17.908  0.1593 -0.1568  0.1947
42816W        W46036  17.818  11.077  17.171 -0.3278  0.1435 -0.0921
42817W        W46037  16.015   7.525  15.389  0.0179 -0.0530  0.0374
42818W        W46038   2.317   7.549  10.256  0.3981  0.0215  0.0303
42819W        W46039  16.817   2.360  15.836  0.0517 -0.3335  0.1644
42820W        W46040  11.619   3.120  12.862 -0.1316  0.3938 -0.3127
42821W        W46041  15.696   7.230   3.934  0.1349  0.4275  0.2241
42822W        W46042  16.967  10.549  12.964  0.0608  0.0397 -0.1188
42823W        W46043  10.762   0.413   7.413 -0.1019 -0.0355 -0.1120
42824W        W46044  16.354   7.742  11.565  0.1105  0.5667 -0.1981
42825W        W46045  16.770   4.543  18.111 -0.2830  0.2046  0.0556
42826W        W46046   8.253  10.943   0.622  0.0522  0.0588  0.1377
42827W        W46047  10.649   0.602  17.037 -0.0651  0.1149 -0.1364
42828W        W46048  11.485   7.592   6.731 -0.2071 -0.3393 -0.3731
42829W        W46049  17.539  11.008  11.234 -0.1327 -0.1834  0.0009
42830W        W46050   0.360   0.874   8.699  0.0230 -0.1716  0.2317
42831W        W46051   0.410   6.577  13.591 -0.0565  0.1915 -0.1810
42832W        W46052  15.261   1.297   9.235 -0.1506 -0.3072 -0.0237
42833W        W46053   8.247   8.630  15.351 -0.0140 -0.1848  0.1411
42834W        W46054  14.767   7.149  12.849  0.0133 -0.0659 -0.2740
42835W        W46055   9.789  10.220  14.868 -0.3039  0.4407 -0.2272
42836W        W46056   1.864  11.088  11.920 -0.2031 -0.3601  0.1557
42837W        W46057  16.706   5.937   0.661  0.3003  0.1168  0.1537
42838W        W46058  15.053   6.445  16.061  0.0411 -0.4331 -0.4118
42839W        W46059  14.097   2.348   9.944 -0.0603 -0.0559  0.1593
42840W        W46060  14.294   7.552  11.098  0.0594 -0.2196 -0.0435
42841W        W46061   1.480   5.997   8.360 -0.1834  0.0494  0.0128
42842W        W46062  15.253  13.999  11.100 -0.2432  0.2945 -0.0726
42843W        W46063   8.034   2.166  15.105  0.2775  0.1113 -0.1606
42844W        W46064  17.130   2.747   9.223  0.2799  0.2044 -0.1539
42845W        W46065   9.314   6.290  16.462  0.2556 -0.1034 -0.1387
42846W        W46066   3.024   4.293  11.848  0.1159  0.0721 -0.0048
42847W        W46067  16.015   8.602   9.634 -0.2306  0.0574  0.2262
42848W        W46068   1.018  17.899  14.926 -0.2012 -0.2420 -0.1023
42849W        W46069  17.676   4.608   7.032 -0.1637 -0.3046 -0.0192
42850W        W46070  17.845   6.700   7.660  0.1364 -0.2265  0.0978
42851W        W46071  13.529   4.572  16.157 -0.1392  0.2287 -0.0713
42852W        W46072  17.662   8.771  10.804 -0.2059  0.2422 -0.1771
42853W        W46073  17.817   8.474   6.144  0.1216  0.0425  0.0489
42854W        W46074   0.785   7.862   8.850  0.0700  0.2911  0.1239
42855W        W46075  17.779   2.510   7.331  0.2049  0.0670  0.2279
42856W        W46076  16.212   6.648   2.348  0.0990 -0.0058  0.1202
42857W        W46077  11.819   8.127  14.957  0.0459 -0.0396 -0.0817
42858W        W46078  11.804  10.151  17.713 -0.0845  0.1658  0.2471
42859W        W46079  15.988   5.733  18.161 -0.0064  0.1564 -0.0613
42860W        W46080   9.471   2.270  14.768 -0.0096  0.3545 -0.1491
42861W        W46081  16.686   5.428   1.401  0.2256  0.1936 -0.1129
42862W        W46082  13.606   2.848  10.542 -0.0382 -0.1061  0.1130
42863W        W46083  15.202   4.646   7.384 -0.0886  0.2788  0.0585
42864W        W46084  17.964  13.882  15.329 -0.1788 -0.0030  0.3071
42865W        W46085  13.436   3.472  15.329 -0.1814 -0.4597  0.5052
42866W        W46086   2.468   1.721   2.694 -0.1809  0.0359 -0.0668
42867W        W46087   8.848   7.742   5.841 -0.2679  0.5407  0.1042
42868W        W46088  18.226   4.128  11.293  0.1037 -0.0223 -0.1674
42869W        W46089  12.826   4.898   8.613 -0.0688  0.0786 -0.0145
42870W        W46090   2.332  10.915   6.913  0.3379  0.2227  0.1300
42871W        W46091  14.472   5.960  15.218 -0.0011  0.3933  0.0736
42872W        W46092   1.639   6.743  10.041  0.2337  0.4585  0.2469
42873W        W46093  17.984   7.030  10.341 -0.2297 -0.1431  0.2216
42874W        W46094  17.157   5.105  13.930 -0.3046  0.0314 -0.0410
42875W        W46095   8.158  10.791   9.308 -0.1622  0.2547 -0.2523
42876W        W46096  17.582   5.351   1.213 -0.3358  0.1332  0.0398
42877W        W46097  18.211  11.824   8.164  0.0474 -0.0109 -0.2037
42878W        W46098  13.194   1.514   9.500 -0.0850  0.1405 -0.2758
42879W        W46099  17.026   7.481   9.391  0.1090 -0.0541  0.2749
42880W        W46100  14.081   1.637   0.064  0.2420  0.0024 -0.0549
42881W        W46101   3.847   9.553   8.795  0.0125 -0.1708  0.1374
42882W        W46102   1.498   8.158  12.621  0.2390 -0.2192  0.0461
42883W        W46103  16.711  10.938  15.950  0.1927 -0.2534  0.2829
42884W        W46104   3.201   5.959  10.000  0.3321  0.1449 -0.2363
42885W        W46105  16.470   8.114   4.167  0.1431 -0.1880 -0.1646
42886W        W46106  16.327   0.120  13.874 -0.0030 -0.0108  0.0331
42887W        W46107   2.061   9.297   8.589 -0.2074  0.1676 -0.0991
42888W        W46108   0.076   7.097   3.348 -0.0026 -0.0059  0.0136
42889W        W46109  12.069  12.446   0.232  0.0763 -0.1460  0.0439
42890W        W46110  15.213   7.639  16.318 -0.0029 -0.0302  0.0241
42891W        W46111  17.055   7.944   9.788  0.2703 -0.2851  0.1558
42892W        W46112  16.515   7.424  15.537  0.2457  0.0860  0.3792
42893W        W46113   0.581   6.352   6.394 -0.2104  0.2538 -0.2240
42894W        W46114   7.520   5.613  17.259  0.2032 -0.1284  0.2926
42895W        W46115  15.591  16.296   7.386  0.1255 -0.0710 -0.2151
42896W        W46116  14.540   5.440  12.912 -0.0131  0.1529  0.0974
42897W        W46117  12.640  16.493   5.040  0.1901 -0.0540  0.0860
42898W        W46118  16.584   0.503  17.264  0.0731  0.0413 -0.2733
42899W        W46119  13.978  13.323  13.963  0.0333  0.0037 -0.0048
42900W        W46120  14.184   7.914   1.478  0.2616 -0.0943 -0.2469
42901W        W46121  13.424   1.166  18.234 -0.0748 -0.0404 -0.3647
42902W        W46122  17.123  10.341  12.379 -0.5529 -0.0516 -0.0435
42903W        W46123   2.860   3.773  16.273  0.0188  0.1801  0.1010
42904W        W46124  11.509   1.482  13.038 -0.0540  0.0984  0.0061
42905W        W46125  15.131   3.113   1.128 -0.1434 -0.1234  0.0955
42906W        W46126   2.505   9.888   0.333 -0.0408 -0.2204  0.0827
42907W        W46127  14.062   7.785  15.293  0.0555 -0.3653  0.0248
42908W        W46128  17.597   8.499  13.263  0.1876  0.1514 -0.1265
42909W        W46129  16.650   2.289   0.241 -0.2879 -0.4085  0.0098
42910W        W46130  10.074   2.179  17.744 -0.3699 -0.0570  0.3276
42911W        W46131  18.205   7.538   6.282 -0.0436 -0.4648 -0.1546
42912W        W46132   1.637   7.608   2.119  0.0537 -0.0180  0.0280
42913W        W46133   9.238   3.199  18.225  0.1430 -0.3964 -0.2081
42914W        W46134   7.408   2.825  18.005  0.2474  0.0070 -0.2198
42915W        W46135  16.999   8.827   3.662 -0.0068 -0.1990 -0.2195
42916W        W46136  16.031   1.267  15.590 -0.1737  0.0885 -0.0918
42917W        W46137  10.499   5.715  12.456  0.0350  0.1402  0.1684
42918W        W46138   9.810   3.204   3.944  0.0432 -0.2704 -0.0754
42919W        W46139   8.944   9.039  14.008  0.3043  0.4399 -0.0151
42920W        W46140   2.348   3.467  13.109  0.0092 -0.3150  0.0962
42921W        W46141  17.257   4.345   0.973 -0.0213  0.1522  0.0632
42922W        W46142  16.816   3.650  11.380 -0.0316  0.3162  0.1301
42923W        W46143   2.146   3.125  16.279 -0.0405 -0.0438  0.1454
42924W        W46144  17.537   4.189   2.901 -0.1246  0.2359  0.1510
42925W        W46145   2.632  13.754  16.387 -0.1367  0.0502  0.3321
42926W        W46146  17.047   1.800  13.032 -0.1519  0.0340 -0.2066
42927W        W46147  15.855   3.416   0.362  0.1336 -0.1450 -0.1073
42928W        W46148   8.615   5.118  13.617 -0.0888  0.1682  0.2679
42929W        W46149  14.434  10.208  13.978 -0.0717  0.0030  0.0077
42930W        W46150  17.574   8.802  14.102 -0.0420 -0.0403 -0.1002
42931W        W46151   3.806   4.944  14.075  0.3074 -0.0228 -0.0628
42932W        W46152   0.470  17.180  17.873 -0.4256  0.0776  0.0060
42933W        W46153  14.198   8.913  15.474  0.1836 -0.1925  0.2615
42934W        W46154  13.794   5.835  12.536  0.2183  0.1082 -0.1925
42935W        W46155  16.041   5.878  15.179 -0.0300 -0.0967  0.0298
42936W        W46156  16.127  15.652  14.223 -0.1549 -0.2381 -0.0542
42937W        W46157  15.219   5.199   4.430 -0.3802  0.1275 -0.2329
42938W        W46158  15.838   8.508  13.278  0.0341  0.0001  0.1172
42939W        W46159   2.331  12.608   1.993 -0.1998  0.0891 -0.1511
42940W        W46160   4.114   5.275   1.268  0.0798  0.0935  0.0020
42941W        W46161   8.854  10.567  10.392  0.1959  0.2005 -0.1437
42942W        W46162  15.045   4.649  15.300  0.5595  0.0345 -0.0078
42943W        W46163   0.068   9.284  16.937  0.1472  0.1949  0.2085
42944W        W46164   0.558   3.320   4.790  0.1641 -0.2909 -0.2202
42945W        W46165  14.057   8.145   1.059 -0.0813 -0.2321 -0.0904
42946W        W46166  14.487   6.519   9.516  0.1813  0.0969  0.1892
42947W        W46167  13.599   3.935  13.949 -0.0438  0.0183  0.0267
42948W        W46168  15.852  10.060  17.337  0.1916 -0.1712 -0.0059
42949W        W46169   0.450  11.182  15.807  0.1502  0.0956 -0.2855
42950W        W46170   1.406  14.960   4.481 -0.0208 -0.4306  0.1011
42951W        W46171   2.147   2.067  11.759 -0.1579  0.1923 -0.2840
42952W        W46172  14.348   3.810  14.152  0.0794  0.1396  0.0563
42953W        W46173  12.639  10.400   2.468 -0.4843  0.1394  0.3580
42954W        W46174   3.061  10.920   0.344 -0.1553  0.0331  0.1450
42955W        W46175   2.423   7.924  17.591 -0.2999 -0.0361 -0.2779
42956W        W46176  17.662   3.654  12.674  0.3643  0.0639  0.1261
42957W        W46177  15.581   1.197   0.456  0.1995 -0.1853 -0.0476
42958W        W46178   3.818  13.385  14.173 -0.0482  0.0301  0.0159
42959W        W46179   1.065   9.234  16.429  0.0396  0.0099 -0.1966
42960W        W46180  17.643   4.882  17.844  0.3461 -0.3529 -0.3943
42961W        W46181   7.533   5.641   4.333  0.0725 -0.0678  0.2063
42962W        W46182  11.137   3.202   4.393  0.0419 -0.1875  0.0632
42963W        W46183  13.360   4.428  11.490  0.0199  0.0810  0.0213
42964W        W46184  14.291  16.618   3.778  0.2838  0.2148  0.3395
42965W        W46185  16.443  17.976  10.050 -0.0597 -0.1755  0.0608
42966W        W46186  14.910   6.212  13.292 -0.0988 -0.2838 -0.3300
42967W        W46187   0.038   4.249  13.825 -0.3236  0.0058 -0.0969
42968W        W46188  14.967   8.578  13.293 -0.0250 -0.0211 -0.0149
42969W        W46189  15.947   6.224   9.257 -0.1662 -0.1469  0.1410
42970W        W46190  18.178  12.136  15.384 -0.1921 -0.3693  0.1580
42971W        W46191  13.101   8.026  14.078  0.0530  0.2745  0.2102
42972W        W46192  12.960   2.186  15.782  0.1376 -0.1899  0.0592
42973W        W46193  15.820   9.331   5.432 -0.2348  0.1407 -0.2786
42974W        W46194  17.495   6.993  17.463 -0.0065  0.2485  0.3680
42975W        W46195   4.391   6.071   0.760 -0.0944  0.0505 -0.2533
42976W        W46196  12.340   6.886  13.298 -0.3419 -0.1248 -0.1617
42977W        W46197   3.632   4.859  14.569  0.1280 -0.0857  0.2641
42978W        W46198  13.464  16.826  11.303  0.1241 -0.0948 -0.0360
42979W        W46199   2.436   2.138  14.777  0.0616  0.1020 -0.2564
42980W        W46200  15.687   1.033  12.308  0.1094 -0.2958 -0.0080
42981W        W46201  13.744   5.341   9.410  0.1337 -0.2685  0.0770
42982W        W46202   3.138  12.575  16.763  0.0745  0.1936 -0.1261
42983W        W46203  11.714   5.480   1.042  0.0272 -0.0321  0.0679
42984W        W46204  13.485   8.184  12.254  0.3654  0.0638 -0.1627
42985W        W46205  10.967  11.016   6.637  0.0885  0.1244  0.1574
42986W        W46206  16.749   5.518   0.214  0.0286  0.0107 -0.0052
42987W        W46207   9.348   4.885  15.336  0.0631  0.0582  0.1736
42988W        W46208  12.084  10.000  13.846 -0.0793  0.3297  0.1493
42989W        W46209   6.482   5.048  16.992  0.0188 -0.0638 -0.0581
42990W        W46210  17.397   9.301   1.507  0.0958 -0.2400 -0.0170
42991W        W46211  11.192   3.812   1.752 -0.0985 -0.0828 -0.2121
42992W        W46212  17.187   5.508   3.729 -0.3438 -0.1291  0.0823
42993W        W46213  14.204   9.085  17.150 -0.1098  0.2795  0.1967
42994W        W46214  16.586   6.292  17.449  0.0569 -0.1098 -0.1626
42995W        W46215   1.957   2.975   0.080 -0.1099 -0.2234 -0.0715
42996W        W46216  16.169  14.398   1.154 -0.0769 -0.0912 -0.0475
42997W        W46217  15.783   5.679  14.669 -0.0107 -0.1240  0.4024
42998W        W46218  15.135   8.151  17.421 -0.0375 -0.1631 -0.0567
42999W        W46219  18.129  16.194   2.515 -0.2318  0.2541 -0.1522
43000W        W46220  17.408   0.065  13.186 -0.0208 -0.0553  0.2475
43001W        W46221  14.709  10.662  10.271  0.1469 -0.0915 -0.1672
43002W        W46222  14.861   5.476   5.785 -0.1335 -0.2420  0.1072
43003W        W46223  15.203   4.056  13.873  0.1463  0.1901  0.0515
43004W        W46224   3.148   4.779  12.706  0.1081 -0.0797  0.0062
43005W        W46225  11.962   9.912   4.193  0.1344  0.0405 -0.1761
43006W        W46226   1.110   4.170  16.059 -0.0019  0.1525  0.3534
43007W        W46227   5.825   3.020   4.810 -0.0312 -0.1731  0.0279
43008W        W46228  11.870  10.898   5.038  0.0386  0.0214 -0.0095
43009W        W46229  10.224  10.215  13.876 -0.2147 -0.0538  0.0447
43010W        W46230   4.337   1.528   0.266 -0.0106  0.1057 -0.3974
43011W        W46231  14.101   2.105   0.881  0.0017 -0.1816  0.2163
43012W        W46232   1.454  17.069  13.956  0.1864  0.0078  0.0944
43013W        W46233  12.928   5.270  12.904  0.0017 -0.0882  0.0521
43014W        W46234   0.466   2.365  15.983  0.0553  0.0353  0.0429
43015W        W46235  12.435   8.906   1.086  0.0166  0.0462 -0.0539
43016W        W46236  14.362   3.771   3.460  0.0618  0.1615  0.0283
43017W        W46237  14.249   7.323   7.971 -0.0983  0.3922 -0.0220
43018W        W46238   1.115   2.954  12.504  0.1366 -0.0686  0.0610
43019W        W46239  15.007   9.035  15.680 -0.3037  0.0243  0.0306
43020W        W46240  12.472   2.354  15.912  0.1113 -0.0972  0.1688
43021W        W46241   0.138  11.414  12.648  0.0856 -0.0578 -0.1100
43022W        W46242  14.481   7.589  13.638  0.0717 -0.0891  0.3149
43023W        W46243  11.624   8.586  15.886  0.0575 -0.0926 -0.3618
43024W        W46244   8.709   0.943   2.642 -0.3288 -0.0486 -0.1413
43025W        W46245  16.652   7.035  13.051 -0.0313  0.0832 -0.0722
43026W        W46246   5.747   8.388  14.354 -0.3277 -0.1093 -0.1527
43027W        W46247  12.919   5.808   2.964  0.0770 -0.1267  0.0329
43028W        W46248  13.157   6.859   6.332 -0.2146 -0.1933 -0.2314
43029W        W46249   9.848   8.352   0.440  0.0946 -0.1794 -0.0268
43030W        W46250   4.084   3.936  12.063  0.0709 -0.0438 -0.3995
43031W        W46251  16.173  17.309   3.209 -0.0939 -0.1599 -0.4177
43032W        W46252  13.837   5.625  15.889  0.1200 -0.3070  0.1721
43033W        W46253  16.859  12.626  14.757  0.4146 -0.2665 -0.1859
43034W        W46254  12.295   8.452   1.447 -0.0826 -0.0626  0.0124
43035W        W46255  16.457   6.568  16.514 -0.0851  0.1071  0.3040
43036W        W46256   1.241   7.674  14.042 -0.0825 -0.0583 -0.0914
43037W        W46257  13.374   5.011   9.267 -0.0077  0.0176  0.1078
43038W        W46258   5.062   8.264  13.858  0.1236  0.0245 -0.3028
43039W        W46259  13.395   0.430  15.723  0.0404  0.0339  0.1217
43040W        W46260   0.853   7.006  11.357 -0.0905 -0.2084  0.1692
43041W        W46261  17.883  10.367  16.439  0.1250 -0.2691 -0.0562
43042W        W46262  15.772   7.025   0.511  0.2142 -0.2477 -0.0844
43043W        W46263  17.206  15.725  17.098 -0.0921  0.0374 -0.2625
43044W        W46264  15.103   6.502  16.797 -0.3473  0.0637  0.1105
43045W        W46265  13.652  11.114  17.459  0.2494 -0.1542  0.0025
43046W        W46266  10.954   5.472  13.868 -0.2124  0.1692  0.1890
43047W        W46267   0.613   4.892   4.113  0.1881  0.2468 -0.1441
43048W        W46268  17.192   4.654  16.007  0.0361 -0.1414 -0.1302
43049W        W46269  11.629  14.292   1.377 -0.1457  0.0603  0.2149
43050W        W46270   8.129   6.226  14.610  0.0602 -0.0787 -0.1361
43051W        W46271   2.723   4.320  13.846 -0.2111  0.1808 -0.0930
43052W        W46272   9.381   8.953  17.867 -0.2455 -0.0270 -0.1834
43053W        W46273  16.779   5.754  12.368  0.4751 -0.2175 -0.1552
43054W        W46274  18.047  17.468  13.641  0.0949 -0.2184  0.1914
43055W        W46275  16.361   6.622   7.142 -0.1786 -0.1269 -0.0091
43056W        W46276  16.115   3.904   0.269  0.0296  0.1303 -0.1504
43057W        W46277  15.922   6.610  10.447 -0.1522 -0.1990 -0.1651
43058W        W46278   6.044   4.001   4.339  0.0750 -0.2102 -0.2420
43059W        W46279  10.290   8.420   4.895 -0.2637  0.3463 -0.1436
43060W        W46280  12.876   7.995  17.898 -0.4301  0.0886  0.3347
43061W        W46281   2.736   7.107   5.842 -0.0082 -0.0247 -0.0156
43062W        W46282  17.446  16.535   9.215  0.0389 -0.1304 -0.1879
43063W        W46283   6.606  11.318  16.767  0.0376  0.1645 -0.3853
43064W        W46284  15.868  14.843  17.445 -0.1223 -0.1811  0.0045
43065W        W46285  16.015   3.368   2.709 -0.1022 -0.2907  0.0722
43066W        W46286  14.244  10.492   0.460 -0.0546 -0.2437 -0.2845
43067W        W46287  14.403  17.420  16.531  0.4867 -0.1408  0.0024
43068W        W46288  15.651  17.115  13.368  0.1426 -0.0764 -0.0256
43069W        W46289  18.145   1.305  13.741  0.0140  0.0056 -0.0989
43070W        W46290  11.693   7.581   5.563 -0.1073  0.2356  0.2423
43071W        W46291  18.024   7.593   1.073 -0.3012  0.2340  0.0959
43072W        W46292  14.185   7.957   0.464 -0.0371  0.1051 -0.0842
43073W        W46293  13.260  16.692  14.872 -0.1091  0.1394 -0.0150
43074W        W46294  11.478   4.943   2.420  0.1962  0.0572  0.0781
43075W        W46295  12.469   5.412  14.028  0.0178 -0.1297  0.2139
43076W        W46296   2.901  18.015  12.616 -0.2186  0.0116 -0.0113
43077W        W46297  14.521   6.162   2.025  0.1052 -0.0688 -0.1432
43078W        W46298  16.353   4.453  17.812 -0.1078  0.0278  0.4310
43079W        W46299   1.288   3.147  14.712  0.0735  0.3331 -0.1313
43080W        W46300  11.023   6.441  16.865 -0.2209  0.0243 -0.1400
43081W        W46301   1.065   8.272  13.560  0.1977 -0.2362  0.0437
43082W        W46302   9.489  15.403  13.770 -0.0735 -0.0386  0.0610
43083W        W46303   1.261  10.958   2.686  0.2120  0.0723  0.3943
43084W        W46304  16.079  10.070   8.440  0.3481 -0.0500  0.1097
43085W        W46305   0.540  18.023   0.001  0.1567  0.1945 -0.3573
43086W        W46306  16.020  13.302   0.278 -0.2669  0.1439  0.1201
43087W        W46307   0.736   5.491   6.941  0.0761 -0.0086  0.0002
43088W        W46308  17.025   6.888   1.198  0.1345 -0.2043  0.0356
43089W        W46309  12.815   3.708  17.613 -0.0846  0.0427  0.2361
43090W        W46310   5.870   7.408  13.694  0.1228 -0.0169  0.1770
43091W        W46311   1.502  13.008   2.457  0.0988 -0.1013 -0.1905
43092W        W46312  12.960   4.566  17.030  0.0243 -0.5586 -0.1247
43093W        W46313  14.749  16.812   4.590  0.1637  0.0660 -0.4018
43094W        W46314   3.253   5.626  16.607 -0.0870 -0.1447  0.0151
43095W        W46315  16.804   3.808  17.859 -0.2072  0.0156  0.2226
43096W        W46316  16.294   9.993   9.404  0.0153  0.0458  0.2618
43097W        W46317  15.392   7.449  14.148 -0.0990 -0.1104  0.3883
43098W        W46318  11.549   1.038   1.686 -0.0564 -0.2829  0.0879
43099W        W46319  13.685   9.135   1.871  0.4570 -0.0683  0.3431
43100W        W46320  11.624  16.205  14.364 -0.1633  0.0238 -0.2656
43101W        W46321   3.217   8.296   3.025 -0.1640  0.3782 -0.3607
43102W        W46322  12.210   0.771  10.323  0.2163 -0.1567  0.0928
43103W        W46323   1.180   9.142  11.601  0.0509  0.0068 -0.0121
43104W        W46324  15.465   9.163   1.151 -0.3464 -0.0288  0.1139
43105W        W46325   3.175   7.783  18.098  0.1012  0.0772 -0.1146
43106W        W46326  10.467   3.225   0.200 -0.3076  0.2718  0.1575
43107W        W46327   7.410   6.273  12.135  0.0763  0.0182 -0.0570
43108W        W46328  13.309   3.108  14.647 -0.2492 -0.3190  0.1694
43109W        W46329   0.864   9.664   1.398 -0.0598  0.0906  0.1584
43110W        W46330   3.252  12.000  14.685  0.2393 -0.0661 -0.0920
43111W        W46331  15.393  13.476   0.279  0.0942  0.2277 -0.1105
43112W        W46332  11.352   7.593  14.308  0.1042 -0.1255  0.2456
43113W        W46333   2.743   6.477   2.344  0.1046 -0.1454  0.0529
43114W        W46334  16.616  11.582   4.174 -0.1947  0.1563  0.0681
43115W        W46335  11.835   4.674  18.034 -0.0152 -0.0384 -0.4007
43116W        W46336  13.383   2.825  15.649  0.2811 -0.1692  0.1206
43117W        W46337   4.498   1.495  15.460  0.1467  0.2912 -0.0971
43118W        W46338   0.496   7.480   9.896  0.0126  0.0545 -0.0078
43119W        W46339  15.315   4.775  14.895 -0.0834  0.0574  0.1773
43120W        W46340   7.532   9.435   2.852 -0.0065 -0.3242  0.0607
43121W        W46341  11.434   7.328  15.922 -0.0267 -0.1839  0.2064
43122W        W46342   0.183  17.632  17.891 -0.0045 -0.0660  0.1867
43123W        W46343  17.625   3.306  11.360  0.1411  0.1836  0.0608
43124W        W46344  13.291   8.544  13.261 -0.1767  0.0461  0.1408
43125W        W46345   4.143  10.058  16.813 -0.1838  0.0983 -0.3563
43126W        W46346  14.120   1.525   4.350  0.0542  0.0961 -0.2016
43127W        W46347   2.054   6.544   9.020 -0.1219 -0.1668 -0.0434
43128W        W46348  13.235   0.158   4.621  0.1538 -0.2958 -0.0968
43129W        W46349   9.778   4.483  17.865  0.3769 -0.0924  0.0800
43130W        W46350   9.883   8.418   3.074 -0.2293  0.2521  0.0521
43131W        W46351  16.677  13.452   3.697 -0.2470  0.3340  0.3748
43132W        W46352   2.448   0.954  13.764 -0.1426  0.3443  0.0373
43133W        W46353  15.972  10.995  11.573 -0.1071 -0.0301 -0.0526
43134W        W46354  11.545   3.607  13.117  0.1746  0.0693 -0.0278
43135W        W46355  12.504  10.534   0.698  0.1761  0.4996  0.0637
43136W        W46356  17.217   3.601  14.310  0.0780 -0.0176  0.1535
43137W        W46357  10.541   9.472   4.125 -0.2010 -0.0018 -0.1053
43138W        W46358   1.944   5.795   6.590 -0.0663  0.2696  0.1095
43139W        W46359  15.811  10.185  16.151  0.1485  0.1397 -0.0784
43140W        W46360  15.677   9.838   1.283 -0.4759 -0.0951  0.0541
43141W        W46361   0.240  12.421  17.487  0.1176 -0.2225  0.1673
43142W        W46362  10.516   5.243   4.285  0.2586 -0.1807 -0.0771
43143W        W46363  14.787   9.197  17.946 -0.0624 -0.3894 -0.0428
43144W        W46364  13.650   3.979  16.768  0.0710 -0.1538 -0.1850
43145W        W46365   8.403   0.394  10.181 -0.1144 -0.3207  0.0588
43146W        W46366   5.625   2.343  12.742 -0.0594  0.1075 -0.1369
43147W        W46367   3.702   6.729   1.477 -0.0225 -0.2055 -0.2208
43148W        W46368   2.863   0.870  18.189 -0.0452  0.3031  0.1340
43149W        W46369  17.048   8.418   2.771 -0.0641 -0.1032  0.2509
43150W        W46370   5.740  10.215   3.199  0.2244 -0.3386 -0.0013
43151W        W46371  17.112   0.889  11.222 -0.0294  0.2324  0.0391
43152W        W46372   9.610  15.465   3.855 -0.1781 -0.1691  0.2857
43153W        W46373   3.209   3.228  12.056 -0.0184 -0.0399 -0.0546
43154W        W46374  13.752  16.440   1.404 -0.1828 -0.2269  0.2107
43155W        W46375  17.297   2.816   5.214 -0.1005 -0.1080  0.1175
43156W        W46376  15.536   4.976   1.595  0.1817  0.3527  0.0509
43157W        W46377  15.751   8.453  14.708  0.1074 -0.2120 -0.0752
43158W        W46378  13.167  17.168  15.683 -0.0029 -0.0370 -0.2392
43159W        W46379  15.649   8.163  17.755  0.0051 -0.0897 -0.2378
43160W        W46380  15.087   3.527  16.132  0.0286 -0.1194 -0.2190
43161W        W46381   8.457   4.362   5.509 -0.0406 -0.0811  0.0057
43162W        W46382   8.811   5.726  13.576  0.0277 -0.0811  0.3207
43163W        W46383  13.152   8.248   6.372 -0.1703  0.0199 -0.0735
43164W        W46384   0.828   8.692  15.218  0.1657  0.0606  0.1430
43165W        W46385  14.703  14.814  15.426 -0.2061 -0.4753  0.0616
43166W        W46386  17.632   5.445   3.463 -0.0231  0.1779  0.1660
43167W        W46387   1.099   4.773  15.087 -0.2479 -0.0003 -0.0278
43168W        W46388   1.680   3.324   2.573 -0.1821 -0.3421  0.1870
43169W        W46389  17.604   0.702  12.640 -0.0020 -0.1657  0.3309
43170W        W46390   2.615  12.189  15.876 -0.1693  0.1755  0.1278
43171W        W46391  10.160   2.858   0.685 -0.2203  0.1352  0.0443
43172W        W46392   4.988   0.048  14.517  0.0263 -0.0236 -0.0641
43173W        W46393  17.215   9.566  14.029 -0.0696  0.1278 -0.1206
43174W        W46394  16.017   6.722   0.813 -0.2317 -0.0229 -0.1683
43175W        W46395  14.214   3.151  12.625  0.2163  0.0498 -0.0497
43176W        W46396  16.435   8.590  17.828 -0.0000  0.1013  0.0446
43177W        W46397   0.261   4.799  15.972  0.2417  0.2237 -0.1200
43178W        W46398   7.551  12.414   5.164 -0.0584 -0.0353  0.0394
43179W        W46399   4.156   1.927   8.787  0.1058 -0.2348 -0.2045
43180W        W46400  10.683  14.147   3.917  0.1726 -0.1500 -0.1025
43181W        W46401   0.288   8.021  17.303  0.1870 -0.0507  0.2676
43182W        W46402   0.434  11.179   6.119 -0.2829  0.0741  0.0670
43183W        W46403  16.994  14.639  11.060  0.0211 -0.0643  0.1768
43184W        W46404  11.824  12.899   0.115 -0.2394 -0.0549  0.0887
43185W        W46405  18.184   3.232   1.165 -0.0804 -0.2654  0.2355
43186W        W46406   3.864  11.406   9.458 -0.0748  0.2763  0.0115
43187W        W46407  17.423   3.277   9.990  0.0243  0.0910 -0.2259
43188W        W46408   1.867   0.337  10.951 -0.1472  0.0093 -0.0489
43189W        W46409  12.218   6.217   0.564  0.1072  0.1393  0.0871
43190W        W46410  17.158  10.158   7.470  0.0093  0.0979  0.1244
43191W        W46411   5.615   3.803   9.972  0.2331  0.0006  0.3140
43192W        W46412   2.928   9.620   8.689  0.2819 -0.3184 -0.1173
43193W        W46413   2.035   8.884  11.272  0.0689  0.3346  0.1142
43194W        W46414  15.351  10.302  13.356 -0.3747  0.1016  0.2598
43195W        W46415  12.044   6.689  14.630  0.0609  0.0167 -0.1271
43196W        W46416  15.793   3.564  12.806  0.0624 -0.2128 -0.0632
43197W        W46417  16.546  11.957   0.743  0.1966  0.2315 -0.4318
43198W        W46418  17.026   7.103   1.987 -0.2089  0.1597  0.1080
43199W        W46419  15.491   1.212  17.556 -0.0193 -0.2661  0.2149
43200W        W46420  14.152   9.381  14.219 -0.0223 -0.0604 -0.0736
43201W        W46421  17.942   4.592  13.153 -0.0064  0.0307 -0.0841
43202W        W46422  15.166   9.247  12.129 -0.0576  0.0167 -0.0010
43203W        W46423   1.900   5.880  16.977  0.1319 -0.2754  0.3043
43204W        W46424  10.955  12.524  18.168  0.0913 -0.1322  0.2362
43205W        W46425  16.349   9.483  15.985 -0.2166  0.0548 -0.1059
43206W        W46426  17.716   7.608  14.209 -0.0690  0.0845 -0.1225
43207W        W46427   3.328  18.216  17.649 -0.1899  0.1607 -0.0544
43208W        W46428  14.055   9.973   1.437  0.1907 -0.2356 -0.1914
43209W        W46429   2.679   9.232   2.384  0.0467 -0.0330 -0.0975
43210W        W46430  13.168   3.021  12.657  0.0609  0.0147 -0.0358
43211W        W46431   0.909   4.907  15.626 -0.0063  0.0856 -0.1854
43212W        W46432   7.156   6.483   0.997 -0.0364  0.1220 -0.0230
43213W        W46433  16.198   3.507   3.566 -0.1878 -0.1480 -0.4217
43214W        W46434  10.664   7.808  14.985  0.1365 -0.1461 -0.0721
43215W        W46435   3.303  10.763  13.919  0.0175 -0.1840  0.1765
43216W        W46436  13.820  12.984  16.237 -0.1685  0.1266 -0.2241
43217W        W46437  18.172   7.871  11.149  0.0243  0.0006  0.2322
43218W        W46438   6.180  17.915  17.026 -0.0174 -0.0101 -0.1725
43219W        W46439   0.283   2.518  17.684  0.0125  0.0617  0.1022
43220W        W46440  11.327   6.548  17.935 -0.0025  0.4158  0.0293
43221W        W46441  17.786   8.151   1.229 -0.1682  0.0319 -0.1217
43222W        W46442   3.182   9.087   1.725  0.1882  0.2874 -0.0035
43223W        W46443  13.774  11.394  15.550 -0.1617 -0.0173 -0.1162
43224W        W46444  17.691   2.715  14.269 -0.0493  0.1583 -0.0428
43225W        W46445  18.265   7.287  15.048 -0.1164  0.1222  0.1023
43226W        W46446  14.184   5.806  14.803 -0.4054  0.2993  0.2831
43227W        W46447   9.041  17.054  15.528  0.3334  0.0697 -0.2241
43228W        W46448   3.762  12.840   1.125  0.2078  0.0422 -0.1924
43229W        W46449   1.595   5.262  11.723 -0.0797  0.1804  0.2660
43230W        W46450   4.970  16.741  14.847  0.4014  0.0461  0.2060
43231W        W46451  12.246   7.804  16.155  0.2196 -0.2908 -0.2324
43232W        W46452  11.861   9.281  15.802  0.3410 -0.0696  0.2677
43233W        W46453   7.430  17.574  12.302 -0.0992  0.3338 -0.1373
43234W        W46454  16.540   4.536   6.433  0.1718 -0.1714  0.0710
43235W        W46455  14.688   1.304   3.597 -0.0877 -0.0078 -0.1467
43236W        W46456  15.907   6.879  17.683  0.0539  0.1872 -0.0141
43237W        W46457  14.243  17.115   6.452  0.1338 -0.0734  0.2689
43238W        W46458  14.029   6.417  13.651 -0.1077 -0.1806 -0.0625
43239W        W46459  16.002   2.084  16.882 -0.0768  0.1835 -0.0444
43240W        W46460  14.966   4.605  14.053  0.1550  0.0925 -0.1074
43241W        W46461  14.309   5.688  16.045 -0.1316  0.0548 -0.0862
43242W        W46462  13.930   5.539  14.329  0.1793 -0.2399 -0.2189
43243W        W46463   0.204   7.498  18.024 -0.0767  0.0650  0.0387
43244W        W46464  15.336   5.548   7.742 -0.1771 -0.1140 -0.0280
43245W        W46465   8.415   3.874  16.471 -0.3630 -0.4317  0.1382
43246W        W46466   1.194  16.306   4.401 -0.3152  0.4960  0.2503
43247W        W46467  12.673   2.173  16.860 -0.1327 -0.0339  0.1142
43248W        W46468   8.800   3.188  15.863 -0.0668 -0.2709 -0.0011
43249W        W46469  16.275   6.926  12.127 -0.2090 -0.0759  0.2122
43250W        W46470  16.691  14.926  17.453  0.1526  0.1487 -0.1891
43251W        W46471   8.223   3.125   6.262  0.2556 -0.5297  0.1029
43252W        W46472  11.326   8.403   1.573  0.1153  0.0977 -0.0439
43253W        W46473  10.951   8.241  16.247 -0.0452 -0.1468  0.0202
43254W        W46474   0.215   1.839   0.721 -0.1154  0.0454 -0.0018
43255W        W46475  17.171   7.914  13.187  0.2657 -0.0529  0.0655
43256W        W46476   0.321   5.503  16.842  0.1754  0.0194  0.0056
43257W        W46477  15.430   6.459  13.710 -0.2755  0.0146 -0.0256
43258W        W46478  16.540   2.522  16.609 -0.1464 -0.2974  0.0871
43259W        W46479  13.302   1.345  12.793 -0.0257 -0.0925 -0.0059
43260W        W46480  10.799   3.306  15.521  0.2053 -0.4072 -0.0021
43261W        W46481   0.505   2.156  18.070  0.3182  0.3317  0.0110
43262W        W46482  11.680   4.992  17.629  0.0415 -0.0375  0.1524
43263W        W46483   4.449   9.059   1.273  0.4590 -0.2091  0.2405
43264W        W46484   1.132   8.613  15.682 -0.0279 -0.2980  0.0683
43265W        W46485   0.302   7.959   5.374  0.2809 -0.2002  0.1968
43266W        W46486  14.924   9.858  11.407  0.1606 -0.0962 -0.0886
43267W        W46487  14.500   2.275  16.995 -0.0718  0.4017  0.0120
43268W        W46488  16.862   8.500   9.167 -0.2284 -0.0500 -0.3769
43269W        W46489  15.467   9.215  14.018  0.0269 -0.1089  0.2779
43270W        W46490  14.824  17.020  17.598  0.0275 -0.1699  0.4409
43271W        W46491  17.820   1.412  12.802 -0.0044  0.0936 -0.0100
43272W        W46492  14.752   0.442  16.859 -0.0341  0.1045 -0.0131
43273W        W46493  15.208   3.649  17.370 -0.0287  0.0324 -0.1917
43274W        W46494   2.507   8.137  12.763  0.0190  0.0332 -0.2035
43275W        W46495  15.343   6.234   2.910  0.1462 -0.1378  0.0252
43276W        W46496   1.727  15.251  12.193  0.0558  0.0757  0.1530
43277W        W46497  17.190   5.512   9.363  0.1845  0.1291  0.1842
43278W        W46498  11.793   2.149  10.324 -0.2632 -0.1008 -0.1196
43279W        W46499  11.783   5.480   6.316  0.0998 -0.1039 -0.3096
43280W        W46500   0.134   1.185  18.133  0.0494  0.0273  0.0423
43281W        W46501  13.185  13.365   2.852  0.0402 -0.1307 -0.0369
43282W        W46502  17.237   1.112   4.537 -0.0631  0.0944  0.0894
43283W        W46503  13.895   8.217   4.803 -0.0251  0.1103  0.0836
43284W        W46504  10.990   8.694   5.954  0.2916  0.1348  0.0330
43285W        W46505   0.505   0.406  17.037 -0.0150  0.0698 -0.0663
43286W        W46506  12.391   8.748   3.182  0.0384  0.3308  0.1696
43287W        W46507  11.690  10.707   0.219 -0.1198 -0.0559 -0.2873
43288W        W46508  17.278   5.181   3.208 -0.1204 -0.0781 -0.0241
43289W        W46509  13.441   3.102   4.517 -0.3272  0.0646 -0.1470
43290W        W46510  12.828   7.973  14.944 -0.2864  0.0524 -0.3444
43291W        W46511   5.619  15.831   0.398 -0.0139  0.3254 -0.0140
43292W        W46512  12.122  10.048  15.658  0.1449 -0.0035 -0.1028
43293W        W46513  17.358   7.975   0.374  0.0344 -0.1002  0.3974
43294W        W46514  13.817  11.471   1.657  0.3324 -0.0179 -0.1864
43295W        W46515   0.104   7.793   7.337  0.1062  0.2689 -0.3701
43296W        W46516  15.910  12.328   1.451  0.1111 -0.0210  0.0620
43297W        W46517   3.759  17.561   4.787 -0.1091 -0.1727  0.2738
43298W        W46518   2.081   7.553   4.342  0.0024  0.1977  0.1330
43299W        W46519   1.701   8.591  16.563  0.1300 -0.0726 -0.1433
43300W        W46520  13.262  11.697   3.262 -0.2477  0.1350 -0.1098
43301W        W46521  12.359   9.152   3.624 -0.3459 -0.3702 -0.2422
43302W        W46522   7.216   8.440   1.762  0.3086 -0.0531  0.2250
43303W        W46523   8.258  12.130   4.191 -0.2196  0.1788 -0.1553
43304W        W46524   0.017   0.913  15.556 -0.1883  0.0126 -0.0413
43305W        W46525   2.692  14.583   2.267 -0.0013 -0.1639 -0.1118
43306W        W46526  15.385   8.722   3.142 -0.2767 -0.3270 -0.0439
43307W        W46527  16.156   8.489   0.657  0.1197 -0.0965 -0.1144
43308W        W46528   0.922  11.783   1.244 -0.1696  0.2115 -0.0539
43309W        W46529  17.333  13.283  10.022  0.2822 -0.2067 -0.2709
43310W        W46530   1.337  15.180  15.506 -0.0414 -0.1041  0.0384
43311W        W46531  18.237   6.531  17.831 -0.0042 -0.1100  0.0602
43312W        W46532  16.030  11.215   0.024 -0.2478 -0.0919  0.2294
43313W        W46533   2.571  11.241  18.214 -0.2302 -0.1434  0.0511
43314W        W46534  14.747  10.466   1.876  0.0074  0.0217 -0.3157
43315W        W46535  16.936  16.349  15.200  0.1002  0.2461  0.1639
43316W        W46536  15.618   5.089   3.850 -0.1465 -0.1672 -0.4268
43317W        W46537  16.717  16.492   0.385  0.1364 -0.2189  0.0118
43318W        W46538   0.211  10.845   2.860  0.1880  0.0282  0.0689
43319W        W46539   0.882  14.489  15.521 -0.0037  0.0341 -0.0047
43320W        W46540   5.403   1.338   6.516 -0.2422 -0.2125  0.3195
43321W        W46541  13.428  10.319   6.884 -0.2672  0.2344  0.3238
43322W        W46542   3.580   9.675  11.220 -0.1765  0.3506  0.4405
43323W        W46543  16.992   6.643   5.244 -0.2401  0.2392 -0.2425
43324W        W46544   5.864  12.255   4.983 -0.0202  0.0564 -0.2880
43325W        W46545  18.080  16.083  15.473 -0.5275  0.1752 -0.0800
43326W        W46546   1.247  11.395   9.116 -0.0998  0.1426  0.4493
43327W        W46547   6.247  14.101   1.219  0.0249  0.0592  0.1509
43328W        W46548  11.307   6.356  16.478  0.0141 -0.1095 -0.0614
43329W        W46549   0.302  10.296   0.307 -0.0892 -0.2701  0.1029
43330W        W46550  16.260  10.078   4.632 -0.2600 -0.1991  0.1140
43331W        W46551  17.602  12.255   2.430 -0.0179 -0.0563  0.0680
43332W        W46552  11.328   8.731   4.144 -0.0830  0.1795 -0.3267
43333W        W46553   1.075   6.095  13.145 -0.2085  0.3162  0.0513
43334W        W46554   2.737  15.816   0.048 -0.1669  0.3966  0.1247
43335W        W46555  11.306  13.242  14.186 -0.1029  0.1451  0.2036
43336W        W46556  18.111  10.041   0.048 -0.0474  0.1661  0.1855
43337W        W46557  13.216   6.292   6.300 -0.1520 -0.0519  0.1769
43338W        W46558  16.548   9.117   0.299  0.1902 -0.0255 -0.0438
43339W        W46559  12.779   6.695  12.999 -0.1997 -0.1141 -0.0479
43340W        W46560   1.381   4.677  15.656 -0.0120 -0.1224 -0.3856
43341W        W46561   1.208  12.493  17.312 -0.0199 -0.4115  0.0910
43342W        W46562   0.692  12.410   0.547  0.0348 -0.3056 -0.0219
43343W        W46563   2.160  12.126   1.776 -0.3716  0.2793  0.3869
43344W        W46564   2.699  10.978   9.398  0.3090 -0.2262 -0.1925
43345W        W46565   2.871  16.439  18.146  0.1463  0.0516  0.2331
43346W        W46566  17.436   5.264   1.697 -0.0055  0.1274  0.0151
43347W        W46567  17.093  15.148  11.249  0.0092 -0.0065  0.3656
43348W        W46568   2.520  12.402  18.072 -0.1995  0.0449  0.0529
43349W        W46569   2.558  12.141   8.516 -0.0647  0.2407 -0.0583
43350W        W46570  15.561  16.395   5.199 -0.0138  0.1245  0.2163
43351W        W46571  14.181  12.420   3.840 -0.2086 -0.2866 -0.1825
43352W        W46572   5.376   2.077   6.575 -0.1098 -0.1218  0.0115
43353W        W46573   7.637   7.112   7.001  0.0976 -0.0157  0.0472
43354W        W46574  14.778  15.169   3.652 -0.2406 -0.0360  0.1975
43355W        W46575  13.973   5.439   2.804  0.1262  0.2264 -0.1193
43356W        W46576  16.340   8.335   1.128  0.1145  0.0134  0.4309
43357W        W46577   1.957   6.559  13.779  0.0230  0.0953  0.0228
43358W        W46578   6.674   4.544   0.316  0.1040  0.0077 -0.0096
43359W        W46579   1.269   8.569   3.173  0.1776  0.0152  0.2114
43360W        W46580  16.593   7.202   0.434 -0.0930  0.0127  0.1031
43361W        W46581  14.010  12.402   8.125 -0.1536 -0.5258 -0.0612
43362W        W46582  12.447   9.360  15.174 -0.0931  0.2160 -0.0766
43363W        W46583  16.737  10.173  16.964 -0.2451 -0.4354  0.4944
43364W        W46584  18.078   6.811   8.866 -0.1047  0.0039 -0.1475
43365W        W46585  15.754  11.038   1.723 -0.0591 -0.1377  0.0200
43366W        W46586   1.579  12.809   2.019  0.0985 -0.1154  0.0752
43367W        W46587   9.188   3.425   0.535 -0.1131 -0.0359 -0.0318
43368W        W46588  11.438   5.500   9.013  0.1250 -0.3409  0.0155
43369W        W46589  11.711   7.351  16.928  0.1067 -0.0690  0.0688
43370W        W46590  17.580   8.506   1.880  0.2594  0.0041 -0.0635
43371W        W46591   8.937  12.706   4.213  0.1526  0.1543  0.0908
43372W        W46592   5.342   8.464   4.802  0.2458  0.2816 -0.0583
43373W        W46593  12.799   6.741  16.702 -0.0509  0.1704  0.1557
43374W        W46594   0.775  10.228   1.844 -0.1094 -0.1629  0.0069
43375W        W46595   4.428  12.429  12.992 -0.0815 -0.1239  0.0066
43376W        W46596  12.931   4.489   4.708  0.1472 -0.0037 -0.1483
43377W        W46597   2.736   5.552  16.408  0.1053  0.2290  0.0593
43378W        W46598  12.325   6.138   5.946  0.2010  0.1178 -0.3385
43379W        W46599   3.273   5.640  13.311 -0.1840  0.1908  0.2809
43380W        W46600   2.616  11.555   0.304 -0.0974 -0.1155  0.3700
43381W        W46601   1.646   7.798  17.166 -0.0831  0.1553  0.1507
43382W        W46602   0.424  12.540   1.565  0.0459  0.2986 -0.4384
43383W        W46603   3.987  11.030   9.158 -0.1218 -0.0929  0.0195
43384W        W46604  18.063   8.635  17.877  0.1426  0.1611  0.0667
43385W        W46605  12.161   8.573  17.682  0.1231 -0.2653 -0.2592
43386W        W46606   1.919   8.902   3.772  0.2750 -0.1316  0.2002
43387W        W46607  12.396  13.652   7.313  0.0734  0.1572 -0.0489
43388W        W46608  11.307  13.851   6.046 -0.1761 -0.0164 -0.0677
43389W        W46609  17.188   7.962   2.055  0.1790  0.0391 -0.2530
43390W        W46610   4.529   8.250   5.903  0.0187  0.2499  0.2987
43391W        W46611  14.697   3.923   6.724 -0.3354  0.2394  0.1997
43392W        W46612  14.954   6.571   6.722 -0.0973 -0.0765  0.0289
43393W        W46613   6.410  10.340  15.072 -0.1016  0.0711  0.3202
43394W        W46614   0.493   8.361  18.101 -0.1807  0.0677  0.3384
43395W        W46615  13.426  16.804  17.238 -0.0423 -0.0968  0.0667
43396W        W46616   3.813  11.974  13.593 -0.1511 -0.0370  0.2069
43397W        W46617   3.877  10.802   3.618 -0.1801  0.1844 -0.1228
43398W        W46618   1.444   6.860   0.691 -0.0902 -0.1886 -0.0293
43399W        W46619   0.322  11.832   3.268  0.0303  0.1129  0.1065
43400W        W46620  11.286  11.762   8.070  0.0882 -0.1116 -0.0564
43401W        W46621   5.519   9.486   3.988 -0.0347  0.0711 -0.0020
43402W        W46622  16.851   8.411   4.146  0.2860  0.0763  0.0576
43403W        W46623   1.392   8.070  15.692 -0.0840 -0.0916  0.0644
43404W        W46624   2.347   7.528   1.438 -0.0314  0.1134  0.1647
43405W        W46625   6.330   7.201   2.945  0.0314  0.1201  0.3384
43406W        W46626   4.572  13.172   3.222 -0.1772 -0.0703 -0.2647
43407W        W46627   4.945   7.284  13.241 -0.0531 -0.1119 -0.1370
43408W        W46628   5.825  13.197   3.797 -0.0488 -0.0669  0.0384
43409W        W46629  17.040  10.736   3.837  0.1868 -0.1468 -0.1602
43410W        W46630   6.643  14.070   1.624 -0.0781  0.0889 -0.1361
43411W        W46631   7.789   7.243   8.294 -0.0780 -0.2061  0.2546
43412W        W46632  10.698   8.227  17.604 -0.1738  0.1282 -0.2689
43413W        W46633  11.016  16.393  10.476 -0.1197  0.1536  0.1115
43414W        W46634  15.269   9.361   7.782 -0.3641 -0.3616 -0.2215
43415W        W46635   0.976   6.740   8.350  0.0172  0.1129 -0.1778
43416W        W46636   9.497   4.781  17.465 -0.3965 -0.1214  0.0954
43417W        W46637   8.508  12.739  15.085 -0.1200  0.1715  0.1739
43418W        W46638  17.127  12.074   6.107  0.1013  0.0041  0.1203
43419W        W46639  14.179  10.749   3.604  0.0923  0.3301 -0.1320
43420W        W46640   3.156   7.060  17.350  0.0581 -0.0574  0.2746
43421W        W46641   3.647  15.935  15.331  0.0366  0.1881  0.1447
43422W        W46642  18.139   6.770  12.832  0.0002 -0.2121  0.1395
43423W        W46643  13.897   6.901   0.761  0.0029  0.1535  0.0352
43424W        W46644   0.325  11.931   6.050  0.3169  0.0100  0.1043
43425W        W46645   1.179   2.323  12.074 -0.1357 -0.1719  0.1372
43426W        W46646  16.927  17.765  17.469  0.3084 -0.0494 -0.3873
43427W        W46647   0.058  14.090   2.486 -0.1604 -0.0433  0.0750
43428W        W46648  13.089   7.370  17.261  0.0717  0.1724  0.0740
43429W        W46649   0.486  12.586   3.748 -0.2451  0.1504 -0.1899
43430W        W46650  14.318   0.799   2.313 -0.0945  0.1999  0.0568
43431W        W46651  14.151  10.393   4.001  0.0120 -0.1847  0.1232
43432W        W46652  17.249   5.000   7.912 -0.0153 -0.0616  0.0391
43433W        W46653   0.604   3.212   0.457  0.0314  0.1137  0.2675
43434W        W46654  16.464   7.674   3.250 -0.0323 -0.2183  0.2158
43435W        W46655  14.824  11.100   4.687 -0.3269  0.0101 -0.0406
43436W        W46656   7.799  14.617   3.824 -0.1066 -0.0190 -0.3557
43437W        W46657  11.824   7.892   5.936 -0.1363 -0.3210 -0.1498
43438W        W46658  16.565  14.607   4.464 -0.0432  0.1322  0.3619
43439W        W46659  15.512   9.344  16.945 -0.1242  0.0530 -0.1303
43440W        W46660  10.157  16.289   4.317 -0.3908  0.2382 -0.0885
43441W        W46661  13.884  13.753   0.044  0.2362 -0.1678 -0.1369
43442W        W46662  14.415   8.720  16.407 -0.1786 -0.1198  0.0370
43443W        W46663  17.638  15.248  15.878  0.0091  0.0690  0.0382
43444W        W46664  17.125  10.217   6.973 -0.0385  0.0628 -0.0862
43445W        W46665   5.854   8.506   7.987  0.1928 -0.0322  0.1611
43446W        W46666   3.126  10.239  16.106 -0.0584 -0.2154 -0.0316
43447W        W46667   9.727  14.390   0.360  0.0963  0.3213  0.3650
43448W        W46668  16.103  11.094   2.139  0.1483 -0.0954 -0.1191
43449W        W46669  12.145   6.981   6.886  0.2422  0.0618 -0.0242
43450W        W46670  17.494  14.382   4.807 -0.0172 -0.0172 -0.1509
43451W        W46671  12.178   3.475   2.281 -0.0117  0.0305 -0.3143
43452W        W46672  17.382   3.765   4.119  0.0347  0.1716 -0.1923
43453W        W46673  13.465  11.448   4.591 -0.0506  0.2126 -0.0535
43454W        W46674  12.379  13.863   4.149 -0.2264  0.0046  0.0084
43455W        W46675   2.209   7.382   5.875  0.3119  0.1658  0.0783
43456W        W46676   0.148  10.375  14.370  0.0435 -0.0143  0.3125
43457W        W46677   2.478   1.800  17.977  0.3105 -0.3966  0.5290
43458W        W46678  16.262   7.001  13.863 -0.1053 -0.1419  0.0723
43459W        W46679  15.628   1.845   7.665  0.0181 -0.1598 -0.1595
43460W        W46680  10.214   8.100   8.056  0.2396 -0.1831 -0.0438
43461W        W46681   3.444  11.785   0.085  0.2336  0.0480 -0.0149
43462W        W46682   0.537   9.527   3.752  0.0186 -0.1462 -0.0243
43463W        W46683  10.250  11.214   2.108  0.1367 -0.0438  0.0897
43464W        W46684  15.670   5.998  17.332 -0.0156 -0.0396 -0.2274
43465W        W46685   7.046   3.585   0.908  0.2484 -0.2142 -0.1141
43466W        W46686  15.996   2.849   2.538  0.0649 -0.0442 -0.0679
43467W        W46687   1.137   5.460  16.312 -0.1889  0.0768 -0.1815
43468W        W46688   2.382   8.457  17.576 -0.0632  0.1117  0.0035
43469W        W46689  13.799  11.368   0.404 -0.0315  0.0974 -0.1682
43470W        W46690  14.632   9.544  11.847 -0.1400  0.1178 -0.0757
43471W        W46691  14.457   3.194  15.431 -0.0201  0.0535 -0.0834
43472W        W46692  16.873  11.242  17.142 -0.0208 -0.1276  0.1223
43473W        W46693  15.613   7.947  16.386  0.1371 -0.4207 -0.1792
43474W        W46694   1.701   6.243  10.009 -0.0107  0.1591 -0.0447
43475W        W46695  12.824   7.092   3.712 -0.2664 -0.0666  0.1819
43476W        W46696   4.092   5.010   8.163  0.5725  0.1096  0.2056
43477W        W46697  10.824  11.642   7.312 -0.0526 -0.1459 -0.0874
43478W        W46698   1.422   8.203   0.818  0.2034 -0.2462  0.0503
43479W        W46699  16.025   5.872   3.391 -0.0376 -0.3458 -0.1253
43480W        W46700   8.672  12.167  15.751 -0.3618  0.1774  0.1079
43481W        W46701  17.556   9.425   0.675 -0.0896 -0.1313 -0.0043
43482W        W46702   2.990   5.255  18.017  0.1927  0.1328  0.1535
43483W        W46703  16.013  12.183   4.714 -0.3582 -0.0614  0.1149
43484W        W46704  17.017  10.389  17.984  0.0779  0.1653  0.0679
43485W        W46705   0.421  10.691   5.669  0.2548  0.3179 -0.1711
43486W        W46706  16.311   9.074   9.915 -0.2564 -0.2260 -0.4226
43487W        W46707   9.271   8.084  14.646 -0.0382  0.3086  0.1504
43488W        W46708   9.241  11.269   0.283  0.2177  0.1973  0.1298
43489W        W46709   2.298  15.643  15.292 -0.0297 -0.1070  0.0860
43490W        W46710   2.008  11.331   3.187  0.2193 -0.0804 -0.2127
43491W        W46711   1.159   1.674   6.269 -0.1095 -0.0339 -0.4327
43492W        W46712   8.809  10.284   0.830 -0.0071 -0.2021 -0.0308
43493W        W46713   4.007  18.073   1.934  0.0190 -0.0776  0.0450
43494W        W46714   3.446  10.922  14.755 -0.2884  0.0905 -0.0221
43495W        W46715  16.382   1.471  15.907 -0.2139  0.0470 -0.3085
43496W        W46716   3.595   8.150   1.519 -0.2003 -0.1257 -0.0653
43497W        W46717  14.528   7.559   0.753 -0.0256 -0.3902 -0.1199
43498W        W46718  17.653   5.639  15.097 -0.1493  0.1149 -0.1720
43499W        W46719  18.244  16.989   1.923  0.0039 -0.1660 -0.0388
43500W        W46720  13.726   7.428   7.003  0.1767  0.0091 -0.1866
43501W        W46721   7.405  11.946   5.057  0.1249  0.0874  0.0008
43502W        W46722  16.623   7.334   1.119  0.0850  0.2704 -0.0234
43503W        W46723  16.359   2.411   1.329 -0.2275 -0.0194  0.0131
43504W        W46724   1.660  12.448   0.317  0.2043 -0.0977 -0.2223
43505W        W46725  16.323  14.113  17.215 -0.0672 -0.0299  0.1442
43506W        W46726  15.297  14.849   1.636  0.0495  0.2137 -0.1558
43507W        W46727   0.587  10.752  15.577  0.2190  0.1553 -0.1228
43508W        W46728  17.525  14.494   5.372 -0.0633 -0.1387 -0.0942
43509W        W46729   1.528   5.911   4.809 -0.0120 -0.0607  0.2997
43510W        W46730  13.520   9.287   2.996 -0.2651  0.2771 -0.1269
43511W        W46731  16.527  15.785  17.342  0.0456 -0.1463  0.2027
43512W        W46732  16.951  12.875  16.270  0.3073  0.3101 -0.1551
43513W        W46733  17.581  16.905   2.672  0.0213 -0.1002  0.0910
43514W        W46734   0.565   9.135  15.150  0.1580  0.4088 -0.0901
43515W        W46735   1.876  12.238  14.092 -0.0249  0.0276 -0.0905
43516W        W46736  13.637  11.179   2.557  0.3332  0.1726 -0.0404
43517W        W46737   2.285  12.454   6.402 -0.2509 -0.0573  0.1598
43518W        W46738  17.426   8.369   2.331 -0.0634  0.0473  0.2191
43519W        W46739  17.986  13.624   0.357 -0.3797 -0.0426 -0.0926
43520W        W46740   3.948   9.951   7.749 -0.0218 -0.2019  0.0807
43521W        W46741   4.045   6.407  11.533  0.0244 -0.2449  0.1489
43522W        W46742  16.600   5.641   2.542  0.4705  0.0892  0.1077
43523W        W46743   3.809   9.417   4.677  0.0203  0.0901  0.0901
43524W        W46744   5.404  13.189  17.410  0.1261  0.0949  0.0458
43525W        W46745   8.240  13.773   1.945 -0.0636 -0.0074  0.1661
43526W        W46746   4.528   8.543   1.249  0.1657  0.1349 -0.0065
43527W        W46747  17.399  12.466   4.706 -0.2236  0.1464  0.0363
43528W        W46748  11.581   5.328   5.428 -0.1627  0.0648 -0.0957
43529W        W46749   0.960  11.829  15.630 -0.0312  0.0135  0.0874
43530W        W46750   3.392   4.532  17.465 -0.1085 -0.2755  0.0565
43531W        W46751  12.988   9.639  18.127  0.0138 -0.0374 -0.2398
43532W        W46752  13.926   4.393   5.687 -0.2119  0.1938  0.1368
43533W        W46753   0.484   7.075   4.081  0.0129 -0.0026 -0.2847
43534W        W46754  14.958   5.841   3.187 -0.1044 -0.1908 -0.1792
43535W        W46755  15.336   8.410  16.137  0.1537  0.1775 -0.2822
43536W        W46756   3.363   8.195   4.206  0.1459  0.0965 -0.1616
43537W        W46757  14.824  11.246   0.274 -0.0175  0.0604  0.1715
43538W        W46758  14.623   8.353  11.577 -0.0009  0.0922 -0.1213
43539W        W46759  14.868  13.721   2.159 -0.1849 -0.3426 -0.0865
43540W        W46760  10.669   9.196  16.586 -0.1815 -0.1765 -0.1586
43541W        W46761  15.551  13.490   2.894  0.1828  0.1155  0.3232
43542W        W46762   8.380   8.700   2.275  0.0693 -0.0260  0.2956
43543W        W46763  13.715  11.971   3.068  0.0587  0.1856  0.1766
43544W        W46764   1.579   5.135   4.911 -0.2594 -0.1018 -0.1975
43545W        W46765  11.476  13.566   1.882  0.4445  0.2342 -0.0738
43546W        W46766  10.103   5.050   6.743  0.2032 -0.0783 -0.0113
43547W        W46767   4.703  10.953  14.338 -0.1938 -0.1323 -0.0862
43548W        W46768  15.687   7.457  18.230 -0.1477  0.1879 -0.0623
43549W        W46769  16.389   2.091  15.704  0.0074  0.0485 -0.0081
43550W        W46770  16.995  11.003   7.971  0.1649  0.0047  0.1458
43551W        W46771   3.838  12.852   3.932 -0.0600  0.0271 -0.1486
43552W        W46772  18.145   6.957   2.524 -0.0323  0.0362  0.0360
43553W        W46773   1.288  10.856   9.062 -0.1879 -0.1113  0.0204
43554W        W46774  14.983   7.703   5.235  0.2610 -0.0412 -0.0087
43555W        W46775   1.834  11.481   2.162 -0.1453  0.2284 -0.2434
43556W        W46776  18.195  11.248   0.699 -0.1299  0.0469 -0.2408
43557W        W46777   4.107  10.239  18.094  0.2630 -0.1030  0.0379
43558W        W46778  18.125   9.603   4.329  0.1711 -0.3974 -0.0388
43559W        W46779  11.289  12.109   0.851 -0.0064  0.1084  0.2160
43560W        W46780  16.153   6.139   1.661  0.0423 -0.0189  0.1434
43561W        W46781   9.995   4.609   6.483 -0.1384 -0.0581  0.1369
43562W        W46782  14.629   6.268  12.616  0.1146 -0.0821 -0.3304
43563W        W46783  16.988  15.071   2.520 -0.2200  0.3709 -0.2499
43564W        W46784  16.483  14.080  17.878 -0.1237 -0.1621 -0.0545
43565W        W46785   5.131   4.266   0.344  0.1398 -0.2717  0.2943
43566W        W46786   0.320   9.886   1.700 -0.0257 -0.1016 -0.1773
43567W        W46787   2.952  16.664  16.123 -0.4851 -0.0882 -0.0357
43568W        W46788  17.401   6.443  15.138  0.1519 -0.1320 -0.5074
43569W        W46789  15.223  16.715  16.674 -0.2082 -0.0312  0.0966
43570W        W46790  16.375   7.033   2.090 -0.2035 -0.0178 -0.0247
43571W        W46791   5.791   8.940  18.077 -0.3221 -0.1245 -0.2026
43572W        W46792  18.086  15.846  18.158  0.1064  0.2752  0.1586
43573W        W46793   4.782  11.668   1.610  0.1612 -0.0384 -0.1558
43574W        W46794   7.135  13.193   5.694 -0.0183 -0.0195 -0.0320
43575W        W46795  11.627   4.406  13.535  0.1816 -0.1066 -0.1149
43576W        W46796   3.011   3.086   7.254 -0.2231 -0.1277 -0.0008
43577W        W46797  10.574  13.610   8.618 -0.0030 -0.1270 -0.0322
43578W        W46798   4.117   6.424   1.686 -0.3192  0.2800  0.0567
43579W        W46799   1.818   4.091   0.141  0.2245 -0.0385 -0.2031
43580W        W46800   0.872   7.396  18.139 -0.0691  0.2397  0.1616
43581W        W46801   3.899   9.392   9.849 -0.0455  0.0390  0.1337
43582W        W46802   2.392  12.694   1.504  0.2557  0.0475  0.0478
43583W        W46803  14.481   7.241   6.612  0.0260  0.0484  0.1445
43584W        W46804  15.742   8.904  13.563  0.0421  0.0271 -0.1072
43585W        W46805  15.549  13.555   0.916  0.2402 -0.1110  0.1872
43586W        W46806   2.779   6.681   6.885  0.1495  0.0013 -0.0286
43587W        W46807  18.057  14.252   2.944  0.0606  0.2540  0.0315
43588W        W46808   1.557   0.446  14.993  0.1182  0.0807 -0.0224
43589W        W46809  18.143   5.141  10.127  0.3129  0.1356  0.2161
43590W        W46810   1.562  10.733  15.596  0.3066 -0.1998  0.1261
43591W        W46811  17.479  10.513   6.672 -0.0398  0.0368  0.0899
43592W        W46812   0.442   3.859  14.000 -0.1765  0.1755 -0.0294
43593W        W46813   5.749  10.901  10.674 -0.1569 -0.0941  0.1417
43594W        W46814  11.604  14.072   1.888  0.2072 -0.0417  0.0449
43595W        W46815   2.544   8.624   0.902 -0.3398  0.0858  0.1089
43596W        W46816   3.449   8.880   0.373 -0.0088 -0.0756  0.1346
43597W        W46817  12.314   6.045  10.238  0.0089  0.5304 -0.0634
43598W        W46818   0.634   0.418  16.088  0.1292 -0.2725  0.3699
43599W        W46819   8.583  12.188   3.671  0.2448 -0.0171 -0.0076
43600W        W46820  17.546   0.628   0.550 -0.4688  0.1149 -0.0017
43601W        W46821   9.369  15.802   2.790 -0.1915  0.0763  0.0575
43602W        W46822   2.931   0.619   7.570 -0.2673  0.3643 -0.0935
43603W        W46823  17.658   9.535   8.400  0.2128 -0.1313  0.0602
43604W        W46824   7.425   8.490  17.989  0.1704  0.2068 -0.0414
43605W        W46825  11.274   1.053   0.797  0.1112  0.1967 -0.2988
43606W        W46826  17.758   0.604   3.694  0.1496  0.0538  0.0396
43607W        W46827  15.991  15.364   2.890  0.0737  0.2358  0.0438
43608W        W46828  12.974   2.957   5.965 -0.0115  0.1871 -0.0909
43609W        W46829   0.722  15.940  17.994 -0.0167  0.1478 -0.0484
43610W        W46830  12.301   9.206   7.387 -0.2784  0.2518 -0.0695
43611W        W46831   9.347   8.156   2.223  0.1568  0.0845  0.0840
43612W        W46832  14.446   9.785  15.488  0.1276 -0.1566 -0.3221
43613W        W46833   9.348   9.354   5.485 -0.0558 -0.1152  0.0928
43614W        W46834  11.694  14.146  15.462 -0.1771 -0.1024 -0.0427
43615W        W46835  14.932   5.925  17.210 -0.1264 -0.1694 -0.2311
43616W        W46836  16.963   4.591   5.870 -0.1934  0.1528  0.1495
43617W        W46837  17.836  12.887   2.850 -0.1830  0.1231 -0.2164
43618W        W46838   0.738   9.842   2.240 -0.1212  0.0362  0.0827
43619W        W46839  14.328  10.000   4.355 -0.0028  0.2049  0.0364
43620W        W46840  10.825   0.581   2.585 -0.0831  0.2321 -0.1990
43621W        W46841  14.792   5.879  17.663  0.0846 -0.0025  0.1798
43622W        W46842  12.364  12.913   0.288 -0.0973  0.3683  0.0180
43623W        W46843  17.157   8.919   2.629 -0.1135  0.0221  0.1035
43624W        W46844   1.816  12.751   4.465  0.0814  0.3816 -0.0252
43625W        W46845  17.612   8.369   4.646 -0.3918 -0.0048  0.2261
43626W        W46846  17.623   9.930   6.653 -0.0466 -0.2783 -0.2274
43627W        W46847  17.263  11.413  12.046 -0.1075  0.1577  0.2130
43628W        W46848  15.200   4.787   3.912  0.1667 -0.1227  0.0783
43629W        W46849  15.731  10.689   3.291 -0.1473  0.1224 -0.2308
43630W        W46850  10.591   8.892  13.191 -0.3179  0.0586 -0.5803
43631W        W46851   3.664  13.802   1.011  0.0861 -0.0489  0.1851
43632W        W46852   0.950   7.936   5.532 -0.2027 -0.1477  0.4545
43633W        W46853  16.365   8.731   4.981  0.1603 -0.1378  0.2237
43634W        W46854   0.762   9.734  16.749 -0.1737 -0.0333 -0.0701
43635W        W46855  17.143   9.732   3.169  0.0578  0.2083 -0.2046
43636W        W46856  15.225   6.930   1.924  0.1544 -0.0562  0.2378
43637W        W46857   1.716  11.048   1.034  0.3171  0.0772 -0.1897
43638W        W46858   1.438  10.837  17.099 -0.1557  0.0298  0.1227
43639W        W46859   9.546   5.074   7.792  0.0202  0.1314 -0.0033
43640W        W46860  11.754  12.519   1.007  0.0333 -0.1959 -0.4336
43641W        W46861  11.662  14.655   8.930  0.1219  0.1338 -0.1147
43642W        W46862   3.960   9.697   3.039 -0.1018  0.0561  0.0323
43643W        W46863   2.247   5.801   4.719  0.2368  0.0244 -0.1066
43644W        W46864   0.710   6.191   7.667 -0.1425 -0.0830 -0.1667
43645W        W46865  15.125   9.691   4.496  0.1955 -0.0389 -0.1218
43646W        W46866  14.960   6.385  17.464  0.0299  0.0056  0.2384
43647W        W46867  15.964  14.762   1.603  0.2962  0.0936  0.1377
43648W        W46868   1.556   8.107   6.175 -0.2463 -0.1163  0.0995
43649W        W46869   9.263   9.202   7.995 -0.1376 -0.4738 -0.2923
43650W        W46870  17.913   6.995   0.957  0.3081  0.2808 -0.1032
43651W        W46871   8.708  10.879   2.864 -0.1018 -0.1568  0.2375
43652W        W46872   1.215   7.342   2.200  0.0090 -0.2132 -0.1665
43653W        W46873  10.910   6.914   5.029 -0.2149  0.0268 -0.1100
43654W        W46874  16.682   7.411   1.625  0.1277  0.0411 -0.1704
43655W        W46875  16.993   8.364   7.784  0.0828  0.0431  0.2321
43656W        W46876   2.799   6.506   4.991  0.3618  0.0455  0.0922
43657W        W46877   8.695   8.250   4.376  0.0430 -0.2370 -0.0579
43658W        W46878  16.799  17.341   3.178  0.0757 -0.1414 -0.1443
43659W        W46879  12.142  15.470   4.352  0.2070 -0.2039  0.2971
43660W        W46880   2.485  12.267   5.415  0.1124  0.2679  0.1120
43661W        W46881  18.119  13.997  14.846 -0.0905  0.2607  0.0869
43662W        W46882   6.622  10.055   3.307  0.3691 -0.1060 -0.0127
43663W        W46883  14.923   8.028   6.925 -0.3101 -0.1838 -0.1026
43664W        W46884   1.885  15.084   1.760 -0.2298 -0.0859  0.0599
43665W        W46885  17.953   1.616   1.966 -0.0708  0.1421 -0.0076
43666W        W46886  14.058  13.345  15.520  0.3597 -0.0428 -0.3695
43667W        W46887  14.266  11.350   7.839 -0.1676  0.0460  0.1833
43668W        W46888  16.470   1.278  16.558 -0.1696 -0.2183  0.0561
43669W        W46889  17.436   6.969   4.195 -0.0513 -0.1615  0.1285
43670W        W46890  12.587   5.061   4.496  0.1836  0.2655  0.2928
43671W        W46891  16.977   3.098   7.821  0.0235  0.1439  0.1889
43672W        W46892  16.004   2.463   3.499  0.0395 -0.2365 -0.0452
43673W        W46893   2.376  17.655  11.140  0.1925 -0.1297  0.1153
43674W        W46894   0.118   9.698  14.930 -0.2186  0.1847  0.0972
43675W        W46895  15.593  10.246  10.795 -0.1052 -0.0356  0.2100
43676W        W46896   7.515   9.025   0.903 -0.4407 -0.1033  0.0428
43677W        W46897   6.599   9.292   9.464 -0.4058 -0.4081 -0.3218
43678W        W46898   0.379  11.526  11.718 -0.2254  0.0004 -0.0965
43679W        W46899  13.192   6.968   7.315  0.0279  0.0909 -0.1205
43680W        W46900   1.320  11.877  13.578 -0.3155 -0.1544  0.2790
43681W        W46901  16.016   8.036   4.474  0.0948 -0.1368 -0.1304
43682W        W46902   1.993  14.381  14.852 -0.2207  0.0269  0.1566
43683W        W46903  15.547  13.853  13.060  0.0981 -0.0421 -0.0694
43684W        W46904  15.175  15.084   6.898 -0.2148 -0.0921  0.2649
43685W        W46905  15.959  10.713  13.877 -0.0155 -0.0776  0.0647
43686W        W46906  14.488  13.024   7.389 -0.0302  0.4867 -0.3405
43687W        W46907  13.407   8.284   1.804 -0.2028 -0.1976 -0.0703
43688W        W46908  14.572   7.747   8.134 -0.0529 -0.2132  0.0404
43689W        W46909   1.294  10.419   6.911  0.1356  0.1088  0.0846
43690W        W46910  17.141   4.138   9.622 -0.1569  0.2590 -0.0384
43691W        W46911  11.555  12.246   4.828 -0.0943 -0.0062  0.2848
43692W        W46912  13.295   8.821   4.519 -0.3113 -0.3218  0.0230
43693W        W46913  17.463   7.771   9.441  0.4551 -0.0432 -0.2082
43694W        W46914  13.459   9.460  11.181 -0.0423 -0.0354 -0.0449
43695W        W46915   2.255  16.093  10.743  0.0280  0.3691  0.0026
43696W        W46916   0.869  14.413   4.513  0.1019  0.0692  0.0277
43697W        W46917   7.781   5.027  12.009 -0.0586 -0.1325 -0.1514
43698W        W46918   5.321   8.116   4.373 -0.0526  0.0749 -0.1667
43699W        W46919  15.788   6.052  12.344  0.1625  0.1510 -0.1062
43700W        W46920  11.631   9.935   7.865 -0.1190  0.0108 -0.1442
43701W        W46921  15.875   6.049   5.400 -0.0435 -0.0214 -0.0611
43702W        W46922   1.309  13.100  10.823 -0.0541  0.1119  0.1284
43703W        W46923   1.623  15.500   3.698 -0.1195  0.3597 -0.1798
43704W        W46924   3.712   7.482   7.671 -0.1357  0.0489  0.1030
43705W        W46925  17.198   9.380   2.867  0.2841  0.0977 -0.2346
43706W        W46926  17.647   9.254   6.095  0.0020 -0.2863 -0.2033
43707W        W46927  13.973   6.178   2.135 -0.0475 -0.1048  0.3026
43708W        W46928  16.271   1.606   0.189  0.0063 -0.0553  0.3313
43709W        W46929   0.903   7.150   7.975 -0.2017  0.0841  0.2024
43710W        W46930  15.374  13.575   2.306  0.1969  0.1121  0.1731
43711W        W46931   7.004   6.816  10.211 -0.2761 -0.1950 -0.3451
43712W        W46932  16.824  11.725  18.023 -0.2634 -0.2518  0.2275
43713W        W46933  17.770   5.304   2.557  0.1269  0.2183 -0.2362
43714W        W46934  17.437  11.567   5.538  0.2137 -0.0723 -0.0457
43715W        W46935   1.294  10.285  15.745  0.2155 -0.1020  0.0299
43716W        W46936  14.964   7.898   2.427 -0.1798 -0.0695 -0.0978
43717W        W46937  14.400  13.989   9.035  0.3049 -0.1244  0.2825
43718W        W46938   7.471   8.334   8.149 -0.2308  0.3045  0.3332
43719W        W46939  13.056   6.317  14.962  0.2957  0.0574  0.0780
43720W        W46940  15.104  18.010   0.170 -0.1185  0.0212  0.1447
43721W        W46941  12.917   3.496  17.172  0.0673  0.1427  0.2629
43722W        W46942   3.120   4.029  15.004  0.0308  0.2645  0.1111
43723W        W46943   3.359  13.297   4.003 -0.1568 -0.0231  0.2479
43724W        W46944  12.737  10.485   4.403  0.0141 -0.2247  0.0166
43725W        W46945  18.210   8.186   8.778  0.1007 -0.2366  0.0525
43726W        W46946   6.548   4.898   5.858 -0.0881 -0.0738  0.0612
43727W        W46947  14.247   7.314   2.925  0.0434  0.0261 -0.1343
43728W        W46948  11.330   5.682   4.702  0.1096 -0.1741 -0.1928
43729W        W46949  13.272  13.514   2.364 -0.1740 -0.0816 -0.1006
43730W        W46950   3.039   8.656   3.369 -0.0616 -0.1476  0.0054
43731W        W46951  13.306  12.176   2.888  0.1754  0.0349 -0.1891
43732W        W46952  15.774   4.450   9.395  0.1306 -0.1627 -0.0618
43733W        W46953   4.326   2.123  12.810 -0.0431 -0.1517 -0.2267
43734W        W46954   0.916  10.157   7.720  0.1457  0.0717 -0.2170
43735W        W46955  17.031   8.458   9.651  0.0265  0.1312  0.0434
43736W        W46956   3.442   5.460   3.965 -0.1115  0.1575 -0.1147
43737W        W46957  15.584  11.153  12.656 -0.1380 -0.2326  0.2502
43738W        W46958   0.305   5.600   7.074  0.1186  0.0971 -0.0873
43739W        W46959   6.700  11.414   2.628 -0.0025 -0.0017  0.0637
43740W        W46960  17.694   8.802   5.824  0.3646  0.0887  0.2406
43741W        W46961   0.879   8.353  10.369 -0.0323 -0.1018 -0.0709
43742W        W46962  17.223   3.927   1.389  0.0114 -0.0479  0.1270
43743W        W46963   4.830   9.284   8.122 -0.0412  0.2566  0.0227
43744W        W46964   6.917  14.356   2.049 -0.0484  0.3063  0.0673
43745W        W46965  15.083   1.473   5.258 -0.0289 -0.2325  0.0641
43746W        W46966   9.594   4.507   4.491 -0.0472 -0.1406 -0.0580
43747W        W46967   2.062   6.174   9.337  0.0848 -0.1141 -0.0269
43748W        W46968  12.786  10.297   8.087  0.0102  0.1993 -0.2847
43749W        W46969  12.568   7.102   6.552 -0.1739  0.0232  0.1736
43750W        W46970  13.249   6.509   4.859 -0.2100  0.1643 -0.1268
43751W        W46971  17.813  10.495   3.273 -0.1985 -0.1037  0.1418
43752W        W46972  10.383  14.342   6.999  0.1399  0.1884  0.3340
43753W        W46973  14.829  15.060  10.659 -0.3996 -0.1221  0.4522
43754W        W46974  18.049  13.311   9.688 -0.1902 -0.3832  0.0578
43755W        W46975  17.858  14.721   4.545  0.2682 -0.0558 -0.2364
43756W        W46976   4.259   3.445   7.947  0.0548  0.2322  0.0030
43757W        W46977   3.864   7.537  16.242 -0.0323 -0.0689  0.0496
43758W        W46978  15.805   1.121  11.680  0.0386 -0.0050  0.0088
43759W        W46979  18.009   6.732   5.274  0.1561  0.1359 -0.3435
43760W        W46980   2.460  16.192   1.405  0.1422  0.3179  0.0173
43761W        W46981  17.015   4.851   2.979  0.1012  0.0977 -0.0233
43762W        W46982  16.693  12.781  11.048  0.0544  0.2295  0.2201
43763W        W46983  16.281  15.079   5.168 -0.2086  0.1868 -0.0364
43764W        W46984  17.070   2.911   6.491  0.1584  0.0024  0.2076
43765W        W46985   1.343  10.967  12.099 -0.2104 -0.1106  0.1241
43766W        W46986   9.663   4.029   7.894  0.1535 -0.0753  0.0543
43767W        W46987  12.829   5.456   7.387 -0.1396 -0.3060  0.4280
43768W        W46988   6.718  13.785  14.732  0.1842  0.0583  0.0936
43769W        W46989   6.642   7.723   6.849  0.0349 -0.1357 -0.1518
43770W        W46990   3.431  10.212   6.493  0.1887  0.0247  0.1543
43771W        W46991   7.500   5.267   8.799  0.0054  0.0816 -0.3634
43772W        W46992   0.097   4.896   4.008 -0.0287  0.1632 -0.3106
43773W        W46993  14.747   6.814  17.335 -0.1708  0.0445 -0.0896
43774W        W46994   1.553  15.079   3.147  0.0658 -0.4926 -0.0843
43775W        W46995  16.738   3.423   6.363  0.1817 -0.1870 -0.3531
43776W        W46996  16.707  12.994   3.334 -0.2496 -0.2591 -0.3380
43777W        W46997  17.363   8.282   5.754 -0.0793 -0.3904 -0.1852
43778W        W46998  14.265  17.561   5.580 -0.0386 -0.2017  0.1201
43779W        W46999  11.892  10.014   4.716  0.0958 -0.0272  0.4544
43780W        W47000  17.952   9.737   4.909  0.0896  0.2342 -0.1409
43781W        W47001   1.455   8.154   5.380 -0.2531  0.0859 -0.1756
43782W        W47002   2.469   1.766   6.293 -0.1275 -0.1465 -0.1676
43783W        W47003   9.750   9.182  16.949  0.2220 -0.3727  0.0084
43784W        W47004  15.361   3.526   3.139  0.1096  0.2433 -0.1653
43785W        W47005  14.938  14.581   0.764  0.0062 -0.1696  0.2818
43786W        W47006  15.518   9.819   7.809 -0.1830  0.1342 -0.0203
43787W        W47007   0.513   6.621  12.099  0.0414 -0.0898  0.2284
43788W        W47008  12.471  10.649   8.418  0.0731 -0.3716  0.1824
43789W        W47009   0.870  13.358   8.108 -0.0109 -0.0823  0.0704
43790W        W47010   4.443  10.967   4.935  0.1945  0.0253 -0.1591
43791W        W47011   1.443  15.624  15.233 -0.1107  0.0322 -0.1136
43792W        W47012  12.311  11.475   3.480 -0.3201 -0.1467  0.1747
43793W        W47013  12.337   7.812   3.895  0.2822  0.0771  0.0789
43794W        W47014  15.132   1.830  10.749 -0.3468 -0.3560  0.2008
43795W        W47015   3.865   7.768   9.325 -0.1050  0.1363 -0.0105
43796W        W47016   0.980   6.645   7.866 -0.2663 -0.3451  0.0834
43797W        W47017   4.721  12.159   8.064 -0.0791  0.1723  0.3118
43798W        W47018   5.881   7.402   5.212  0.0670  0.2803 -0.1897
43799W        W47019  12.997   4.513   9.024 -0.4527 -0.0548 -0.1647
43800W        W47020  17.289   0.251  17.813  0.0597  0.0917 -0.0783
43801W        W47021   0.887  14.881   4.231  0.2645  0.3365  0.1217
43802W        W47022   8.348   5.791   0.660 -0.0645 -0.0006  0.1604
43803W        W47023   4.247   4.787  15.369  0.0073  0.2426 -0.0327
43804W        W47024  17.259  11.139   5.224 -0.3017 -0.0778 -0.1457
43805W        W47025   6.995   9.886   7.752 -0.1727 -0.1645  0.0178
43806W        W47026  15.906  15.232   5.502 -0.0818 -0.0497 -0.0141
43807W        W47027   0.238  17.380   5.116  0.2049  0.2006 -0.2392
43808W        W47028   5.257  11.451  10.007 -0.1449 -0.1046 -0.1640
43809W        W47029  13.398   9.828   6.861  0.1313  0.3908 -0.2567
43810W        W47030   0.736  10.201   5.550  0.0925  0.1109  0.1546
43811W        W47031   3.013  10.911   1.976  0.0161  0.0200  0.1327
43812W        W47032  15.293   7.958   3.861  0.2751 -0.0835  0.0479
43813W        W47033   1.923  11.491   7.140 -0.0024 -0.0189 -0.1479
43814W        W47034  13.458   5.711  11.926  0.1765 -0.0770  0.0769
43815W        W47035  12.943  13.162   1.533  0.0024 -0.0087  0.3322
43816W        W47036  14.113   0.143   4.914  0.1567  0.0408 -0.0667
43817W        W47037   1.569   7.301   1.332  0.1667 -0.2166 -0.0118
43818W        W47038  17.676   5.346  11.795  0.0746 -0.1945  0.0669
43819W        W47039   2.526  12.534   3.526 -0.1707  0.0365  0.1843
43820W        W47040  12.225  13.340   7.690 -0.0308  0.1753  0.1132
43821W        W47041   0.670  12.295   8.579  0.2753  0.1777 -0.0294
43822W        W47042   3.377   9.746   4.672  0.1248  0.0480 -0.1625
43823W        W47043  10.830   2.648   5.441 -0.0666 -0.1815  0.0412
43824W        W47044  13.726   2.661   5.340 -0.1982 -0.3188  0.3823
43825W        W47045  16.626   9.667  12.645 -0.2710  0.0060  0.1001
43826W        W47046  14.957   6.633   5.360 -0.4187 -0.0092  0.1804
43827W        W47047  14.643   9.418   3.809 -0.1664 -0.1006 -0.0840
43828W        W47048  13.723  11.133   6.865 -0.1375  0.0703 -0.0361
43829W        W47049   1.994   8.008   2.085  0.4480  0.0283 -0.0371
43830W        W47050  13.819  13.495   5.284 -0.2474  0.1398 -0.3378
43831W        W47051  14.704  14.121   1.242 -0.1053  0.1167 -0.0400
43832W        W47052   3.674  12.641   6.590 -0.1407 -0.1618  0.1262
43833W        W47053  11.229  14.767  15.004 -0.0654  0.0267 -0.1012
43834W        W47054   4.829   0.736  14.917 -0.0677  0.0703 -0.0851
43835W        W47055   6.515  12.776   7.854  0.0470 -0.0206  0.0870
43836W        W47056   6.237  10.658   4.814  0.0202  0.1738  0.1949
43837W        W47057   2.565   8.698   2.555  0.0690  0.1877 -0.0669
43838W        W47058   3.357   3.150   1.993 -0.1920  0.0829 -0.0611
43839W        W47059   0.217   8.489   3.406 -0.0125  0.2950 -0.0066
43840W        W47060  14.479  15.536   3.447  0.0674  0.2730  0.3904
43841W        W47061   2.376   7.693   2.063 -0.0409 -0.2362  0.0448
43842W        W47062  16.955   8.946   2.110 -0.0485 -0.0365  0.2358
43843W        W47063   1.815  10.944   6.842  0.0030  0.0115  0.1513
43844W        W47064   9.906  11.622  12.947 -0.1464  0.0955  0.0430
43845W        W47065   4.268   7.535  17.423  0.2340 -0.0786 -0.4308
43846W        W47066   1.345   8.898   9.188 -0.0815 -0.1565  0.2671
43847W        W47067   8.456   4.700   3.769  0.1231  0.0940  0.2291
43848W        W47068   6.174  12.590   2.578  0.0462  0.0030  0.0736
43849W        W47069  15.363  11.883  11.342 -0.1201  0.4241 -0.0225
43850W        W47070  15.313  10.685   2.645 -0.3373 -0.2119  0.0763
43851W        W47071  16.295  18.116   8.768 -0.1760  0.0339 -0.2893
43852W        W47072  13.830  12.939   7.162  0.0720  0.2027  0.1784
43853W        W47073  11.034   4.015  11.056  0.2849 -0.3860 -0.0617
43854W        W47074   1.977   5.208   4.001 -0.0033 -0.1276  0.0177
43855W        W47075  16.622   6.779   9.368 -0.1145 -0.1562 -0.0155
43856W        W47076  14.741  12.244  11.487  0.1966 -0.1385 -0.0386
43857W        W47077  15.087  13.885   4.774 -0.0419  0.0482  0.1827
43858W        W47078  17.732   8.307   8.704 -0.1040 -0.1512  0.1418
43859W        W47079  11.586   5.410   9.993 -0.0994 -0.2800 -0.1608
43860W        W47080  14.605  11.564   6.691 -0.1942 -0.1011 -0.0703
43861W        W47081  11.091   5.282   7.865 -0.0325 -0.0279  0.2010
43862W        W47082   2.315   9.255   1.557  0.0791  0.0405  0.0305
43863W        W47083  11.750  14.272  12.235  0.2301  0.0899 -0.1063
43864W        W47084  16.073   2.990   8.384 -0.1178 -0.1585 -0.3047
43865W        W47085   7.380   0.782  15.432 -0.0809  0.4118  0.1375
43866W        W47086  14.682   4.588   6.012  0.0529  0.1115 -0.0594
43867W        W47087   8.386   5.459   8.497 -0.1250 -0.1418  0.0065
43868W        W47088  17.738   5.939   4.374 -0.1456 -0.1653  0.0295
43869W        W47089  18.053   4.924   8.893 -0.0985  0.0696  0.1234
43870W        W47090  13.850  11.897  10.449  0.0411 -0.1956 -0.3164
43871W        W47091  17.301  12.389   6.576  0.2837  0.1086  0.1450
43872W        W47092  17.442  14.052   9.348 -0.1003 -0.0012 -0.1249
43873W        W47093  18.130  16.434   3.327  0.2148  0.1327  0.0803
43874W        W47094   1.929  14.827   4.327 -0.2492 -0.2418 -0.2505
43875W        W47095  14.097   7.618   7.446 -0.2844 -0.1235 -0.3337
43876W        W47096   4.552   5.901   2.413 -0.1685  0.1307 -0.1392
43877W        W47097   3.558   9.707   7.484 -0.2257 -0.0715  0.3025
43878W        W47098   7.693  11.448  16.380 -0.0422  0.2466  0.2784
43879W        W47099   0.142   8.306  15.814  0.1027 -0.0069  0.1105
43880W        W47100  15.607  13.842   3.211  0.0594  0.0477 -0.2178
43881W        W47101  12.186   2.074   5.570 -0.0571  0.0177  0.1350
43882W        W47102  13.771  13.629   9.523 -0.0557 -0.0880  0.1819
43883W        W47103   1.721  11.479  14.916 -0.0281 -0.1710  0.0892
43884W        W47104   5.584  11.001   7.377  0.2027  0.3329  0.0871
43885W        W47105  12.805   6.694   8.042  0.0266  0.0004 -0.2717
43886W        W47106  17.911   2.224  14.322  0.0798 -0.0243  0.2828
43887W        W47107   5.613  12.784   7.382 -0.1074 -0.0662 -0.0709
43888W        W47108   0.252  12.775   8.601 -0.1267 -0.1347  0.1440
43889W        W47109   1.155  13.128   8.440 -0.2418  0.2021  0.2889
43890W        W47110   1.400   7.079   4.612  0.6974  0.1769  0.1317
43891W        W47111  16.618   5.414  14.820  0.1713  0.0836  0.1204
43892W        W47112   4.776  12.109   4.563 -0.1830 -0.0809  0.0901
43893W        W47113  17.994   8.616   8.967 -0.3160  0.3805 -0.0907
43894W        W47114   0.196  12.196   8.423 -0.1281 -0.2932  0.0222
43895W        W47115   0.781  16.009   1.663  0.0881  0.2838 -0.0816
43896W        W47116   9.149   8.541  18.196  0.1946 -0.2049  0.2724
43897W        W47117   2.302  10.463  16.942  0.0951  0.2965 -0.1001
43898W        W47118   1.561  12.216   3.122 -0.1158  0.0273  0.2301
43899W        W47119   3.981  13.030   8.396 -0.2424 -0.0379 -0.1424
43900W        W47120  14.193   4.150   1.577  0.0639  0.1884  0.2450
43901W        W47121  17.571   8.627   2.765  0.0218  0.4000 -0.0192
43902W        W47122  17.365  11.848   0.857 -0.0856 -0.0165 -0.0630
43903W        W47123  15.402   8.002   6.591  0.2034  0.0042 -0.1491
43904W        W47124  16.343   8.075   0.494 -0.0862  0.3765 -0.0202
43905W        W47125   1.061  11.747  12.603 -0.0984  0.1768  0.3007
43906W        W47126  12.978   4.336   7.393 -0.1939 -0.1313  0.0781
43907W        W47127   1.674   0.493   5.704  0.0455 -0.2010 -0.1035
43908W        W47128   9.948  10.578   3.768 -0.1767 -0.1505  0.2343
43909W        W47129   4.339  10.703   8.081 -0.0276  0.0299  0.2424
43910W        W47130  15.350  13.000   8.743  0.0357  0.3324 -0.1445
43911W        W47131   9.077   8.134   0.655 -0.0251 -0.1027 -0.0571
43912W        W47132   7.123   7.804   3.878 -0.0636 -0.2470  0.0960
43913W        W47133  15.160   7.480   5.689  0.1389 -0.1000 -0.0904
43914W        W47134   2.445   9.015   0.535 -0.0426 -0.3315 -0.1588
43915W        W47135   7.831   5.716   3.636 -0.1408  0.1185 -0.0166
43916W        W47136  16.189   9.853  10.199  0.2467 -0.4107  0.0666
43917W        W47137  15.775   7.242   2.926 -0.0471  0.2126  0.1994
43918W        W47138  13.508   8.893   6.291 -0.0598 -0.3582 -0.2777
43919W        W47139  13.194  12.365   4.687  0.1502  0.4552 -0.0496
43920W        W47140   0.021   6.719   4.177  0.0658  0.4668 -0.0116
43921W        W47141  17.827   8.700   1.380  0.2868  0.0045  0.1568
43922W        W47142  16.838  13.235   5.210  0.1335  0.2855 -0.2048
43923W        W47143  17.379   2.969  12.114 -0.0033 -0.1055 -0.0871
43924W        W47144   9.430  14.671   8.063  0.2241  0.2841  0.0401
43925W        W47145   2.772  15.052   3.287  0.1293  0.2155  0.0753
43926W        W47146  18.147   5.067   7.632  0.2286  0.0877  0.2651
43927W        W47147  10.837  11.797  10.903  0.2305  0.1824 -0.1438
43928W        W47148   3.147  10.112   3.814 -0.1062  0.2162 -0.1108
43929W        W47149  18.149   9.908   6.542 -0.0922 -0.0669  0.2346
43930W        W47150   3.139  11.273  18.200  0.0788  0.0354  0.3508
43931W        W47151  10.650   8.669   7.654  0.0895  0.0771 -0.0358
43932W        W47152  15.328  14.119   5.181  0.2918 -0.1591 -0.0301
43933W        W47153   2.646   8.347  16.625 -0.0963 -0.0369  0.0699
43934W        W47154  17.143  12.960   9.729 -0.0454  0.1768 -0.1694
43935W        W47155  16.964   7.490   5.398  0.0535 -0.0322  0.1223
43936W        W47156  14.590   8.731   3.625  0.0053  0.2498  0.0490
43937W        W47157   2.953  17.097  12.422 -0.1281 -0.0928 -0.0402
43938W        W47158   2.414  10.855   4.112  0.2579  0.2297 -0.2088
43939W        W47159  18.149   6.414   2.636  0.0922  0.0953  0.0306
43940W        W47160  17.620  12.644   7.352  0.2699  0.2218  0.0157
43941W        W47161  14.170   9.305   6.728  0.2207  0.1713 -0.1546
43942W        W47162  12.331  13.891   6.508  0.0737 -0.0291  0.2873
43943W        W47163   4.642  11.371   7.321 -0.0251  0.2295 -0.0309
43944W        W47164  15.336  14.583   5.401 -0.1216 -0.1593 -0.2918
43945W        W47165  18.078   4.687   3.052 -0.0372  0.1603 -0.0373
43946W        W47166  11.763   0.142  17.894  0.1263 -0.1646  0.2538
43947W        W47167  16.909   7.098   5.978  0.2953  0.1490  0.0266
43948W        W47168   2.625   7.501   2.748  0.2821 -0.2244  0.1253
43949W        W47169   0.078  14.739   0.178 -0.0882 -0.3290 -0.0984
43950W        W47170  16.300  10.813   1.404 -0.0825  0.1621  0.0767
43951W        W47171   7.442  14.362   2.155 -0.6041 -0.0915 -0.1453
43952W        W47172   1.397   8.984  16.740  0.1298  0.0428  0.0925
43953W        W47173  10.183   8.362   2.572 -0.2167 -0.1631  0.0257
43954W        W47174   1.408  11.386   2.933 -0.1377 -0.0740  0.2264
43955W        W47175  15.052  11.496   6.519 -0.3048 -0.4035 -0.2374
43956W        W47176  13.535  12.068  17.470 -0.1268  0.0647 -0.0256
43957W        W47177  14.374  13.450  15.056 -0.0737 -0.1531  0.0971
43958W        W47178   5.528  10.883   4.101  0.1036  0.0291 -0.0662
43959W        W47179   0.359  15.084   5.509  0.1733 -0.0759  0.1272
43960W        W47180  12.155   7.443   4.688 -0.2160  0.0708 -0.3568
43961W        W47181   4.438  11.827  11.937 -0.0866  0.0142  0.2052
43962W        W47182  16.075   7.461   8.258  0.2424  0.0444  0.1948
43963W        W47183  11.484   8.141   5.687  0.2666  0.0092 -0.2078
43964W        W47184   0.631   9.187   7.525 -0.0887 -0.3134 -0.0383
43965W        W47185   6.710  10.530   2.100  0.0178 -0.0260  0.0117
43966W        W47186  13.176  13.942   5.264  0.2696  0.1381 -0.1308
43967W        W47187   4.828  13.932   5.566 -0.3058  0.0365 -0.1131
43968W        W47188   1.228   3.089   3.396  0.1425  0.1280  0.0138
43969W        W47189  11.198   2.881   9.909  0.0130  0.3891  0.0676
43970W        W47190  14.182   6.785  11.159 -0.2447 -0.0207 -0.0010
43971W        W47191  16.087  10.521   3.769  0.1699 -0.1237  0.2027
43972W        W47192  15.828   8.836   0.455 -0.2160  0.0244  0.2614
43973W        W47193   0.455  16.093   4.674  0.1941  0.0561  0.0748
43974W        W47194   4.727   4.217  17.815  0.1576 -0.0556 -0.0231
43975W        W47195   4.687   7.381   5.445 -0.0684 -0.3293 -0.2220
43976W        W47196  14.916   8.974   8.836 -0.0178  0.2049  0.2015
43977W        W47197   4.798  10.056   5.218  0.3930  0.2413  0.0275
43978W        W47198   9.024  10.476   2.632 -0.0286 -0.0101 -0.0856
43979W        W47199   7.212   3.361   6.801  0.1471  0.2792 -0.1880
43980W        W47200  17.516  13.588  14.391  0.3515  0.0442  0.2010
43981W        W47201  10.434   6.552   5.617  0.3054 -0.0033  0.0911
43982W        W47202  11.682  10.241   0.493 -0.1714  0.4637 -0.0448
43983W        W47203   3.254   7.002   4.573 -0.1922  0.0124 -0.1756
43984W        W47204   9.660  13.766  16.627  0.1065  0.1032 -0.1111
43985W        W47205   0.261  10.800   3.989  0.2456  0.1273  0.0109
43986W        W47206   7.335  13.675   4.348 -0.2152 -0.1933  0.2857
43987W        W47207  16.455  14.685   0.899  0.2079 -0.0230 -0.2263
43988W        W47208  11.470   2.276   6.766 -0.2633  0.2196 -0.0851
43989W        W47209  15.992   5.367   8.390  0.0415  0.0373  0.2791
43990W        W47210  17.873   8.211   7.695 -0.0363  0.0258  0.1604
43991W        W47211  14.168   1.182   2.013 -0.0370  0.2409  0.1427
43992W        W47212   1.879  10.307   5.541  0.1144 -0.1972 -0.1486
43993W        W47213   0.015   9.157   9.641 -0.0568 -0.1340  0.0329
43994W        W47214   0.945  12.154   6.819 -0.1574  0.2581  0.2949
43995W        W47215  13.371  11.736   4.953 -0.2971  0.0318 -0.3145
43996W        W47216  14.727   5.402   2.281  0.1371 -0.1166 -0.1937
43997W        W47217  16.497  16.616   9.141 -0.0948  0.1106 -0.3351
43998W        W47218   2.019   1.611   1.535  0.1894 -0.2412 -0.1892
43999W        W47219  12.101   9.774   9.337 -0.1393 -0.1622 -0.2975
44000W        W47220  16.065  14.975   3.695  0.2438  0.0344 -0.3363
44001W        W47221  17.080  13.281   6.086  0.0619 -0.0665  0.0758
44002W        W47222   5.310  16.771   7.502 -0.2960 -0.0370 -0.3765
44003W        W47223  11.749  14.155   3.028  0.0911  0.0345  0.0032
44004W        W47224  10.505   6.737   4.745  0.1941 -0.1126 -0.0380
44005W        W47225  11.145  17.598   5.364 -0.2320  0.1339  0.1379
44006W        W47226  18.186  11.050   3.702 -0.1233  0.3067 -0.2095
44007W        W47227  13.672  11.638   9.997  0.3247 -0.1495 -0.4648
44008W        W47228  17.735   7.881  11.401  0.0697 -0.0363  0.0518
44009W        W47229   2.903   5.485   4.814 -0.0179 -0.0805 -0.0815
44010W        W47230  17.989   5.675  14.061  0.0004  0.1352 -0.0888
44011W        W47231  16.005   6.715   2.853  0.4388 -0.1447 -0.0388
44012W        W47232   2.244  11.960   9.973  0.2045  0.2137  0.3711
44013W        W47233  14.414  12.864   4.125 -0.2292  0.1889 -0.2124
44014W        W47234  11.181   9.783   5.151 -0.0512  0.1496  0.0793
44015W        W47235   9.619  10.606   4.119 -0.1532  0.0587 -0.2997
44016W        W47236   1.777   0.724   3.571 -0.0414  0.1596  0.0319
44017W        W47237  13.871   8.281  17.820 -0.2913 -0.1044  0.0121
44018W        W47238  16.879   5.516   8.464 -0.1271  0.1167  0.0022
44019W        W47239  16.450   4.267  11.517  0.1480 -0.0615  0.2611
44020W        W47240  14.375   7.726   6.728 -0.1191 -0.0146  0.1279
44021W        W47241  15.477  17.226   3.016  0.1017  0.0632 -0.1823
44022W        W47242  13.027   5.734   9.615  0.0559 -0.0063 -0.0563
44023W        W47243  14.326   7.019   2.026 -0.0695 -0.1439 -0.1335
44024W        W47244  13.599  14.673  17.999  0.3566 -0.0799  0.0001
44025W        W47245  17.875  10.906   2.443  0.1160  0.2065  0.1665
44026W        W47246  14.568   7.675  17.908  0.1807 -0.1924  0.2091
44027W        W47247   3.173  16.746  13.695  0.1016  0.1961  0.0656
44028W        W47248   0.536  14.659   3.239  0.1196  0.1015  0.1282
44029W        W47249   1.275  10.263   8.144 -0.1363 -0.0432  0.0953
44030W        W47250  18.262   3.230  11.564  0.0738  0.0132  0.3038
44031W        W47251  16.607  10.018   5.782  0.1710 -0.2341  0.1038
44032W        W47252  11.106  10.620   5.376 -0.1523 -0.0080  0.1725
44033W        W47253  18.031  11.134   2.823 -0.3796  0.0375 -0.1516
44034W        W47254  14.473   7.265   5.717  0.1662  0.1539 -0.2471
44035W        W47255   0.440  11.183   8.435 -0.2185  0.0445  0.0683
44036W        W47256  16.708  11.750   9.253 -0.2227 -0.2296  0.1778
44037W        W47257   3.372   9.724   6.540  0.3252 -0.1459 -0.1075
44038W        W47258  17.179   9.756   1.256 -0.1755  0.0224 -0.1625
44039W        W47259  18.013   8.457  12.301  0.2367 -0.1690 -0.2804
44040W        W47260   6.272   8.125  11.854  0.2394 -0.1136 -0.0555
44041W        W47261   0.101   3.289   9.545  0.0753  0.1003 -0.1484
44042W        W47262   0.048  10.724  10.197  0.1579  0.0387 -0.2939
44043W        W47263  18.059  10.604   4.533  0.0303  0.0978  0.1371
44044W        W47264   3.055   9.799   7.356 -0.1260  0.4105 -0.1715
44045W        W47265   1.854  13.091   5.756 -0.1001 -0.1674 -0.2306
44046W        W47266  16.770   9.149   9.679 -0.0237 -0.0105 -0.2356
44047W        W47267   4.310   6.962  12.349  0.3597 -0.0181  0.1109
44048W        W47268   1.385  14.336   0.441 -0.2500  0.1634  0.1000
44049W        W47269   2.421  17.423   6.613 -0.0265  0.0386  0.2474
44050W        W47270  17.793  16.454  12.651 -0.1320  0.1199 -0.0404
44051W        W47271   0.181  12.820   9.305  0.0011 -0.0171  0.1495
44052W        W47272  15.877  11.688  11.232 -0.0436  0.0713 -0.3597
44053W        W47273  15.618   5.585   7.117 -0.0295  0.1417  0.1259
44054W        W47274  18.218   6.576   7.159 -0.1924 -0.3020 -0.3143
44055W        W47275  16.060  17.315   6.313  0.0353  0.3769  0.2561
44056W        W47276   3.696   6.166   9.168  0.0113 -0.0271 -0.0708
44057W        W47277  14.369   3.698   4.407 -0.0591 -0.0256  0.1900
44058W        W47278   9.145  11.643  10.860  0.0508  0.0368 -0.1381
44059W        W47279  16.991  13.303   1.169 -0.1334  0.3911 -0.1824
44060W        W47280  14.354   5.610   3.974 -0.2345  0.2108 -0.2494
44061W        W47281  14.613  12.943  12.755  0.1919 -0.0600 -0.3560
44062W        W47282   1.329  12.531  10.733 -0.1872  0.0674  0.0785
44063W        W47283   1.848   4.864   5.819 -0.0174 -0.1800  0.0294
44064W        W47284   1.409  14.207  13.869 -0.1800  0.3108 -0.3820
44065W        W47285  16.006  11.856   7.021  0.0352 -0.0765 -0.1200
44066W        W47286  18.124  13.219  12.848 -0.0693 -0.2549  0.4009
44067W        W47287  11.375  11.416   6.508 -0.3716 -0.0668 -0.1318
44068W        W47288   2.199   9.311   9.334  0.0238  0.0815 -0.1387
44069W        W47289   6.335  11.888   8.713 -0.1270 -0.3253  0.3516
44070W        W47290  16.493  17.374  15.011 -0.0680  0.1967 -0.0243
44071W        W47291   0.394   6.542   7.998  0.1217 -0.2973 -0.1022
44072W        W47292   1.706   7.712   8.055  0.0677  0.0021  0.2226
44073W        W47293  10.116   8.749   1.273  0.0043  0.1453 -0.0324
44074W        W47294  13.837  15.656  15.477  0.0044 -0.1310  0.1368
44075W        W47295   1.629   7.646   0.211 -0.1173 -0.1168 -0.1026
44076W        W47296  15.694  13.420  15.588  0.0279 -0.0836  0.0009
44077W        W47297  16.096   8.609   1.596 -0.1653  0.2873  0.1613
44078W        W47298  15.495   9.165   8.641  0.3434  0.1126 -0.2121
44079W        W47299  18.003  13.578   0.865 -0.1861  0.2837  0.0096
44080W        W47300   4.378  10.380  11.713 -0.0603 -0.1041  0.0356
44081W        W47301  15.018   6.092  15.090 -0.1089 -0.0017  0.0678
44082W        W47302  17.188   6.880  11.132 -0.1102 -0.1888  0.1077
44083W        W47303  18.086   8.299  12.913 -0.3808  0.0511  0.1209
44084W        W47304   0.568   6.929   5.984 -0.3117  0.0571 -0.1366
44085W        W47305  18.060  10.094  10.320  0.2111  0.1337  0.1699
44086W        W47306  17.931  11.521   5.498 -0.1981 -0.0988 -0.1993
44087W        W47307   0.431   8.787   6.632  0.1069 -0.3203  0.1716
44088W        W47308  16.931   6.005   1.151  0.1145  0.3889  0.1559
44089W        W47309   3.261   4.216  10.859  0.3206 -0.4935 -0.2513
44090W        W47310  14.990   4.354   4.820  0.1880  0.0435  0.0576
44091W        W47311  17.122   6.843   9.968  0.3048  0.0526  0.1598
44092W        W47312   4.039  13.854  15.024  0.0315 -0.0927  0.3398
44093W        W47313  13.322  12.606   4.297  0.2341  0.0542 -0.1229
44094W        W47314   0.879   3.336  10.829 -0.0392 -0.1288 -0.2104
44095W        W47315  17.219  10.566  15.874  0.2010 -0.2212 -0.0218
44096W        W47316  15.578   8.377   3.569 -0.1273  0.1132  0.0083
44097W        W47317   9.640   2.500   6.915 -0.1363 -0.3248 -0.1096
44098W        W47318  17.644   4.789   5.035 -0.1073 -0.4061  0.1912
44099W        W47319   2.857   9.141   8.115  0.1566 -0.1636  0.0605
44100W        W47320  15.099  13.662   3.992  0.1180 -0.0939  0.4637
44101W        W47321   0.018  10.664   3.261  0.1253  0.1148  0.1274
44102W        W47322  12.915  13.034  10.703  0.3533 -0.0971  0.1289
44103W        W47323  18.189  16.254  10.921  0.2781  0.0456  0.0907
44104W        W47324   4.352  10.302   6.070  0.0490 -0.0429 -0.0274
44105W        W47325  14.576   4.821   8.521  0.3404 -0.1628 -0.0921
44106W        W47326  13.667   8.428  11.850  0.3167  0.0442 -0.0236
44107W        W47327  14.924  10.115  15.563 -0.2609 -0.1014  0.0459
44108W        W47328   7.032   8.454  10.083 -0.0334 -0.0515 -0.0805
44109W        W47329   0.407   7.454  13.139 -0.0285 -0.1606  0.4873
44110W        W47330  15.876  12.059   8.460  0.1308  0.2799 -0.2380
44111W        W47331   2.712   1.593  13.077  0.4010  0.1012  0.2789
44112W        W47332   0.008   8.601   6.901  0.3329  0.0990 -0.1472
44113W        W47333  17.347  11.459  14.904 -0.2924  0.1594 -0.1035
44114W        W47334   4.316   4.118   9.657 -0.2950  0.1126 -0.2935
44115W        W47335  17.010   6.119   5.440  0.0185 -0.0482  0.0379
44116W        W47336  15.188  12.219   6.558 -0.1215 -0.3436 -0.0581
44117W        W47337   0.063   9.973  17.894  0.2935 -0.2055 -0.0248
44118W        W47338  16.013  12.697  13.804  0.0956  0.0891 -0.1155
44119W        W47339   4.881   6.307  10.480  0.0779  0.1088 -0.2491
44120W        W47340   5.509  10.828   8.848 -0.1538  0.0488  0.0442
44121W        W47341   3.838  17.574   5.286 -0.0852 -0.0019 -0.1404
44122W        W47342   1.330  14.437  12.973 -0.0913 -0.0301  0.1781
44123W        W47343  13.767  14.450  11.030 -0.1560  0.0380 -0.2899
44124W        W47344  16.401   8.703  12.304 -0.2546  0.0172  0.1758
44125W        W47345  16.625  12.116  11.844 -0.3481  0.2156 -0.0718
44126W        W47346  17.296  15.899   5.112  0.0195  0.0103 -0.1025
44127W        W47347   2.429   8.295   5.297 -0.2709 -0.3528  0.1988
44128W        W47348   0.147  14.671   5.275  0.0465 -0.0892 -0.0109
44129W        W47349   0.224   6.680   5.479  0.0583 -0.1010  0.0224
44130W        W47350   0.357  12.100   1.757 -0.0274  0.0530  0.3043
44131W        W47351  16.996  10.682  14.035  0.2830  0.2178  0.2248
44132W        W47352   2.338   9.038  15.354  0.0138  0.0461 -0.0774
44133W        W47353   1.355  11.012   7.699 -0.1219  0.2138  0.4580
44134W        W47354  15.455   8.113  14.967 -0.0249  0.0485 -0.2837
44135W        W47355   0.703  13.857   6.539  0.1592  0.0421  0.0983
44136W        W47356  14.454  16.535  16.874  0.0368 -0.1163  0.4525
44137W        W47357   0.767   8.465   6.855 -0.2047  0.0498 -0.2237
44138W        W47358  14.348   7.810  11.517 -0.2233  0.1180 -0.0990
44139W        W47359  14.600  14.943  18.221  0.2083 -0.0602 -0.2507
44140W        W47360  15.689  12.063   7.371 -0.1646 -0.4033  0.1070
44141W        W47361   4.445   4.906  10.120 -0.1123 -0.1602 -0.3425
44142W        W47362  15.591  10.121   8.843  0.0018  0.0771  0.3605
44143W        W47363   3.180   9.195   3.198  0.2629 -0.2074  0.0430
44144W        W47364  17.264  10.953   6.769 -0.1415 -0.0278  0.2704
44145W        W47365   0.427   6.017  15.071  0.1636  0.2547  0.2594
44146W        W47366   2.113   1.512   7.483 -0.0524 -0.1885  0.0188
44147W        W47367   6.129   9.528  11.184 -0.0338  0.0604 -0.0184
44148W        W47368   3.107   7.206   3.661  0.4171 -0.0996 -0.0075
44149W        W47369  13.166  12.184  13.709 -0.1681  0.1027  0.1329
44150W        W47370   3.407   6.815   8.952  0.0016 -0.2613  0.1947
44151W        W47371   3.977   3.243   6.790  0.0658  0.0224  0.1551
44152W        W47372  15.840   8.824   8.662 -0.0090  0.0752  0.1137
44153W        W47373  13.587   9.807  10.155  0.0354 -0.2224  0.1211
44154W        W47374   1.350   4.908  10.502  0.0593  0.0072 -0.1348
44155W        W47375  17.275  10.160   9.159  0.1351 -0.0994  0.0439
44156W        W47376  13.508  17.136  14.666 -0.1805 -0.1380 -0.0313
44157W        W47377   6.396   3.021   7.849  0.1704 -0.0455  0.0209
44158W        W47378  14.960  13.241   8.486  0.0254  0.4325 -0.4052
44159W        W47379   4.693   2.977   9.320 -0.1848  0.0175 -0.2025
44160W        W47380   0.812   4.751   2.907  0.0147 -0.0523 -0.0830
44161W        W47381   1.190  13.521  15.340  0.0448  0.2480  0.0734
44162W        W47382   6.742   9.966   4.305  0.1495  0.1396  0.1403
44163W        W47383  13.888   4.336   3.940 -0.0185  0.1657  0.1596
44164W        W47384  15.568  11.073  15.508 -0.2176  0.1929  0.1955
44165W        W47385  16.991  10.057  10.891 -0.1952  0.0745  0.2340
44166W        W47386  15.320   9.483  11.411  0.0596  0.1744 -0.0781
44167W        W47387  14.583  13.750   6.358 -0.1144 -0.1908  0.0969
44168W        W47388   0.001  16.303   6.017 -0.1202 -0.0840 -0.0037
44169W        W47389   1.461   9.043  10.212  0.0308  0.1877 -0.2520
44170W        W47390  18.174   5.341  15.382  0.0719 -0.0440  0.1158
44171W        W47391   1.331   9.076   9.671  0.2160 -0.0705  0.2782
44172W        W47392  16.146  13.513  10.995  0.1710  0.1001 -0.2886
44173W        W47393  16.063  10.447  10.933  0.0180  0.0182  0.2228
44174W        W47394   3.112  13.175  12.755 -0.1130  0.0459 -0.1515
44175W        W47395   2.732  11.208   6.735  0.0523  0.1085 -0.0802
44176W        W47396  18.070   6.029  12.228  0.0931  0.0828 -0.4425
44177W        W47397  16.873   0.613  10.047  0.0588 -0.1853  0.0973
44178W        W47398  12.753   9.932  11.439  0.1336 -0.0470  0.2773
44179W        W47399   1.103  10.497  11.230  0.3821  0.0455  0.0101
44180W        W47400   3.236   5.690   8.090 -0.5028 -0.0042  0.1770
44181W        W47401  18.082  12.185  11.254  0.0311 -0.3274  0.1207
44182W        W47402   3.501  12.824   3.478 -0.3525  0.0500 -0.0633
44183W        W47403   9.066  10.752   8.833 -0.1326  0.1273 -0.1782
44184W        W47404   0.472   7.632  11.007  0.3175  0.1775 -0.2580
44185W        W47405   0.757   4.413   9.794  0.2628  0.1142 -0.1495
44186W        W47406   2.601  12.353  12.739 -0.0637  0.0826  0.1767
44187W        W47407  11.620  17.664  10.323 -0.1867 -0.2567 -0.0298
44188W        W47408  15.955   8.694  12.562 -0.0311 -0.2101  0.5083
44189W        W47409   3.800  14.018  17.580 -0.2816 -0.0306  0.1709
44190W        W47410  10.600  12.381   6.598  0.0615  0.0281 -0.1797
44191W        W47411  14.649  18.101  13.570 -0.0592  0.1739  0.0743
44192W        W47412  10.290  10.068   2.787 -0.0487  0.1861 -0.3290
44193W        W47413  11.695   9.961  13.189 -0.2454 -0.0656  0.1465
44194W        W47414  13.529   7.482   2.973 -0.0145  0.1642 -0.0078
44195W        W47415   0.442  10.964  11.605 -0.0231  0.0659 -0.2040
44196W        W47416  15.881  12.058   7.959  0.0511  0.4697 -0.0840
44197W        W47417  16.805   7.911  12.795  0.3055  0.1284 -0.0359
44198W        W47418  16.488  10.624  13.955  0.0532 -0.1165 -0.3510
44199W        W47419   5.279   2.339   8.024 -0.1123  0.1577  0.1850
44200W        W47420   0.250   9.410   3.326  0.0888 -0.2366  0.0696
44201W        W47421  15.171  12.629   3.615  0.0464 -0.1242 -0.0291
44202W        W47422   2.884   9.879   5.440  0.3314 -0.0157  0.0609
44203W        W47423  12.584  12.565   7.429  0.0087  0.1205 -0.1761
44204W        W47424  14.835  11.232  11.515 -0.2174  0.0834 -0.1105
44205W        W47425   1.875  10.139  11.966 -0.0774 -0.0696 -0.1123
44206W        W47426   4.572   7.255   6.576  0.0623 -0.0684  0.1978
44207W        W47427   0.506   7.111   7.609  0.3162 -0.0988 -0.5242
44208W        W47428  15.564   7.875   2.751 -0.1972 -0.0160  0.1944
44209W        W47429   3.931  10.872   7.755  0.1193 -0.3376 -0.1674
44210W        W47430  11.338  12.991   8.597  0.1019 -0.1300  0.2124
44211W        W47431   1.659   8.669  11.559  0.0556  0.0426 -0.2859
44212W        W47432  16.014  10.859   8.958  0.0552  0.2534  0.0431
44213W        W47433  15.137  17.302   6.307 -0.0951 -0.1793  0.0505
44214W        W47434  14.514   7.933   7.634 -0.0414 -0.0271 -0.0573
44215W        W47435  17.363  12.985  12.414  0.0761  0.3100  0.2566
44216W        W47436  14.512   6.504   2.783  0.0860  0.2077  0.0029
44217W        W47437  16.981   7.276  15.445 -0.3029 -0.0308 -0.0727
44218W        W47438  16.032  12.224   2.344 -0.1669 -0.0190 -0.1033
44219W        W47439  15.210  12.183   3.846 -0.2535 -0.2074  0.1715
44220W        W47440  11.509   9.768  10.865 -0.0186  0.3099 -0.0104
44221W        W47441  16.428  17.038  15.857  0.0376 -0.0869 -0.0012
44222W        W47442  12.450  13.951  11.095  0.1288 -0.4415  0.3638
44223W        W47443   4.046  16.499  17.893  0.2635  0.1326 -0.0389
44224W        W47444  18.067  17.480  16.730  0.0178 -0.1987  0.2168
44225W        W47445  16.640   8.732   9.912 -0.0214  0.1407  0.3623
44226W        W47446   7.742  13.391   1.990 -0.2236 -0.0268 -0.2908
44227W        W47447   2.047  11.260  11.460 -0.0102  0.0749 -0.0047
44228W        W47448  14.170  10.221  17.354 -0.0342  0.1810 -0.0128
44229W        W47449  16.111   7.052  13.060  0.1245 -0.0152 -0.1245
44230W        W47450   4.713  15.714   4.511 -0.1556 -0.0746 -0.1120
44231W        W47451   4.691   8.326  11.889  0.2378 -0.0971  0.1604
44232W        W47452   5.067   5.505  11.678 -0.0835  0.2848  0.2124
44233W        W47453   3.451  10.536   5.736 -0.0452  0.1783  0.1750
44234W        W47454  15.272  10.052   6.294  0.1768 -0.2820  0.0219
44235W        W47455  11.400   6.302   9.814  0.0669 -0.0353  0.1230
44236W        W47456   0.974   9.499   0.188 -0.0685 -0.0661 -0.0447
44237W        W47457   0.177  10.189  17.340  0.0543 -0.0595 -0.0256
44238W        W47458  16.788  10.571  11.964  0.0890 -0.1122 -0.0541
44239W        W47459  12.898  14.120  10.897  0.1804  0.0154  0.5738
44240W        W47460   0.317   0.005   6.608 -0.1017  0.1541  0.1188
44241W        W47461  13.072  17.308  12.780 -0.2404 -0.0053  0.2796
44242W        W47462   0.961   4.619   7.321  0.1837  0.1859  0.0817
44243W        W47463  15.603   8.990   4.534  0.2736 -0.0993 -0.3925
44244W        W47464  15.007  15.312   8.471  0.1272  0.0330 -0.0683
44245W        W47465   3.521   1.156   9.844  0.1659  0.1865  0.2985
44246W        W47466   3.914   6.718   8.948 -0.3121 -0.1031  0.0531
44247W        W47467   4.833   6.636  15.819 -0.1386 -0.1224 -0.0538
44248W        W47468  14.328   4.788   6.372 -0.2648 -0.0517  0.0437
44249W        W47469  17.273  13.728   8.263 -0.0630  0.1155 -0.1446
44250W        W47470  17.301   0.662   3.850  0.0486  0.2828 -0.4569
44251W        W47471  12.477  12.798   8.426  0.0973 -0.0396  0.1416
44252W        W47472  11.258  11.009   6.163  0.2416 -0.1999  0.1154
44253W        W47473  17.641   9.771   9.348 -0.1030  0.1789  0.0896
44254W        W47474   2.704   7.544   5.571  0.2957  0.1841  0.0922
44255W        W47475  10.749   5.953  15.129 -0.0832 -0.2010 -0.0160
44256W        W47476   4.763   8.392   7.896 -0.0143  0.1622 -0.0456
44257W        W47477   0.925  12.204   5.586 -0.4207  0.1962  0.1422
44258W        W47478  17.060   9.488  17.591  0.1189 -0.1931  0.2854
44259W        W47479  14.788  10.237   4.227 -0.1681 -0.0483  0.0164
44260W        W47480   0.592  10.667  11.180 -0.1089 -0.1996 -0.0589
44261W        W47481  11.463   1.927   8.996 -0.0444  0.1093  0.1194
44262W        W47482   1.842   9.682   3.084  0.3581  0.0103  0.0810
44263W        W47483  16.048  11.153   3.117  0.4213  0.0783 -0.0383
44264W        W47484   5.921   8.704  10.786 -0.1824  0.0085  0.1637
44265W        W47485  15.722   8.158   6.155 -0.1386 -0.1611 -0.0811
44266W        W47486   2.148  11.581   5.038 -0.2595 -0.1420 -0.0132
44267W        W47487  12.337  10.139  11.303 -0.0395 -0.2396 -0.0267
44268W        W47488  14.706  11.845   8.288  0.2140  0.0604 -0.0450
44269W        W47489  10.478   2.112   7.298 -0.3517  0.2126 -0.1022
44270W        W47490  17.865   7.793   9.128 -0.0480 -0.1514 -0.2251
44271W        W47491  15.152  12.144   9.682 -0.0195 -0.0896  0.3597
44272W        W47492  15.104  14.574  11.256 -0.1885 -0.3152 -0.0678
44273W        W47493  13.454  11.130   9.273 -0.0716 -0.1899  0.2152
44274W        W47494   3.557   7.658  15.252 -0.0087 -0.0848  0.2337
44275W        W47495  17.422  13.704   7.643 -0.0961  0.1385  0.3023
44276W        W47496   0.048   1.699   9.207  0.0267 -0.3715  0.0352
44277W        W47497   1.217  14.860   5.111 -0.2046  0.3010  0.1816
44278W        W47498   3.790  11.030  12.671 -0.2012 -0.0615 -0.4252
44279W        W47499  15.059  12.971  17.137  0.1011 -0.2172 -0.1198
44280W        W47500  17.188  11.302   3.778  0.4453 -0.0233 -0.0623
44281W        W47501   2.989   2.036  11.202 -0.2368 -0.5011  0.1092
44282W        W47502   1.131   0.157   9.485 -0.0772 -0.0849 -0.0746
44283W        W47503  14.326  12.584  13.005 -0.0645 -0.0707  0.2642
44284W        W47504   1.374   8.077   7.987 -0.0438  0.1127  0.2063
44285W        W47505  12.040   2.989   7.735 -0.3020  0.1971  0.0147
44286W        W47506   5.681   8.393   3.886  0.3080  0.2393  0.1639
44287W        W47507  10.659   4.482  12.135  0.4727  0.2074 -0.0450
44288W        W47508  16.559  12.029  13.962  0.1876  0.1466 -0.1771
44289W        W47509   2.218  16.846  12.935 -0.0330  0.2757 -0.1054
44290W        W47510   3.159   8.520  13.485  0.0422  0.0987 -0.1975
44291W        W47511  15.077  12.898  11.858 -0.0076  0.1177  0.1378
44292W        W47512  10.584  14.038  16.480  0.1134 -0.0719  0.0882
44293W        W47513   2.449  11.897   7.656  0.2307  0.2965  0.2849
44294W        W47514   4.032   5.307   6.338 -0.0571  0.2819  0.2201
44295W        W47515   2.023   9.284  10.344  0.0659  0.0386 -0.1862
44296W        W47516   1.025   9.713   8.605 -0.0681 -0.3002 -0.1001
44297W        W47517   1.888  10.271  15.628  0.0270  0.4459  0.0774
44298W        W47518  17.009  16.218   0.714 -0.1752 -0.0081  0.3054
44299W        W47519  15.603   7.393  10.431  0.0088  0.0469  0.1074
44300W        W47520   3.030  13.569  13.988 -0.1207  0.1689 -0.1178
44301W        W47521  15.695  14.440  17.614 -0.1984  0.1787  0.0578
44302W        W47522   1.171  13.691   9.855  0.1239 -0.2587  0.2015
44303W        W47523   2.257  10.327  14.170 -0.1575 -0.1456 -0.0515
44304W        W47524  10.945   6.303   0.003  0.1347  0.0342  0.3311
44305W        W47525   3.658  13.871  14.208  0.1061  0.0741 -0.2583
44306W        W47526   0.330   4.240   6.458  0.0032 -0.3678  0.3581
44307W        W47527  15.909   9.484  12.233 -0.3562  0.0188 -0.0332
44308W        W47528   2.012   5.269   8.084 -0.1005  0.1697  0.0569
44309W        W47529  16.096  12.706  17.020 -0.0530 -0.2603 -0.0474
44310W        W47530   8.873  17.074  12.428 -0.0204 -0.0573  0.2641
44311W        W47531  14.077  11.069   4.049 -0.1001 -0.1078  0.1466
44312W        W47532  14.382  16.002   5.680  0.5366  0.1417 -0.0894
44313W        W47533   0.773  13.730   1.683  0.0595  0.3319 -0.3013
44314W        W47534  17.891   9.841   9.862 -0.1624  0.1316  0.0755
44315W        W47535  14.200   0.347   8.418  0.1331 -0.0937 -0.0153
44316W        W47536   2.724   3.448  12.140  0.2969 -0.0375 -0.1323
44317W        W47537   4.479  13.156  12.127 -0.2626 -0.0554  0.4107
44318W        W47538   2.711   2.941   6.450  0.0385  0.0317  0.1641
44319W        W47539  15.620  12.961  17.047  0.0875 -0.3868 -0.1305
44320W        W47540  16.157   7.235   3.803  0.0698 -0.0162  0.2525
44321W        W47541  12.560  17.506   8.648 -0.0386  0.0322 -0.2033
44322W        W47542   3.429   6.337   8.744  0.0106  0.2171 -0.0035
44323W        W47543   1.209   8.814   5.025  0.0064 -0.0250  0.0069
44324W        W47544   0.604  14.004   3.720  0.0652 -0.0319 -0.2218
44325W        W47545   1.366  11.442  11.140 -0.0439 -0.3344 -0.0311
44326W        W47546  13.557   9.315  10.235  0.0503  0.3218 -0.0189
44327W        W47547   2.025   8.897   7.283 -0.0357 -0.1315  0.2845
44328W        W47548   3.319   6.413  14.412 -0.1788  0.2127  0.2714
44329W        W47549   2.236  15.343  16.589  0.0206 -0.1353 -0.1903
44330W        W47550   2.172  10.743   7.403  0.0289 -0.0828  0.0012
44331W        W47551   5.326  12.832   3.911 -0.0365  0.0901  0.1287
44332W        W47552   3.909  11.977   9.310 -0.0244  0.1746 -0.1604
44333W        W47553   0.889  14.603   1.854  0.0875 -0.2333  0.1017
44334W        W47554  17.502  13.110  14.287 -0.0006 -0.0516 -0.2574
44335W        W47555  10.007  11.495  11.027 -0.0554 -0.0348 -0.1267
44336W        W47556   9.978   6.367   1.732 -0.1392  0.1134  0.0180
44337W        W47557  10.920   4.517   7.106 -0.0194  0.1653  0.2075
44338W        W47558  17.984  12.879   8.787  0.0248  0.1141 -0.0687
44339W        W47559   4.364   8.752   8.644 -0.0484 -0.3312 -0.1601
44340W        W47560  17.322  12.757   8.236 -0.2089 -0.1681  0.1714
44341W        W47561  16.599   7.312  10.653 -0.2947 -0.0189 -0.0647
44342W        W47562   7.104  11.576   9.176  0.4858 -0.1423  0.1188
44343W        W47563  16.572  10.318   6.165 -0.1112 -0.1908  0.0986
44344W        W47564   9.186  15.131  12.130  0.1244 -0.3459  0.0107
44345W        W47565   2.076  15.243   8.215 -0.1190 -0.0823 -0.4963
44346W        W47566  18.052   6.999   9.846 -0.2008 -0.4525 -0.1780
44347W        W47567  11.018  13.598  11.907  0.1389  0.1543 -0.1564
44348W        W47568  11.647   7.885  15.382 -0.0825 -0.2257 -0.0927
44349W        W47569   4.754   3.478   7.847  0.1372 -0.0167  0.0366
44350W        W47570   0.855  12.716   9.417 -0.3768 -0.3115  0.0003
44351W        W47571  11.856  13.057  14.393  0.0344 -0.1570  0.0789
44352W        W47572   0.215   4.799  10.799  0.0832  0.1896  0.2931
44353W        W47573  17.904  12.357  12.977 -0.1306 -0.2594  0.0074
44354W        W47574  16.015  16.377   9.908  0.1363  0.1026 -0.0173
44355W        W47575   3.505  13.474   4.812  0.2557  0.0880  0.3780
44356W        W47576   3.855   3.408  15.274 -0.1415 -0.4513 -0.0772
44357W        W47577   0.958  16.052   6.178  0.0225 -0.0591 -0.0454
44358W        W47578   6.083  12.719  15.106 -0.0867 -0.1616  0.1156
44359W        W47579   4.304  11.049   7.196  0.0192 -0.4063 -0.1473
44360W        W47580  11.790  11.451   6.825  0.1042 -0.2433  0.1395
44361W        W47581  16.892   9.806   7.156  0.3028 -0.1020  0.0487
44362W        W47582  14.334  17.376   9.538  0.2632  0.1499  0.0159
44363W        W47583  16.786  17.459   1.069  0.1286 -0.1607 -0.1810
44364W        W47584   3.268   8.218   4.738 -0.1329 -0.1788  0.1391
44365W        W47585  13.168   5.299  12.103 -0.1640 -0.0978  0.2148
44366W        W47586   9.346  10.246  15.121  0.2432  0.1132  0.0949
44367W        W47587   2.083   5.390   9.585  0.1573 -0.0605 -0.1433
44368W        W47588  15.141  11.689   7.353  0.0600  0.1520 -0.4476
44369W        W47589   1.556   4.942   6.910 -0.0762 -0.2260 -0.1040
44370W        W47590  15.339   5.911   8.611 -0.1321 -0.2227 -0.0568
44371W        W47591   3.132  10.522  10.564  0.0201  0.0803 -0.0370
44372W        W47592   3.958  12.108  16.135  0.0549 -0.0696  0.0323
44373W        W47593   3.742   4.157  11.019  0.5556 -0.1978 -0.0471
44374W        W47594  16.982  16.895   2.093 -0.0922 -0.1592 -0.0224
44375W        W47595  13.192   9.168  10.556 -0.1764 -0.1007  0.0442
44376W        W47596   0.326  11.993  12.017  0.1529 -0.1959 -0.1515
44377W        W47597  14.735   4.153   5.273  0.2003 -0.2236 -0.0676
44378W        W47598   2.732  10.251   3.578  0.0034 -0.0603  0.0424
44379W        W47599   1.917   7.367  12.176  0.0072 -0.2601 -0.0071
44380W        W47600   1.950   5.709   0.892  0.2498 -0.1855  0.1704
44381W        W47601   0.974  16.893  14.043  0.2123 -0.0075  0.3840
44382W        W47602  13.318  14.997   3.426 -0.0166  0.0325  0.4119
44383W        W47603   8.723   8.867  16.734  0.0626  0.2658  0.2089
44384W        W47604  15.094  14.417  12.182  0.0149  0.0232  0.1194
44385W        W47605  17.386   2.606   8.674  0.2916 -0.0042  0.1148
44386W        W47606  14.777   3.284  13.434  0.1464 -0.1707  0.0898
44387W        W47607   4.533   8.751   5.848 -0.2182  0.0050 -0.2370
44388W        W47608   5.296   5.444   4.155  0.2461  0.1625  0.1070
44389W        W47609  16.314   8.241  12.356  0.1125 -0.1897  0.1614
44390W        W47610  12.098   5.339   8.496 -0.0683 -0.1720  0.1562
44391W        W47611   3.455   7.026   5.536  0.1768  0.1738 -0.0541
44392W        W47612   0.143   5.689  12.263 -0.1728  0.1456 -0.0441
44393W        W47613   4.288   9.484   5.414  0.1348  0.0927  0.3317
44394W        W47614   0.843   9.152   9.908  0.0032 -0.1330  0.1928
44395W        W47615  13.542  17.049   8.889 -0.2487 -0.3620 -0.4852
44396W        W47616  17.551  10.422  11.853 -0.2937  0.1861 -0.1964
44397W        W47617  16.581  16.701  11.264 -0.2903 -0.1343  0.4087
44398W        W47618   3.202  11.389   7.873 -0.0860 -0.1851 -0.2250
44399W        W47619   6.313   9.035   8.263  0.0372  0.4188  0.0412
44400W        W47620  17.944   2.410   5.755 -0.0525  0.1424  0.1433
44401W        W47621   8.100  12.839   2.540 -0.1575 -0.2675 -0.1128
44402W        W47622   6.816   2.037  15.899  0.0230 -0.0008  0.0758
44403W        W47623  16.881  12.617   4.633 -0.3625  0.0480  0.0442
44404W        W47624   0.104  13.424  10.971  0.1914 -0.2790  0.4395
44405W        W47625   5.510   4.741   6.868  0.1921  0.0709  0.3645
44406W        W47626  12.372   8.435  12.712 -0.2577  0.0098 -0.3166
44407W        W47627  13.902   9.453   7.624 -0.1505 -0.2929  0.2158
44408W        W47628  17.753   9.707  10.413 -0.0531  0.1074 -0.1330
44409W        W47629   8.570  12.170   8.453  0.0937  0.0867 -0.1563
44410W        W47630  15.223  18.230   7.744 -0.1562  0.2744 -0.3224
44411W        W47631  12.013  14.729  16.723  0.1268 -0.2962  0.0210
44412W        W47632  17.077   9.976  12.720 -0.0163 -0.1918  0.0021
44413W        W47633   8.711   1.974   7.077  0.0728  0.2156  0.1547
44414W        W47634  12.954  16.689  11.265 -0.1089 -0.2022 -0.0055
44415W        W47635  10.865   0.429  13.737 -0.0763 -0.0393  0.4697
44416W        W47636   3.116  10.343   8.613  0.7258 -0.1516  0.1837
44417W        W47637  12.443   8.826  14.964 -0.0877 -0.0923 -0.0912
44418W        W47638   1.410  11.714  17.154  0.0834 -0.0125  0.1471
44419W        W47639  17.824   4.264  14.128  0.0011  0.3302 -0.0446
44420W        W47640  16.594   7.557  16.318  0.0543 -0.0875  0.0245
44421W        W47641  15.687  15.714  12.901 -0.2594  0.1978 -0.2567
44422W        W47642   5.721  13.223   7.775  0.0018 -0.4499 -0.1624
44423W        W47643   7.471  15.569  12.094  0.1077 -0.3089 -0.0422
44424W        W47644   1.636  10.284  13.345 -0.1712 -0.3157 -0.1948
44425W        W47645   3.855  10.739  10.180  0.2956 -0.1951  0.3131
44426W        W47646   1.545   9.733   2.341  0.1132 -0.0808  0.3221
44427W        W47647   1.372  14.511  12.369 -0.0710 -0.1979  0.2860
44428W        W47648   3.197  12.498   4.700  0.2273  0.1542  0.4038
44429W        W47649   0.968  11.285   5.739 -0.0503 -0.0046  0.0364
44430W        W47650   2.919   4.465  13.150 -0.2978 -0.1109 -0.1132
44431W        W47651  17.032   0.919   8.235  0.2478 -0.0558  0.2286
44432W        W47652   9.738   6.121   8.719  0.1384  0.0400  0.2298
44433W        W47653  15.602  10.347   3.634  0.0321  0.1472 -0.4644
44434W        W47654  17.189  10.526   7.832  0.2481 -0.0311  0.5847
44435W        W47655  14.449   5.177  16.938 -0.1830 -0.3134  0.0065
44436W        W47656  15.918  11.270  14.155  0.1130 -0.4034  0.1033
44437W        W47657   9.918   1.182   6.574  0.0359  0.2828 -0.0721
44438W        W47658  16.669  10.841  11.491 -0.0615  0.4263  0.0501
44439W        W47659  17.228  13.471  12.406 -0.1672 -0.3308  0.0696
44440W        W47660  18.237  11.507   5.878  0.1910 -0.0297 -0.2412
44441W        W47661   0.246   8.536   9.099  0.2989 -0.0318  0.1142
44442W        W47662  16.361   6.760   3.833 -0.0738  0.0897  0.0260
44443W        W47663  16.002  14.484  12.782  0.0582  0.1746  0.0926
44444W        W47664   3.035   5.692   2.188  0.1812  0.0219 -0.1169
44445W        W47665   3.128  13.989  12.617  0.0796 -0.1735 -0.1538
44446W        W47666   5.309   4.319   7.662  0.0486 -0.0327  0.0825
44447W        W47667  14.941   9.462  13.017 -0.2051  0.2281 -0.2488
44448W        W47668   5.547   9.612  15.924 -0.0677 -0.0704  0.3503
44449W        W47669  16.699  14.186   2.564  0.0755 -0.1782  0.0986
44450W        W47670   1.249   9.234   6.883  0.0427 -0.5630  0.0725
44451W        W47671   0.682  15.019  13.210 -0.0632 -0.1015 -0.0733
44452W        W47672   2.691  16.511  10.789 -0.0790  0.1356  0.3958
44453W        W47673   2.036  13.761  11.105  0.3289 -0.0827  0.2709
44454W        W47674   2.580  16.233   4.681  0.0701  0.0039 -0.1388
44455W        W47675   1.260  12.577  11.213  0.1432 -0.1118  0.0706
44456W        W47676   2.664  11.445  12.889 -0.1877 -0.0554  0.0341
44457W        W47677  16.937  12.519  10.656 -0.2405 -0.2167 -0.0111
44458W        W47678  12.978  12.194  11.336 -0.1398 -0.1237  0.1329
44459W        W47679   1.454  13.664   8.564  0.2159 -0.0364 -0.1642
44460W        W47680   2.429  10.448  11.063 -0.1040  0.0501  0.1727
44461W        W47681  11.679   8.040   0.847 -0.2306 -0.0540  0.0522
44462W        W47682  12.039  12.962   1.644  0.1226 -0.0834  0.0540
44463W        W47683   0.233   9.801  15.561 -0.2597 -0.1319  0.1707
44464W        W47684  15.183  12.101  17.349 -0.0594 -0.0179 -0.0598
44465W        W47685  15.126  12.894  10.300  0.1237 -0.1017  0.2505
44466W        W47686  17.377   5.601   7.121 -0.2023  0.2144  0.1911
44467W        W47687  13.505  11.887  13.473 -0.2430  0.0252 -0.2151
44468W        W47688  15.795   8.935  10.994 -0.1016  0.1067  0.0361
44469W        W47689  13.134   9.125  17.542 -0.4060 -0.0889 -0.0258
44470W        W47690  12.203   4.652  12.501 -0.2765  0.1029 -0.1366
44471W        W47691   9.827   8.689  15.133  0.2123 -0.1320 -0.0559
44472W        W47692   2.799   4.421  16.114 -0.0106 -0.1510  0.0522
44473W        W47693  16.987  14.092  12.721  0.0609 -0.0303  0.0089
44474W        W47694  17.748  12.875  12.839  0.1640  0.2613  0.0873
44475W        W47695   2.703   6.093  17.131  0.4068 -0.0338 -0.0880
44476W        W47696   3.987   7.864   7.463 -0.1011 -0.1521  0.4373
44477W        W47697   5.993   1.005  13.305 -0.0321 -0.0306 -0.1373
44478W        W47698  15.439  13.106  12.085  0.1844 -0.0812 -0.2741
44479W        W47699  14.030   6.834  13.374  0.0366 -0.0105 -0.1035
44480W        W47700   0.096  15.973   0.338 -0.1137  0.2788  0.1216
44481W        W47701  17.977  14.152   7.666 -0.1997  0.1328 -0.2654
44482W        W47702  16.519  15.313   1.729  0.0318  0.0335  0.0791
44483W        W47703   1.064  13.573   7.639  0.1337  0.1711 -0.0466
44484W        W47704  13.661   7.608  15.033  0.1120  0.1792 -0.2632
44485W        W47705  14.427   9.493  14.604 -0.1821  0.0497 -0.0286
44486W        W47706   1.420   6.009  17.028 -0.2163  0.2188  0.3121
44487W        W47707  15.844   7.115  16.043  0.2008 -0.2168  0.1913
44488W        W47708   5.877   7.823  13.997 -0.2906  0.0053  0.1522
44489W        W47709  10.883  11.013   1.341 -0.1879 -0.0867  0.0936
44490W        W47710   1.695   5.743   3.557 -0.0321  0.2650 -0.0622
44491W        W47711  16.083   7.862  14.146 -0.3825  0.0522  0.2144
44492W        W47712   3.550  16.080  11.098  0.1106 -0.3240  0.0323
44493W        W47713   1.878  15.931  15.435 -0.1150  0.0818 -0.0076
44494W        W47714  16.084   9.464  15.239  0.2028  0.1192 -0.3388
44495W        W47715  14.063  10.822  13.473  0.1388  0.0471  0.0490
44496W        W47716   8.451   8.958  13.163 -0.3731  0.1898  0.1291
44497W        W47717   6.754  12.969  13.446 -0.1320  0.2988 -0.0716
44498W        W47718  14.091  16.218  11.134 -0.3075 -0.2508 -0.2100
44499W        W47719  11.789   4.729  16.325  0.0305  0.1048 -0.0671
44500W        W47720   8.047   4.513  10.092 -0.2801  0.4307 -0.0406
44501W        W47721  16.402   5.897  10.246 -0.0477  0.2037 -0.1142
44502W        W47722   2.131  14.065   3.971 -0.0935  0.2287 -0.1478
44503W        W47723   7.738  10.379   3.092  0.1882  0.1221 -0.1521
44504W        W47724   6.141   7.369   2.481 -0.0304 -0.1820  0.1321
44505W        W47725   6.374   5.356  16.637  0.0529 -0.2313  0.0213
44506W        W47726   8.605   8.295   1.990 -0.2486  0.0722  0.1714
44507W        W47727   5.642  11.641  11.392  0.2984  0.1780 -0.1649
44508W        W47728   3.475   7.447  18.224  0.2505 -0.1286  0.3084
44509W        W47729   0.748  11.489   8.188  0.0752 -0.2693  0.0621
44510W        W47730   0.202  12.357   0.293 -0.1616  0.2638  0.0866
44511W        W47731  16.556  13.201  12.174  0.2580 -0.0893 -0.2543
44512W        W47732   6.622   8.012   1.379 -0.2468  0.2846  0.1424
44513W        W47733  16.027   9.181  11.823  0.1499  0.0724 -0.2040
44514W        W47734   9.451  10.690  13.837 -0.1118  0.1735  0.1501
44515W        W47735  16.469  13.144  15.591 -0.4978 -0.0516  0.1965
44516W        W47736  14.720  10.003  15.066 -0.2123  0.0846 -0.0771
44517W        W47737  14.629   6.950  15.467  0.0750 -0.3027  0.0525
44518W        W47738   3.190   9.023  16.594 -0.2963 -0.0104  0.0404
44519W        W47739  12.896  11.794  17.553  0.1177 -0.1724 -0.2478
44520W        W47740  10.781  18.190   9.479 -0.3727  0.0435 -0.2224
44521W        W47741  17.780   6.672  17.975  0.1922  0.1398 -0.1853
44522W        W47742  16.962   5.555   4.337  0.0439  0.4087  0.0695
44523W        W47743   2.317   6.014   7.269  0.0002 -0.2785 -0.1805
44524W        W47744  11.417  13.855  11.940 -0.1598  0.1178  0.2008
44525W        W47745  14.416  11.188  14.231  0.0733 -0.2263 -0.1470
44526W        W47746  14.395   8.132   8.410  0.0926 -0.0748  0.2582
44527W        W47747   8.989  13.576  14.853  0.0750 -0.0105  0.3552
44528W        W47748   1.426  16.083  14.903  0.2009 -0.1340 -0.0351
44529W        W47749  16.160   9.098  12.285 -0.0647  0.1292  0.1280
44530W        W47750   2.253   6.650  14.382  0.0347  0.1191  0.3967
44531W        W47751  17.809   8.082  11.925  0.3081 -0.0498 -0.2545
44532W        W47752  11.804   0.255  15.256 -0.0974 -0.1707 -0.1573
44533W        W47753  10.853  10.400  12.091  0.2319  0.3535  0.1032
44534W        W47754   5.467   3.602   0.417  0.2494  0.0573 -0.2838
44535W        W47755  17.264   8.296   8.209 -0.1242  0.3574 -0.1424
44536W        W47756  17.244   7.982  11.109 -0.1329  0.0302 -0.2147
44537W        W47757   1.997   8.403   6.066 -0.2092  0.0162  0.1884
44538W        W47758  11.538   7.527  10.914 -0.1800 -0.2151  0.0177
44539W        W47759  17.115  12.816  14.309  0.0901 -0.1793 -0.0814
44540W        W47760  12.045  12.754   0.688  0.2176  0.1200  0.0416
44541W        W47761  13.312   9.559   7.736 -0.3125  0.2203  0.1143
44542W        W47762   0.556   4.989   4.606 -0.0037  0.0373 -0.2293
44543W        W47763   4.383   8.082   5.376 -0.0142 -0.0998 -0.2046
44544W        W47764  17.765  10.101   8.958 -0.1756  0.0922 -0.0787
44545W        W47765   6.700   0.388  14.316  0.0886  0.2244 -0.0161
44546W        W47766   1.655   2.766   2.532  0.4767 -0.1797  0.2334
44547W        W47767  17.908   7.143   2.069 -0.2665  0.0554 -0.0668
44548W        W47768   2.208   4.958   6.205 -0.0091  0.0463 -0.1652
44549W        W47769  12.036   8.267  16.203 -0.0590 -0.0906  0.1130
44550W        W47770   9.824   7.283   9.134  0.0783  0.1244  0.1695
44551W        W47771  11.576  14.772   8.419  0.2085 -0.2935 -0.0667
44552W        W47772  10.569   5.885  18.094 -0.0885  0.1860 -0.2134
44553W        W47773  15.416  17.786   7.841  0.1106  0.2832 -0.1636
44554W        W47774   5.203  10.195  13.309  0.1787 -0.1279 -0.0182
44555W        W47775  13.764  12.521  17.077  0.3005  0.0585  0.1604
44556W        W47776   9.955  13.269  14.028 -0.0315 -0.0008  0.1563
44557W        W47777  16.462   8.979   1.775 -0.0804  0.0319  0.2141
44558W        W47778   8.458  12.967   7.342  0.1831  0.1004 -0.1188
44559W        W47779   8.599   9.240  12.808 -0.0616  0.2141  0.4468
44560W        W47780   8.857  10.373  17.603 -0.0650 -0.1582  0.1191
44561W        W47781  14.685   9.688  16.467 -0.0276 -0.1419  0.0553
44562W        W47782  17.293   4.385  11.392  0.2721 -0.0760  0.0770
44563W        W47783  15.307   5.823  15.428 -0.0703  0.1943 -0.4083
44564W        W47784   0.114  14.658  17.087  0.0702 -0.0747  0.1738
44565W        W47785  16.404  16.178   1.816 -0.2409 -0.2232  0.2419
44566W        W47786  14.486  10.837  17.744  0.0002  0.0252 -0.0534
44567W        W47787   2.942  11.855   1.835  0.0486  0.0030 -0.0650
44568W        W47788  15.164  11.594  17.274 -0.0503 -0.0531  0.0237
44569W        W47789  18.251   7.399   0.732  0.0659 -0.0034 -0.0685
44570W        W47790   2.816   5.991   8.198  0.2006  0.2221 -0.0549
44571W        W47791   4.704   8.775   9.455 -0.2521 -0.1259 -0.3692
44572W        W47792   1.232   6.849  10.620 -0.3201 -0.1112 -0.1003
44573W        W47793  16.894   3.888  14.526 -0.2784  0.3037 -0.0940
44574W        W47794  12.663   5.514  15.078  0.0020 -0.0158  0.2355
44575W        W47795   7.261  14.973  14.807  0.1169  0.0017  0.0262
44576W        W47796  17.899   6.884   8.297 -0.2244  0.0909  0.2018
44577W        W47797  11.724  17.139  12.634  0.2871  0.0106 -0.0299
44578W        W47798  16.712  13.628  11.390  0.0437  0.1661 -0.1372
44579W        W47799  17.141  11.464   9.688 -0.0628  0.2363 -0.0487
44580W        W47800  10.736  10.039  15.919 -0.0531 -0.2949  0.2184
44581W        W47801   9.005  10.341  16.567  0.0111  0.0719  0.0853
44582W        W47802  14.297   3.659  10.404  0.0899  0.0642  0.0767
44583W        W47803   1.463   6.590   8.044 -0.0700 -0.0012  0.0689
44584W        W47804   1.603  10.222  13.917 -0.3204 -0.0213 -0.1112
44585W        W47805  13.451  14.112   3.046  0.0269 -0.1225  0.1270
44586W        W47806   0.662  15.558  12.070  0.2822 -0.0393 -0.1942
44587W        W47807  17.324  16.178  11.119  0.3062  0.1612  0.4293
44588W        W47808   0.392  15.167  16.651  0.0438  0.0020  0.0916
44589W        W47809  14.827  15.162  10.103  0.1866  0.2826 -0.1339
44590W        W47810  14.445   9.288  16.796 -0.2706 -0.2822  0.2667
44591W        W47811  14.462  10.540   9.878  0.0382  0.0753 -0.0656
44592W        W47812   2.710  13.060  14.769 -0.0853 -0.0490  0.2287
44593W        W47813  16.300  10.309  14.694 -0.1661 -0.2638  0.3474
44594W        W47814  13.586  17.622  14.315  0.1292  0.2040 -0.0887
44595W        W47815   3.133   2.527  13.026  0.1844 -0.1776  0.1503
44596W        W47816  15.083  13.540   0.709  0.0866  0.1287  0.0677
44597W        W47817  16.611  10.601  14.459  0.1625 -0.2614  0.3659
44598W        W47818   2.598   9.600  10.811  0.1612  0.1287 -0.1124
44599W        W47819   1.696   8.781   8.172  0.3240 -0.0593  0.0349
44600W        W47820  15.953  15.118  13.580 -0.2000  0.0839 -0.3352
44601W        W47821  15.644   9.693   0.771 -0.1684 -0.2562  0.1540
44602W        W47822  10.354  13.203  13.073 -0.2474  0.2345 -0.0624
44603W        W47823  17.456  12.643  17.218  0.3931 -0.4527 -0.3979
44604W        W47824  13.806  13.547  17.429  0.2292  0.0759  0.2057
44605W        W47825  16.515  14.449  11.039 -0.1814  0.1103  0.0617
44606W        W47826  13.378  15.242  13.111 -0.1215  0.0625 -0.1085
44607W        W47827  17.545  13.175   8.497 -0.1871  0.0163  0.0716
44608W        W47828  12.514  11.197   0.025 -0.3351  0.3968 -0.0992
44609W        W47829   4.290   9.514   7.954  0.2914 -0.2231 -0.1845
44610W        W47830  16.130   7.146   9.338  0.0437  0.3031 -0.0722
44611W        W47831  17.815   5.634   8.165  0.0874  0.0494 -0.2025
44612W        W47832  16.992   5.827  11.105 -0.1645  0.0953  0.1819
44613W        W47833   2.161   7.097   5.189 -0.4067  0.1583  0.1437
44614W        W47834  12.383  17.317  17.857  0.2283  0.0283 -0.0260
44615W        W47835  13.276   6.979  17.060  0.1743  0.1339 -0.1349
44616W        W47836   0.649  10.640  15.108 -0.5643  0.4180 -0.4242
44617W        W47837   2.753   9.221   6.954 -0.1095  0.2258  0.1880
44618W        W47838   3.248  10.202  12.005  0.2041 -0.2332 -0.0973
44619W        W47839   0.022   4.515   0.122 -0.2239  0.0281 -0.0298
44620W        W47840  15.736   7.600  14.949 -0.2779  0.0647  0.2995
44621W        W47841  17.308   1.903  14.425 -0.1545  0.1734  0.1446
44622W        W47842  12.894   9.326  13.623  0.1678 -0.1182 -0.2606
44623W        W47843   0.145   9.686   9.827  0.0091 -0.2710 -0.0612
44624W        W47844  13.513   9.859  11.524  0.0021  0.0844 -0.3656
44625W        W47845   5.624   3.061   8.533  0.0034  0.1274 -0.0548
44626W        W47846   8.374   7.504  15.892  0.2129 -0.0051  0.2474
44627W        W47847  16.334   5.912   6.065 -0.0129  0.2931 -0.1155
44628W        W47848   3.389   9.465   9.536 -0.3849  0.0832  0.0866
44629W        W47849   3.381  11.593   8.324  0.0762  0.3241 -0.1241
44630W        W47850  13.631  10.060  13.619 -0.0559 -0.1043 -0.2562
44631W        W47851  16.669   9.569  17.245  0.3787 -0.1537 -0.1780
44632W        W47852   9.542   6.513  12.237 -0.0565 -0.1958  0.1556
44633W        W47853  17.846  10.664  15.654 -0.1839 -0.0509 -0.0664
44634W        W47854   5.033   5.794   9.774  0.0181 -0.1361  0.0011
44635W        W47855  16.083  13.082  12.963 -0.0768  0.2773 -0.0230
44636W        W47856   4.459   8.842  11.906 -0.3682  0.4886 -0.0706
44637W        W47857   5.323  12.929   1.235  0.1691  0.2446 -0.0606
44638W        W47858  15.116  13.532  16.187 -0.1970  0.1073  0.0311
44639W        W47859   1.069   5.973   0.829 -0.0385 -0.0405  0.1283
44640W        W47860  17.292  12.349   9.039 -0.0070  0.0672  0.0174
44641W        W47861  17.351   9.137   7.044  0.0237  0.2674  0.1275
44642W        W47862  10.496  11.108  11.902  0.0495  0.2470 -0.3596
44643W        W47863   9.450  14.323  15.150  0.0367 -0.2352  0.1937
44644W        W47864   1.707   7.986  16.739 -0.1636  0.0388  0.1507
44645W        W47865   6.091  12.430  13.238  0.1043  0.0492  0.0625
44646W        W47866   0.549  10.234   7.353  0.3230  0.0904  0.2491
44647W        W47867  13.782  10.617  16.358  0.0775  0.0879 -0.0673
44648W        W47868   0.555   5.126  15.299  0.0255 -0.0083 -0.3638
44649W        W47869  16.927  14.087  13.746 -0.0399  0.3411  0.0928
44650W        W47870  13.890  10.344   8.970  0.1605  0.0357  0.2879
44651W        W47871  14.239  11.268  15.772  0.1789  0.1565 -0.1572
44652W        W47872   9.362   8.625  14.704 -0.0519  0.0356  0.1015
44653W        W47873  16.700   1.658   2.506 -0.0157 -0.0114 -0.2029
44654W        W47874  16.973   9.007  12.800 -0.1139  0.0165  0.0091
44655W        W47875  12.638   7.525  12.270 -0.0277 -0.1332 -0.1176
44656W        W47876  16.723  12.088  11.386 -0.1303 -0.2881 -0.1461
44657W        W47877   8.710   3.109   7.240 -0.3029  0.1117 -0.0858
44658W        W47878   0.046   9.370  16.326  0.0579 -0.3869  0.0522
44659W        W47879  15.685  10.832  10.582 -0.1511  0.2200 -0.2518
44660W        W47880  17.970  13.107  17.080 -0.1458  0.0822  0.0100
44661W        W47881   0.898  13.442   8.816  0.0818  0.0715 -0.1330
44662W        W47882   5.706  10.442  10.322  0.1795 -0.0972  0.1604
44663W        W47883   6.599   3.422   8.257 -0.2040 -0.2120  0.2245
44664W        W47884   2.070  10.953  17.305 -0.0867 -0.2067  0.1686
44665W        W47885  13.988   5.554  15.146  0.1152 -0.2106 -0.1188
44666W        W47886   9.068   7.164  15.032 -0.0236  0.4470  0.0577
44667W        W47887  12.852   7.458  11.322 -0.1053 -0.2901 -0.0757
44668W        W47888  15.177   4.916  17.882  0.3811  0.0557  0.3022
44669W        W47889   1.067  16.260  12.925 -0.0526  0.0770  0.3431
44670W        W47890  17.635  11.526   6.914 -0.1207 -0.5407  0.0550
44671W        W47891  18.072   2.002   6.032 -0.3449 -0.0439  0.0827
44672W        W47892  16.190  10.968   6.758  0.1775  0.0424 -0.6262
44673W        W47893   6.609   8.175   2.868 -0.1560 -0.0164 -0.1867
44674W        W47894   1.566  11.781  15.397  0.0540  0.2236 -0.2609
44675W        W47895  16.653   6.265  12.126  0.2523  0.0736  0.1396
44676W        W47896   0.936   8.015  11.494 -0.1568  0.1555 -0.2150
44677W        W47897  16.284   8.938  17.158  0.1769  0.1496 -0.0177
44678W        W47898  13.589   6.692  17.446 -0.1996 -0.3620 -0.0098
44679W        W47899   9.000   6.386   2.065  0.1495 -0.3768 -0.0121
44680W        W47900  17.085  14.533  13.387  0.0747  0.1064 -0.0950
44681W        W47901  15.240   9.429   0.531  0.0684 -0.2270  0.0573
44682W        W47902  14.603   6.381  12.121 -0.1534  0.2166  0.0571
44683W        W47903   3.413   8.975   7.969 -0.2662 -0.2183 -0.0090
44684W        W47904   2.488  13.656  13.990  0.0827  0.0931 -0.2127
44685W        W47905   1.191   9.299   8.862 -0.0931 -0.0859  0.0584
44686W        W47906  17.258  11.774   8.401  0.2413 -0.2444 -0.0959
44687W        W47907   3.149  12.968  14.403  0.1206 -0.2840  0.2691
44688W        W47908   2.030   6.059  12.904 -0.0208 -0.0768  0.2429
44689W        W47909   2.399  13.263  17.827  0.1106  0.0868  0.1041
44690W        W47910   5.801  11.248  11.637 -0.0308 -0.1070  0.1213
44691W        W47911  12.384   7.720  17.035  0.2493 -0.0133  0.1754
44692W        W47912  16.428   0.122  13.028 -0.0014  0.2642 -0.2134
44693W        W47913  11.139  11.617  15.872  0.1650 -0.1298  0.1252
44694W        W47914  16.181   0.769  11.050  0.1659  0.1687 -0.2999
44695W        W47915  17.765   9.119   9.728 -0.3318  0.0859 -0.0175
44696W        W47916  14.967   8.364   0.167 -0.0008 -0.1891 -0.0160
44697W        W47917  15.307  12.812   4.519  0.0924  0.2005  0.0961
44698W        W47918  17.147  11.285  15.361 -0.0449  0.3196 -0.0507
44699W        W47919  13.623   8.331  10.526 -0.0816  0.0182  0.2676
44700W        W47920   9.926   8.725   9.621  0.1848  0.1961 -0.0344
44701W        W47921  16.881   8.296  14.026  0.0509  0.2553  0.1308
44702W        W47922  15.863  14.537  13.633  0.1549  0.2741  0.1641
44703W        W47923   2.366  11.400   4.253  0.0043  0.0688 -0.1418
44704W        W47924  13.848  17.449  15.647  0.1134  0.1795 -0.1568
44705W        W47925  17.969  16.820  15.347 -0.2281  0.1195 -0.3598
44706W        W47926   0.633  14.880  14.803  0.0309  0.2007 -0.0969
44707W        W47927  15.390   6.986  10.569  0.0974 -0.2608 -0.3541
44708W        W47928  16.888   3.265  10.098  0.1025  0.1113  0.2838
44709W        W47929   6.752  10.133  16.838 -0.1568 -0.3204  0.1046
44710W        W47930  13.108   6.032  13.774  0.0321 -0.0195  0.1718
44711W        W47931  10.665   5.104  15.824 -0.2542 -0.3931  0.3552
44712W        W47932   0.213   7.514   5.166  0.2374 -0.1700 -0.0019
44713W        W47933  18.175  11.022  12.855  0.1747 -0.1050 -0.1027
44714W        W47934  17.641  11.810  14.729 -0.0075 -0.0923  0.0835
44715W        W47935   1.754  11.043   0.448  0.0917  0.0559 -0.0438
44716W        W47936  14.111   8.938  15.984 -0.1081  0.2318  0.1374
44717W        W47937  13.923  17.099  11.267 -0.0669  0.1218  0.2203
44718W        W47938   3.820  17.632   9.740  0.3976  0.4185  0.0779
44719W        W47939   2.346   9.261  16.750  0.0237 -0.1002  0.2580
44720W        W47940  14.741  16.014  13.126 -0.2267  0.1843  0.1515
44721W        W47941  17.322  11.453  11.008 -0.1804  0.5194  0.1745
44722W        W47942   2.689  10.996   8.937  0.0177 -0.2648 -0.1449
44723W        W47943  13.621  11.639  11.986 -0.2339  0.3793 -0.4281
44724W        W47944  10.585  12.198  10.670 -0.2319 -0.0187  0.0825
44725W        W47945  13.911   9.655  18.127 -0.1291  0.1335  0.1866
44726W        W47946   0.065   8.721  10.204 -0.3395 -0.0563  0.2710
44727W        W47947  15.438   7.705   4.783  0.2573  0.1333 -0.6059
44728W        W47948  11.291  10.232  12.971  0.3750 -0.2271 -0.1271
44729W        W47949   0.043  14.080  17.104 -0.0271 -0.0579  0.2076
44730W        W47950   2.595  10.551  15.385  0.2128  0.3079 -0.2315
44731W        W47951  15.624   6.404  17.002  0.1019  0.0091  0.0919
44732W        W47952  12.663   9.580  11.782  0.4392  0.0805 -0.0651
44733W        W47953  12.323  15.672  10.281 -0.4854  0.3588  0.0354
44734W        W47954   6.378   6.343  16.303 -0.0671 -0.2123  0.2250
44735W        W47955  10.877  14.805  10.105  0.1346 -0.0313 -0.0502
44736W        W47956   1.383  11.969   0.105 -0.0485 -0.0529  0.0356
44737W        W47957   7.746   8.980  16.630  0.0166  0.1809  0.1218
44738W        W47958  14.747  11.008   7.894  0.2413  0.2238  0.3578
44739W        W47959  12.082   6.340   6.331 -0.0076 -0.0357  0.0339
44740W        W47960   6.739   7.907   8.873  0.1429 -0.0884 -0.0923
44741W        W47961  15.882  10.871  11.066 -0.0063  0.4122  0.2231
44742W        W47962   0.273   7.229   6.195  0.2176  0.1529 -0.0337
44743W        W47963   1.078   2.037  13.578  0.2494  0.0569  0.1188
44744W        W47964   3.706   4.673  10.174  0.2256 -0.1260  0.1879
44745W        W47965  15.556  17.141  11.449 -0.0418 -0.1800  0.1066
44746W        W47966   4.269   1.907  11.995  0.0884  0.3434 -0.1471
44747W        W47967  16.618  11.206  15.566  0.2308 -0.1581  0.1073
44748W        W47968   1.919  18.060   9.068 -0.2225  0.0841 -0.3139
44749W        W47969  15.482  12.779  16.612  0.1381 -0.2448 -0.2139
44750W        W47970  10.825   1.066  16.658  0.0502  0.1396  0.2170
44751W        W47971  17.701  13.369  15.241 -0.1617 -0.0405  0.3958
44752W        W47972  16.618   8.132  11.452  0.0022 -0.0658 -0.0006
44753W        W47973   5.864   4.211   3.429  0.1723  0.1368 -0.1245
44754W        W47974   5.208  12.383  14.859 -0.2416 -0.0952  0.3388
44755W        W47975  18.253  11.960   9.359  0.0553 -0.1068  0.1854
44756W        W47976  12.952   8.219  13.003 -0.0781 -0.1059  0.0500
44757W        W47977   5.400   7.842  16.712 -0.1567 -0.1542 -0.0497
44758W        W47978  14.326   0.676  12.790  0.2240 -0.1151 -0.1356
44759W        W47979   0.791  15.200  16.339  0.0388  0.2926  0.0719
44760W        W47980  18.215  14.774  14.994  0.1162  0.0748 -0.1394
44761W        W47981  14.116  11.671  12.175  0.2405 -0.2517  0.2935
44762W        W47982  13.838  10.940   0.124 -0.1229 -0.0020 -0.0762
44763W        W47983  12.784  14.579   8.470 -0.0219  0.2442 -0.0240
44764W        W47984  16.223  10.739  13.420 -0.1638 -0.2156 -0.0714
44765W        W47985  12.653  10.184  13.347 -0.0625  0.1013  0.1682
44766W        W47986   5.848   1.754   2.180 -0.2384  0.2782  0.1073
44767W        W47987   0.129  14.276  11.670  0.0060  0.0201  0.3442
44768W        W47988  16.528   8.526  11.744 -0.0844 -0.3573 -0.0862
44769W        W47989   2.295  16.784  14.446 -0.1675 -0.3178 -0.1493
44770W        W47990  15.846  10.301  14.876  0.1725  0.2259 -0.0731
44771W        W47991  13.848  11.930   2.067  0.2605  0.0987 -0.0562
44772W        W47992  12.244   9.496  13.723  0.3445 -0.0336 -0.1381
44773W        W47993  11.764  10.792  15.224  0.2317 -0.0629 -0.6388
44774W        W47994  15.447   8.920  11.733 -0.0120 -0.2262 -0.2307
44775W        W47995  11.265  10.629  15.009  0.2470  0.1045  0.0316
44776W        W47996  12.526   6.329  12.738 -0.0585  0.1468  0.1152
44777W        W47997  17.015  14.658  10.551  0.2308  0.0500 -0.3453
44778W        W47998   1.083  12.370  12.018  0.2110  0.0625  0.0255
44779W        W47999  16.082  13.176  16.868  0.1480 -0.0614  0.1951
44780W        W48000  15.056   5.370  12.931  0.1808 -0.1019 -0.0747
44781W        W48001   7.765  10.119  13.272 -0.1617 -0.1572 -0.1573
44782W        W48002  17.183   6.100  11.504 -0.3008 -0.0050 -0.2371
44783W        W48003   3.642   7.202  12.938  0.5442 -0.3249  0.3034
44784W        W48004  18.264   7.380  10.994 -0.2609  0.1098 -0.0413
44785W        W48005  17.820  11.745  11.537 -0.0062  0.0826  0.2325
44786W        W48006  14.953  10.063  17.261  0.0036 -0.2493  0.2679
44787W        W48007  13.632   9.152  13.856 -0.2073 -0.0814  0.1263
44788W        W48008   3.859  11.788   8.380  0.1563  0.0838  0.0412
44789W        W48009  13.636  14.080  11.357  0.0288 -0.2568 -0.0699
44790W        W48010  16.579   9.080  14.832  0.1586 -0.0969 -0.0875
44791W        W48011  16.995   7.800   9.026  0.0602 -0.3021 -0.1361
44792W        W48012  11.821  13.196  15.788 -0.2592 -0.0699 -0.3211
44793W        W48013  16.701  13.089  18.002  0.3082 -0.0666  0.1563
44794W        W48014  13.987   8.405   0.555 -0.0164 -0.2880  0.1100
44795W        W48015  15.327   9.363  14.979  0.0656 -0.1234 -0.0319
44796W        W48016  14.970  12.558  17.525 -0.1716  0.0239  0.1469
44797W        W48017   7.345   7.023   9.140  0.1343 -0.0611 -0.0810
44798W        W48018  16.432  10.559  16.654  0.0704  0.2716  0.4100
44799W        W48019   7.727   8.309  13.595 -0.1022  0.1128  0.1245
44800W        W48020   6.785   4.725  13.476 -0.1024 -0.1835 -0.0272
44801W        W48021  16.191  15.878   8.296 -0.0890 -0.2428  0.6683
44802W        W48022  16.984   8.010  14.480 -0.0258  0.1549 -0.0734
44803W        W48023   0.494  14.378  13.600  0.0115  0.1318  0.0041
44804W        W48024   2.155   6.363  11.442 -0.1299  0.1909 -0.1103
44805W        W48025   8.286   9.384   8.926 -0.2255 -0.0009  0.2266
44806W        W48026   5.289  10.739  12.290 -0.1114 -0.0007 -0.1058
44807W        W48027  13.994   6.119  17.280  0.0623  0.0236  0.0279
44808W        W48028  17.618   5.947  11.925  0.1141  0.1709 -0.3247
44809W        W48029  14.307  10.071  16.344  0.1379  0.1040 -0.1419
44810W        W48030  17.184  11.425   2.335 -0.0718  0.2188 -0.2851
44811W        W48031  15.338  11.134  10.788 -0.1538 -0.2129  0.0794
44812W        W48032   0.245   9.273  13.948 -0.3177 -0.0313 -0.0277
44813W        W48033  13.987   4.562  10.045 -0.1552 -0.2277  0.0101
44814W        W48034  16.681  11.502  13.873 -0.0700  0.0450  0.1404
44815W        W48035  14.896  13.952  11.959 -0.2517 -0.2241  0.2501
44816W        W48036   8.457  11.146  12.997  0.1436 -0.1307  0.0110
44817W        W48037   1.310   4.857   6.477 -0.1448 -0.1555  0.0047
44818W        W48038   6.746   6.205  16.027 -0.0394 -0.1268  0.1469
44819W        W48039  13.962  11.878  11.708  0.1477  0.5018 -0.2354
44820W        W48040   0.927  13.905  11.645 -0.0766  0.0218 -0.1792
44821W        W48041   1.951   8.382  11.239 -0.2686 -0.0887  0.0064
44822W        W48042   8.599   8.206  17.948 -0.4183  0.0629 -0.2573
44823W        W48043   1.318  12.526  10.212  0.0650 -0.0993 -0.2647
44824W        W48044  10.146   6.761  11.360 -0.1399  0.1782 -0.0217
44825W        W48045   1.967  14.736  16.202 -0.0417 -0.0061 -0.2152
44826W        W48046   1.420   6.808  14.492 -0.0803 -0.2640  0.0126
44827W        W48047  17.072  17.388   1.927  0.2395  0.1014  0.0261
44828W        W48048  12.895   7.970  12.586  0.2707 -0.0720  0.1746
44829W        W48049  15.113   5.123   9.566  0.0759  0.0588 -0.0208
44830W        W48050  14.540   6.212  14.785 -0.0500 -0.0637 -0.4338
44831W        W48051  17.222   3.504   2.723  0.1510  0.0232 -0.0311
44832W        W48052  17.468   8.211  11.620 -0.1845 -0.1076 -0.0798
44833W        W48053  13.820   8.518  15.354  0.2502  0.0856  0.1376
44834W        W48054   0.175   2.379   0.518  0.0087 -0.1226 -0.1548
44835W        W48055   2.758  17.581   6.231  0.0229 -0.0883  0.2104
44836W        W48056  14.114  11.766   1.241  0.0592 -0.0396 -0.1068
44837W        W48057  16.336  11.381  15.161 -0.3372  0.0588 -0.1338
44838W        W48058   0.884   5.722   8.084  0.2144 -0.4146  0.3755
44839W        W48059  11.990   6.776  11.810  0.1246 -0.4907 -0.0852
44840W        W48060   3.174  14.270  13.592  0.2151 -0.0151 -0.0744
44841W        W48061   1.543  13.604  14.102  0.1267  0.3687  0.3710
44842W        W48062   9.635  16.655  12.555 -0.1864  0.1204 -0.1445
44843W        W48063  17.026   9.177  13.816  0.0903 -0.0738  0.1189
44844W        W48064  14.029   7.729   4.854  0.0161 -0.1815 -0.1002
44845W        W48065  15.715  10.210   7.503 -0.0738 -0.3255  0.0258
44846W        W48066  16.652  13.181   8.720 -0.0475 -0.0473 -0.2773
44847W        W48067   2.262  13.386   5.652  0.1771  0.1411  0.2413
44848W        W48068  15.578   0.735  13.527 -0.1076  0.2223 -0.0715
44849W        W48069  16.169   9.648   3.047  0.0041  0.3534 -0.1457
44850W        W48070  16.957  11.490   8.067  0.1977 -0.2352  0.1236
44851W        W48071   1.236   5.904  14.142 -0.1642 -0.3051 -0.1028
44852W        W48072  16.747  12.919   1.288 -0.0842 -0.1204 -0.3458
44853W        W48073   2.208  14.463  17.000  0.2462 -0.0038 -0.2040
44854W        W48074  12.287   7.281   1.553  0.1447  0.1678 -0.0204
44855W        W48075   7.932   8.791  16.162  0.0564  0.0847 -0.2527
44856W        W48076   0.367  14.013   0.520  0.0170  0.1688  0.0940
44857W        W48077  14.721  10.012  17.738  0.2312 -0.1007  0.0534
44858W        W48078   0.512  11.172  15.297  0.0429 -0.2703 -0.1485
44859W        W48079  16.762   4.359   7.239  0.0025 -0.1996 -0.1274
44860W        W48080  15.598   6.544   1.135 -0.0188 -0.3603  0.1549
44861W        W48081  17.164  13.694  13.549  0.3092 -0.0421  0.1602
44862W        W48082  13.377   8.398   3.101  0.0098  0.0863  0.2901
44863W        W48083   7.894   8.470  12.496 -0.2681 -0.2478 -0.0220
44864W        W48084   0.912  12.883   4.161 -0.1009  0.0056 -0.3264
44865W        W48085   0.312  11.192   7.568 -0.0382 -0.0334  0.2587
44866W        W48086   1.688   4.309   2.602 -0.1482  0.0857  0.0116
44867W        W48087  16.718  10.594  13.457 -0.4437 -0.1287 -0.1735
44868W        W48088  16.950   7.248   0.776 -0.3886  0.2243  0.0970
44869W        W48089  10.112  10.810  12.740  0.1187  0.0635  0.2130
44870W        W48090  18.256  12.526  14.595 -0.1785  0.2200  0.2050
44871W        W48091   2.990   8.763  12.854  0.0796 -0.3670  0.3518
44872W        W48092  10.547   7.988   4.821  0.3153 -0.0648  0.1778
44873W        W48093   5.738   7.809   6.928  0.0107  0.1383 -0.0514
44874W        W48094   5.798  10.706  11.237  0.1135 -0.1557  0.2118
44875W        W48095   2.854  16.607  17.071 -0.1933 -0.0198  0.0467
44876W        W48096  12.649   2.056   5.591  0.1274  0.0844  0.2394
44877W        W48097  18.006   6.564   6.314 -0.1935  0.2920 -0.0109
44878W        W48098  11.890  13.672   4.120  0.0950  0.0429 -0.1409
44879W        W48099   1.695   0.734  15.662 -0.0104  0.0070 -0.0151
44880W        W48100   3.851  13.288  16.654  0.2676  0.2141  0.0838
44881W        W48101   7.210  10.817   1.248  0.1356 -0.1599  0.0729
44882W        W48102  17.912  12.263  17.250  0.1401  0.2653 -0.1613
44883W        W48103   1.759  14.850  13.616  0.3220  0.2370 -0.3059
44884W        W48104  15.324  10.246  16.279 -0.2063 -0.0536 -0.2658
44885W        W48105  14.259   6.864  14.261 -0.1652 -0.0279  0.0795
44886W        W48106   4.928  14.376  16.899  0.1794 -0.0706  0.0144
44887W        W48107  14.037   8.220  13.889  0.0182 -0.2699 -0.0520
44888W        W48108  11.415  10.995  16.661  0.1010  0.1032  0.1628
44889W        W48109   1.640  11.919   0.534  0.0250  0.0858  0.1981
44890W        W48110  17.234   9.589   2.418  0.0043  0.0822  0.0193
44891W        W48111  14.272  11.691   1.954  0.1695 -0.0182 -0.2519
44892W        W48112  16.423   7.681   0.772  0.0196 -0.3047 -0.2389
44893W        W48113  18.105  12.725   7.218  0.2426  0.3281  0.0132
44894W        W48114  15.082   8.555  15.625 -0.1312 -0.4388  0.1205
44895W        W48115   2.918   6.674  10.865 -0.2706 -0.0039  0.1010
44896W        W48116  16.007  11.662   2.276 -0.0213  0.0095  0.3092
44897W        W48117   9.267  10.422  10.579 -0.1970 -0.1099 -0.1312
44898W        W48118  13.119   9.551   9.190 -0.1851  0.0627 -0.0831
44899W        W48119  17.870  10.863  11.530  0.1511 -0.1269 -0.1471
44900W        W48120  12.302   8.546  15.392 -0.3503  0.0590  0.4069
44901W        W48121  15.533  12.167  10.941  0.0069 -0.2886 -0.2274
44902W        W48122  15.817   5.462   3.161 -0.2143 -0.1665  0.0241
44903W        W48123   0.537   0.764   3.252  0.2873  0.1094 -0.2105
44904W        W48124  16.670  14.836   4.918  0.0261  0.1718  0.0739
44905W        W48125  17.322  10.054   2.580  0.2381 -0.1964 -0.1532
44906W        W48126   2.350   4.029   0.955 -0.2919 -0.0868  0.0532
44907W        W48127  14.733  11.178  15.805  0.1115  0.2333  0.1867
44908W        W48128   9.541   7.383  15.697 -0.2627  0.1145 -0.3849
44909W        W48129   1.629   7.321   3.152  0.1675  0.1739 -0.1416
44910W        W48130  11.447   8.533   3.039 -0.2078  0.1064  0.1090
44911W        W48131  14.086  12.956  14.652  0.2566 -0.4099  0.0393
44912W        W48132  17.404   6.208  17.925 -0.0233 -0.0341  0.1846
44913W        W48133  15.471  10.434  10.369 -0.2910  0.2897 -0.0709
44914W        W48134   2.406   4.305  16.824 -0.0259  0.1241  0.2757
44915W        W48135   0.434  14.510  18.138  0.3781  0.0921 -0.2480
44916W        W48136   2.942   7.455  16.937  0.1206 -0.0593  0.0839
44917W        W48137  12.822  10.540  11.482 -0.2799  0.2828 -0.2558
44918W        W48138  10.843   6.407  11.749  0.1155  0.0596 -0.0629
44919W        W48139   2.011   9.613  13.388 -0.2524 -0.0281 -0.0425
44920W        W48140  16.618   8.763  16.675  0.2013 -0.2024 -0.2769
44921W        W48141   4.338  14.080   2.127 -0.1660 -0.2901  0.0516
44922W        W48142   4.541   9.951  15.983  0.2578 -0.1063  0.2389
44923W        W48143   7.350  10.088   5.142 -0.2564  0.0092 -0.1446
44924W        W48144   5.261   3.230  12.022 -0.1805  0.2335  0.0880
44925W        W48145   9.458   5.505   2.765 -0.2866 -0.1783 -0.3225
44926W        W48146  16.627  10.247   7.216 -0.1577 -0.0787  0.1957
44927W        W48147   0.691   6.879   2.388 -0.1278  0.0093  0.0707
44928W        W48148  14.929  17.906  15.809  0.2618  0.3568 -0.1126
44929W        W48149   2.296   6.753   2.232 -0.2296 -0.1897 -0.4108
44930W        W48150  15.621  12.781  12.907 -0.0458  0.0796  0.0263
44931W        W48151   9.723   7.513   5.603 -0.3032  0.1282 -0.0051
44932W        W48152  14.722  13.564  17.747  0.0892 -0.3861 -0.1629
44933W        W48153  10.832   8.351   1.255  0.1614  0.1777  0.1429
44934W        W48154  15.267   6.070   2.296 -0.2109 -0.2701 -0.0954
44935W        W48155   3.134   4.725  10.856 -0.0209  0.2105  0.0764
44936W        W48156   4.517   8.506  11.048 -0.1973  0.1732  0.1002
44937W        W48157   2.218  13.298   2.528  0.3084 -0.3033  0.1865
44938W        W48158  13.537   6.307  13.842 -0.0176  0.0414  0.1024
44939W        W48159  15.450   4.404   5.118 -0.0592  0.1690 -0.0073
44940W        W48160   3.227   8.744  15.125 -0.0217 -0.1006  0.1974
44941W        W48161  15.661  17.559  13.962  0.0827 -0.1579  0.2823
44942W        W48162   3.194   7.666  12.796 -0.1881  0.0423  0.4615
44943W        W48163  18.191   2.693   1.277 -0.0256 -0.3045 -0.2832
44944W        W48164  17.247   8.987   6.118 -0.1837  0.1352 -0.0693
44945W        W48165  17.012   6.284   3.877 -0.0805 -0.1704 -0.4418
44946W        W48166   2.703  13.224   2.350  0.1526  0.1669 -0.2715
44947W        W48167   1.746   7.846  15.978 -0.2027 -0.3404 -0.2546
44948W        W48168  18.019   0.174   6.592 -0.1096  0.0655 -0.0017
44949W        W48169  17.443   5.697  11.536 -0.2182 -0.0346  0.2109
44950W        W48170  15.412  10.535  14.706 -0.2013  0.1021 -0.3256
44951W        W48171   1.858   8.112   1.441 -0.3210  0.1585 -0.3205
44952W        W48172   8.544   6.282   2.205 -0.0893  0.2010 -0.0001
44953W        W48173  17.206  10.149  14.807  0.1592  0.4049 -0.1721
44954W        W48174  14.740   7.199  15.053 -0.1972 -0.0415 -0.1023
44955W        W48175  14.522   8.702  15.824 -0.1541 -0.0245  0.2421
44956W        W48176  16.352   6.799  16.072 -0.1663 -0.0186  0.2998
44957W        W48177   0.271  14.437   3.718  0.1837 -0.2207 -0.2533
44958W        W48178   1.780  10.919  13.630  0.1572  0.1454 -0.2557
44959W        W48179  17.851  13.649  17.089  0.1774  0.0642  0.1930
44960W        W48180  15.588  10.564   1.707 -0.1142  0.2577  0.0631
44961W        W48181   6.752  12.927  14.465 -0.1166 -0.1600 -0.0233
44962W        W48182  14.887   6.984  15.906  0.1014  0.0913 -0.1503
44963W        W48183  12.341   0.676   6.112  0.0822 -0.0013  0.0614
44964W        W48184  17.148   8.875   9.869  0.2456 -0.0479 -0.0638
44965W        W48185   0.940   9.552   3.467 -0.1512 -0.1282  0.2326
44966W        W48186   7.115   7.335  12.688 -0.0905  0.2630  0.0942
44967W        W48187   9.803   7.693  12.120  0.0047  0.1004  0.2165
44968W        W48188  15.850  16.193  14.013  0.0032  0.0936 -0.1619
44969W        W48189   2.697   6.953   0.033 -0.0544  0.3294  0.1756
44970W        W48190  14.830  10.735   1.145 -0.2678 -0.1915  0.0524
44971W        W48191  10.399  11.081  15.079 -0.1888 -0.0458 -0.1509
44972W        W48192   3.212   4.735   9.686 -0.2643  0.3421 -0.1507
44973W        W48193  10.986   2.104   4.056  0.1187  0.1060 -0.2621
44974W        W48194   1.993  10.105  16.151  0.0138 -0.1797  0.0190
44975W        W48195   0.214  12.979  17.459 -0.0981 -0.0351  0.0764
44976W        W48196  11.842  10.828   0.700  0.0189 -0.1059  0.0120
44977W        W48197   5.717  13.952   2.645 -0.0733  0.1156 -0.1774
44978W        W48198  17.245   7.442   8.310 -0.1885  0.1625  0.1168
44979W        W48199  11.048   8.301  12.189  0.0265 -0.0437 -0.1960
44980W        W48200   8.686   8.138  12.866  0.2309 -0.0566 -0.0550
44981W        W48201  17.400  14.136   5.749  0.0836  0.1342 -0.1661
44982W        W48202   8.570   5.107   1.185  0.3282 -0.3483  0.3294
44983W        W48203  11.323   4.695  14.975 -0.4269  0.1451  0.1741
44984W        W48204   5.119   3.932   1.754  0.0184  0.2069 -0.1582
44985W        W48205   6.037   9.805  15.195  0.0198  0.1768  0.0691
44986W        W48206  11.284   9.135   3.887 -0.1726 -0.0356 -0.0962
44987W        W48207  16.027  11.891   4.269  0.1684  0.1308  0.1140
44988W        W48208   6.190  11.526   2.520 -0.3694 -0.0281 -0.1792
44989W        W48209  11.352  16.252  13.857 -0.3681 -0.0934  0.2053
44990W        W48210  11.040  10.555   1.089  0.1709  0.1741  0.0100
44991W        W48211   9.122  15.888   6.491  0.1959  0.0466  0.0459
44992W        W48212  11.949   6.996  15.743 -0.0067 -0.2072  0.3157
44993W        W48213  16.869   6.412  14.996  0.0047  0.0132 -0.0408
44994W        W48214  16.687  16.657  16.815 -0.2574  0.0881 -0.0704
44995W        W48215  17.786   6.522  10.377  0.3454 -0.2095 -0.0285
44996W        W48216   7.745   7.781  16.442 -0.0365  0.0866  0.0507
44997W        W48217  16.770   6.675   6.268  0.0174  0.1614 -0.0586
44998W        W48218  16.139  12.535   1.879 -0.3910 -0.0810 -0.0136
44999W        W48219   4.805  11.193   2.695 -0.1765 -0.3003  0.2582
45000W        W48220  17.674   7.955  17.101 -0.0029 -0.1460  0.1813
45001W        W48221  16.389   6.282  16.888  0.4020  0.0575  0.3525
45002W        W48222   6.458   3.046  10.739 -0.1393  0.0312  0.1188
45003W        W48223  13.819  10.946   3.120  0.0720  0.2703 -0.2077
45004W        W48224   1.049  16.946  15.682  0.0422 -0.0040 -0.1915
45005W        W48225  15.128  12.336   2.778  0.1750 -0.2714 -0.1173
45006W        W48226   6.012   6.466   1.689 -0.0702  0.2831 -0.0006
45007W        W48227  17.413   0.378  14.905  0.5408  0.0791  0.4516
45008W        W48228  17.001   8.422   5.437  0.1009  0.1699  0.1811
45009W        W48229  17.974   1.428  12.250 -0.0001  0.0005 -0.2508
45010W        W48230   1.192   6.930   1.122  0.2483  0.0037 -0.0162
45011W        W48231   5.639  14.864   0.447  0.2730  0.3844 -0.0278
45012W        W48232  12.335  13.287   0.776  0.3888  0.1396 -0.2940
45013W        W48233  16.322   9.487   2.578  0.0911  0.0663 -0.2235
45014W        W48234  12.162  10.273  16.244  0.0665  0.2418 -0.1333
45015W        W48235   0.498   8.945  16.963 -0.0862  0.0349 -0.0958
45016W        W48236   3.470   3.805  14.218 -0.0471  0.0970 -0.1283
45017W        W48237  15.533  14.494  17.153 -0.1579  0.2623 -0.1576
45018W        W48238  10.696  11.454  16.342 -0.3028  0.0797 -0.4891
45019W        W48239   3.206   3.128  10.282 -0.1006 -0.0786  0.0764
45020W        W48240  15.915  10.267  15.617 -0.1163  0.0159  0.2557
45021W        W48241  13.180   5.592  16.787 -0.2248 -0.0047 -0.3102
45022W        W48242   9.018   6.938  14.429  0.0237 -0.1263  0.0821
45023W        W48243  11.484   9.194   4.417 -0.3411  0.0573  0.1386
45024W        W48244   6.911   8.911   4.083 -0.0966  0.3988  0.0878
45025W        W48245   1.265  10.481   4.702  0.2828  0.0459 -0.2194
45026W        W48246  15.763  12.214   0.944 -0.0506  0.0212  0.1313
45027W        W48247   5.225  14.256  12.413  0.0875 -0.0682 -0.1871
45028W        W48248  10.717   7.781   2.012 -0.0438  0.2160 -0.3059
45029W        W48249  15.255   9.670   1.133 -0.0881 -0.0153 -0.0948
45030W        W48250  13.330  11.062   1.038  0.1539 -0.0083 -0.1926
45031W        W48251  11.582   6.992  17.889 -0.3739 -0.1782  0.0292
45032W        W48252  15.295   5.986  13.608  0.2205 -0.2457  0.1044
45033W        W48253   9.112  16.897   5.413 -0.0113  0.1483 -0.1736
45034W        W48254   1.558  10.947   3.094  0.1961  0.2281 -0.3598
45035W        W48255   0.113   8.601  16.707  0.1056  0.0390 -0.1576
45036W        W48256   1.427   8.142  14.043  0.3227 -0.0992  0.0480
45037W        W48257   1.945   8.147  17.412  0.1958  0.0050 -0.1074
45038W        W48258  18.171   0.413  15.611 -0.0293 -0.1907 -0.2392
45039W        W48259   1.069   8.522  12.605  0.1146 -0.2074 -0.0892
45040W        W48260  13.728  14.212   4.112  0.0102 -0.1496  0.0023
45041W        W48261   9.899   4.437   4.036  0.1265  0.1496  0.1644
45042W        W48262  16.338  10.422   0.147  0.1482  0.0361 -0.1324
45043W        W48263   8.456   0.749   9.732  0.0929 -0.1228 -0.1310
45044W        W48264  11.730  12.719  10.630 -0.4335 -0.1097  0.1950
45045W        W48265  17.912  15.221   3.264 -0.0600  0.0322  0.1193
45046W        W48266  17.034  11.614   0.527 -0.2430  0.1836 -0.2618
45047W        W48267  13.350  12.113  10.424 -0.0828  0.2190  0.0780
45048W        W48268  17.251   6.434  13.630 -0.0468  0.0930  0.1534
45049W        W48269   6.153   8.266   0.639 -0.2849 -0.0086 -0.1390
45050W        W48270   1.889   2.501  16.112 -0.0406 -0.1573 -0.1525
45051W        W48271   1.681  12.261  15.271 -0.1698  0.2560 -0.1018
45052W        W48272   1.458  15.070  10.436  0.0940 -0.1411 -0.0267
45053W        W48273   2.006  10.213   7.470  0.2388  0.0755 -0.1076
45054W        W48274   9.269   6.911   0.675 -0.0981  0.1170 -0.0668
45055W        W48275   1.389   4.717  17.648 -0.0250 -0.0217  0.1875
45056W        W48276  17.533   8.307   5.253 -0.1088  0.0921 -0.1564
45057W        W48277   5.791  10.519  15.935 -0.1359  0.0448 -0.1776
45058W        W48278  14.917  10.559  13.797 -0.1700  0.0102 -0.0625
45059W        W48279   1.074  11.711   7.329  0.0449 -0.0684 -0.2013
45060W        W48280  17.302  10.395   0.090 -0.1223  0.1306  0.0375
45061W        W48281   0.427   6.450   2.624 -0.0052 -0.2134  0.0222
45062W        W48282  16.724  13.622   6.519 -0.3321 -0.0365  0.2365
45063W        W48283  14.630  11.579   0.605 -0.2399 -0.1497  0.3079
45064W        W48284   4.792   9.357  16.458 -0.2638  0.0503 -0.1687
45065W        W48285  16.601  17.697  17.002  0.0945  0.1712  0.1558
45066W        W48286  16.012  10.003   3.709 -0.1217 -0.0741  0.2790
45067W        W48287  14.995   5.398   1.286 -0.0671 -0.0878  0.2065
45068W        W48288   1.303  14.052   0.946 -0.1331 -0.0922 -0.4331
45069W        W48289  12.673   8.985  17.181 -0.0874 -0.0698 -0.2867
45070W        W48290  11.309  11.062  17.801 -0.1050 -0.0617  0.0398
45071W        W48291   4.592  10.082  18.015  0.1586 -0.0720 -0.2216
45072W        W48292   1.955  13.801   0.310 -0.3113  0.1172  0.1239
45073W        W48293  13.316  12.407   8.821  0.2285 -0.1892 -0.0879
45074W        W48294  10.908   1.822   9.142  0.0970 -0.0473  0.0908
45075W        W48295  10.874  16.133  12.889 -0.2227 -0.0276 -0.0007
45076W        W48296  14.157   8.019  14.302  0.0345  0.4463  0.0550
45077W        W48297  17.196  12.834   1.178  0.0728  0.0788 -0.0698
45078W        W48298  16.582   1.883  16.138 -0.0969 -0.1782  0.3431
45079W        W48299   3.121  12.146   0.353 -0.1595 -0.0576  0.2926
45080W        W48300  11.621   9.777  15.561 -0.4324 -0.0998 -0.0455
45081W        W48301   0.095   2.682  11.491  0.0589 -0.2382 -0.0782
45082W        W48302  17.611   8.538  12.708 -0.2028 -0.0602 -0.0299
45083W        W48303   8.479   9.864  16.066  0.1737  0.0036 -0.2288
45084W        W48304   2.510   9.566   1.194 -0.2641 -0.2384 -0.0801
45085W        W48305  17.333  10.669   3.436 -0.0824  0.1808  0.2311
45086W        W48306  16.168   5.015  16.320  0.1695 -0.1581  0.0122
45087W        W48307   6.791   9.202   3.065 -0.3700 -0.0617 -0.1349
45088W        W48308   0.924   7.604   1.881 -0.0373  0.0560 -0.2741
45089W        W48309  15.766   7.981  17.292  0.0512  0.3344  0.0401
45090W        W48310  11.293  11.772  14.308 -0.4867  0.0970  0.0507
45091W        W48311   1.417  10.234  17.222 -0.0748  0.1779 -0.0183
45092W        W48312  14.462  15.183   8.164 -0.0852  0.2604  0.3351
45093W        W48313   0.057   8.919  15.120  0.3474  0.2192 -0.2128
45094W        W48314   4.148   5.683  16.833 -0.0902  0.0442  0.2334
45095W        W48315   0.337   5.414   0.298  0.1489 -0.0751 -0.2327
45096W        W48316  15.520  14.186   4.080  0.0557 -0.0820 -0.1434
45097W        W48317  14.492  12.119   0.256  0.0955 -0.1672 -0.0697
45098W        W48318   9.226  13.612   1.879  0.1661  0.1842  0.0055
45099W        W48319   1.903   6.329  11.874  0.0676  0.3599 -0.1534
45100W        W48320  16.457   9.227   4.987  0.2964 -0.2563  0.0681
45101W        W48321   1.662   6.169  13.888  0.3334  0.3172  0.0605
45102W        W48322  11.575   5.686   1.456 -0.3414 -0.1159  0.2260
45103W        W48323  12.662  10.701   9.645 -0.0275 -0.1037 -0.1568
45104W        W48324   6.639   8.645  16.973 -0.1515  0.1410 -0.2495
45105W        W48325  16.304  11.697   4.593  0.1535  0.1416 -0.0068
45106W        W48326   1.748   9.639   0.623 -0.0711 -0.1428 -0.1060
45107W        W48327  12.355  10.759  16.260 -0.0884 -0.0003  0.1120
45108W        W48328  16.710   8.695   2.598 -0.1039  0.1382 -0.0208
45109W        W48329  14.125   6.438   4.933  0.1294  0.2546 -0.2762
45110W        W48330   4.300   6.090   1.348  0.2261 -0.0052 -0.0375
45111W        W48331  14.455  15.681  16.372 -0.0947 -0.0121  0.0690
45112W        W48332  15.485  12.121  15.495 -0.2097  0.0746 -0.2352
45113W        W48333   3.001   6.690  15.920  0.2415  0.0229  0.1901
45114W        W48334  12.486   4.183  13.846  0.0899  0.0057  0.0941
45115W        W48335   6.973   6.627  14.774  0.1111  0.2950  0.0813
45116W        W48336   2.216  11.735   1.446  0.2497 -0.1294  0.3976
45117W        W48337   1.238  10.177   1.125 -0.0044  0.0042  0.1550
45118W        W48338  12.568   4.529  16.638  0.3694 -0.0748  0.0167
45119W        W48339  12.177  12.331  11.212 -0.0898 -0.1236  0.1081
45120W        W48340   2.005   7.411  13.783  0.1638 -0.0304  0.2870
45121W        W48341   0.245  17.080  12.258 -0.0077  0.0308 -0.2326
45122W        W48342  10.508   9.121   1.394  0.0423  0.2304  0.1197
45123W        W48343  11.254   5.785  10.800  0.2377  0.3762  0.1927
45124W        W48344   3.750  15.564  16.915 -0.0406 -0.3189 -0.0847
45125W        W48345   9.141   7.806   3.716 -0.1822 -0.2959  0.0825
45126W        W48346  17.168  15.107  15.692  0.1538 -0.0789 -0.0690
45127W        W48347   2.886   8.068  13.635 -0.0629 -0.2075  0.1012
45128W        W48348   2.445  13.846  14.790 -0.2654  0.0636 -0.0299
45129W        W48349  17.749   7.015  13.096  0.2546  0.1757 -0.0237
45130W        W48350  10.395   9.707  15.401 -0.3129 -0.2692 -0.0841
45131W        W48351   1.387  16.622  14.794 -0.1339 -0.1266 -0.1177
45132W        W48352   1.781   8.550  17.612 -0.0863  0.2703 -0.3021
45133W        W48353   9.653  10.061   1.671  0.1840  0.0279  0.0024
45134W        W48354   0.572  13.537  13.289  0.2600  0.1521  0.0929
45135W        W48355  17.299   8.814  12.482 -0.1531  0.5509 -0.2848
45136W        W48356  14.431  12.557  16.709 -0.1357  0.1748 -0.0402
45137W        W48357   2.402   8.037  15.982 -0.1713  0.2326  0.1163
45138W        W48358   0.156   4.869   8.447  0.2916 -0.3280  0.1387
45139W        W48359   3.348   9.465  16.306 -0.2697  0.1497 -0.0043
45140W        W48360  13.766  10.018   3.861 -0.0144  0.0629 -0.4018
45141W        W48361   0.370   9.997  14.592 -0.3379  0.0675 -0.2978
45142W        W48362  17.366  10.962  14.968  0.1368  0.0122 -0.0764
45143W        W48363  16.491   6.791  17.510 -0.0334  0.2067  0.1370
45144W        W48364  12.559   6.303  16.944 -0.1384  0.0192 -0.1721
45145W        W48365  10.660   5.470   0.084 -0.0211  0.0649 -0.1241
45146W        W48366  17.594   2.647   6.727  0.0346 -0.0288  0.0124
45147W        W48367  15.011  15.389  11.549 -0.2565 -0.2634 -0.1414
45148W        W48368  10.695   7.907   5.427  0.1620 -0.1566  0.0023
45149W        W48369  17.632  11.311  15.528 -0.1089  0.3739  0.0389
45150W        W48370   1.054   5.323   7.830 -0.0777 -0.1467  0.3292
45151W        W48371  12.684  13.363  17.733  0.2343 -0.0452  0.1203
45152W        W48372   0.075  11.543  15.945  0.1579 -0.1147 -0.1278
45153W        W48373  13.662  10.526   0.406  0.0859 -0.0794  0.1800
45154W        W48374   2.165   9.652  17.055  0.3026 -0.2950 -0.1990
45155W        W48375  12.552   4.464  13.269 -0.2496 -0.1778  0.2995
45156W        W48376   0.523   7.228   9.417  0.2933 -0.4053  0.3973
45157W        W48377  10.698   6.793   1.157 -0.2698  0.1866  0.0934
45158W        W48378   3.623  14.943   0.480 -0.1609 -0.0942  0.0493
45159W        W48379  16.293  11.606   0.181 -0.2442 -0.0851 -0.0547
45160W        W48380   8.841   8.124   4.885 -0.1310  0.0489  0.0452
45161W        W48381  17.235   4.876   1.259 -0.0337 -0.0702 -0.0015
45162W        W48382  14.129   4.072  16.758 -0.1158 -0.0828 -0.0986
45163W        W48383   4.080  12.125  15.275  0.1165 -0.0628 -0.0888
45164W        W48384  12.806  17.906  14.453 -0.1777  0.2328  0.1797
45165W        W48385  16.539  11.534  16.566 -0.0358  0.0355  0.2384
45166W        W48386   6.803  10.319  15.738  0.0016  0.2708  0.1713
45167W        W48387  12.895   1.395  13.777 -0.2359 -0.1171  0.2668
45168W        W48388   3.788   9.513  13.701 -0.1058 -0.3602  0.1569
45169W        W48389  16.137  14.541   0.208 -0.0228 -0.2166  0.0378
45170W        W48390   1.035  12.524   0.100 -0.0887 -0.2319  0.1311
45171W        W48391   0.809   5.011  17.766 -0.0548  0.0445 -0.2209
45172W        W48392  11.887   4.094  11.275 -0.0280 -0.0886 -0.0832
45173W        W48393   5.410   6.263  14.882  0.2850 -0.2135  0.0920
45174W        W48394   4.152   5.711  14.319  0.3492 -0.1079  0.1041
45175W        W48395   9.919   9.713   4.812 -0.0545 -0.2119  0.1100
45176W        W48396   3.329   7.377   4.998  0.0290  0.1558 -0.2646
45177W        W48397  15.533   9.779  16.377 -0.2250  0.3118 -0.1727
45178W        W48398  10.894   9.538  17.536  0.0579  0.1764 -0.5203
45179W        W48399  12.785  11.504  16.713  0.0991 -0.0810  0.1479
45180W        W48400  10.009   6.552  17.169 -0.0934  0.3649 -0.1092
45181W        W48401  10.489   8.122  16.166  0.1241 -0.3335 -0.0249
45182W        W48402   0.050   6.125   1.330 -0.2409 -0.1326 -0.1180
45183W        W48403   2.883  16.283  16.487 -0.3416  0.0024  0.0902
45184W        W48404  11.449   7.584  17.304  0.2339 -0.0050 -0.4416
45185W        W48405  14.820   8.905  13.845 -0.3371  0.0854 -0.0956
45186W        W48406   4.011  18.104   9.595 -0.4176 -0.4034 -0.0132
45187W        W48407   8.838   9.190   7.784  0.3023  0.0248 -0.4621
45188W        W48408   0.874  16.626  16.056  0.0140 -0.1477  0.2065
45189W        W48409  13.559  13.588   4.799 -0.1037 -0.1823 -0.0394
45190W        W48410  11.700   8.252  16.708 -0.2015 -0.3627  0.0561
45191W        W48411  10.686  10.357  10.705 -0.1495  0.3841  0.0717
45192W        W48412   1.098   9.109  15.097  0.1766  0.1176 -0.0958
45193W        W48413   8.792   5.920  14.486 -0.0360  0.0864  0.0166
45194W        W48414   1.866  15.975  14.357 -0.1595 -0.0261 -0.0980
45195W        W48415  14.363  14.712  17.647 -0.1294  0.0054  0.0855
45196W        W48416  13.139  14.869   9.894 -0.2276  0.3412 -0.0069
45197W        W48417   6.342  10.378  13.159  0.0324  0.0041 -0.0344
45198W        W48418   5.673   0.970   0.272 -0.0380  0.1142 -0.1409
45199W        W48419  16.619   8.915  13.649 -0.2153 -0.1608 -0.1842
45200W        W48420  11.718   5.847  16.302  0.0253  0.0520 -0.0701
45201W        W48421  13.641  17.865   3.340 -0.0599 -0.0361 -0.2261
45202W        W48422  10.651   2.156   1.943  0.4522  0.0990  0.0434
45203W        W48423  13.262  13.201  13.864  0.6433 -0.0083 -0.1734
45204W        W48424   2.613   7.476  17.282  0.0891 -0.2818 -0.2714
45205W        W48425   0.238  10.035   9.462 -0.1916  0.1356 -0.0080
45206W        W48426  18.235   5.249  12.404 -0.0706 -0.1978 -0.2749
45207W        W48427  10.451  11.862  16.446 -0.1891  0.1771  0.2041
45208W        W48428   5.160   1.427   4.959  0.1922 -0.0592  0.1715
45209W        W48429  12.127   4.758   1.515 -0.2442 -0.1979 -0.2126
45210W        W48430  10.360  15.083  17.626 -0.0979 -0.0935 -0.0876
45211W        W48431  10.248   7.434  12.237  0.1595  0.4895 -0.1057
45212W        W48432   5.504   1.061  13.346  0.1139 -0.3785  0.0223
45213W        W48433  14.860   8.629   0.606  0.1655 -0.1500  0.3482
45214W        W48434   7.469  17.590   0.432  0.0462  0.0022 -0.2011
45215W        W48435   1.668  13.105  18.044 -0.2892 -0.3013 -0.0306
45216W        W48436   0.851  16.707  12.890  0.0220 -0.2657  0.2706
45217W        W48437  16.113  10.838  16.178  0.0232 -0.2322  0.1278
45218W        W48438   5.771   7.937  16.362  0.0926 -0.0410 -0.0327
45219W        W48439  14.348   7.878  15.738 -0.2001  0.0251 -0.0168
45220W        W48440   2.575   5.952  12.736 -0.2889 -0.2158  0.1294
45221W        W48441   5.665  10.574  15.087  0.0804 -0.0372 -0.0911
45222W        W48442   9.127   6.864   4.200  0.0509  0.1929  0.0244
45223W        W48443   5.880  10.768  11.955 -0.0776 -0.0002  0.0316
45224W        W48444   2.076   4.015   2.857  0.1713 -0.3892  0.2044
45225W        W48445  16.415  13.492  16.066 -0.0240 -0.1959 -0.2977
45226W        W48446   1.687   5.924  15.487 -0.2811 -0.1732  0.1250
45227W        W48447  11.407   5.157   6.478  0.1400 -0.0947  0.0262
45228W        W48448  15.458  15.456   8.275  0.2792 -0.2308 -0.0374
45229W        W48449   9.438   5.571  13.328  0.0054 -0.0741  0.0812
45230W        W48450  10.616   7.057   2.811 -0.3407  0.2754 -0.4421
45231W        W48451  10.335  15.018  13.771 -0.0060 -0.1586  0.0482
45232W        W48452   2.476  10.156   2.092 -0.2585  0.1410 -0.0157
45233W        W48453   5.961  12.246   0.766  0.0093 -0.1502 -0.4183
45234W        W48454  15.263  15.578   4.293  0.2145  0.0343 -0.3368
45235W        W48455  17.855  15.461   6.437  0.0578  0.1400 -0.0580
45236W        W48456   9.375  11.348  10.090  0.1342  0.0545 -0.0375
45237W        W48457  14.476   0.941   3.311  0.1044  0.1679 -0.0065
45238W        W48458  13.470  11.161  18.061 -0.0762  0.3679  0.1619
45239W        W48459  12.807   7.179   1.451 -0.3441  0.0798  0.0546
45240W        W48460   6.596   7.487   4.398  0.3888 -0.3624  0.1816
45241W        W48461   1.320   7.758   5.136  0.1181  0.2225 -0.0197
45242W        W48462   6.556  11.453   4.003 -0.0914 -0.2264 -0.0179
45243W        W48463  18.072   8.352  17.075 -0.0256  0.1150 -0.1390
45244W        W48464   9.257   5.739  16.328  0.2200  0.0609  0.0177
45245W        W48465  17.778  13.652   9.274  0.0546 -0.1811 -0.0382
45246W        W48466  11.563  14.253   0.520  0.0943 -0.0764  0.0971
45247W        W48467  11.599   2.775  16.754  0.1168  0.1622  0.1480
45248W        W48468  17.287   8.597   7.281 -0.0385 -0.2158 -0.1028
45249W        W48469   0.722   9.295   3.121  0.2207 -0.1086  0.0268
45250W        W48470  14.360  14.366   3.212  0.3632  0.1595 -0.0836
45251W        W48471  14.174   3.697  14.689  0.0991  0.1550 -0.0565
45252W        W48472  18.144   1.179   1.035 -0.0361 -0.0810  0.0537
45253W        W48473  15.088   0.656   5.754  0.0475 -0.0080 -0.0787
45254W        W48474  17.166  12.768   3.108  0.2629  0.1153 -0.0727
45255W        W48475  17.776  10.430   4.109  0.0188  0.5923 -0.2888
45256W        W48476  18.017  15.935   5.218 -0.1751  0.0717  0.1433
45257W        W48477   2.564  12.023   0.141 -0.0345  0.2356 -0.0020
45258W        W48478   4.070   6.042   7.543  0.1692 -0.2633 -0.1095
45259W        W48479   0.111   7.525   3.126  0.1467  0.0685 -0.0842
45260W        W48480  15.662   5.704  17.770 -0.0494 -0.1373  0.1466
45261W        W48481   0.845  14.489   2.895 -0.0702  0.2557  0.0375
45262W        W48482  17.089  14.065   0.644  0.0811 -0.0775  0.0198
45263W        W48483  16.871   7.300   9.933  0.1196 -0.1716  0.4035
45264W        W48484   7.576  13.751   6.444  0.0140  0.0687 -0.1594
45265W        W48485   1.278  14.131   1.883 -0.0101 -0.1515  0.0679
45266W        W48486  10.574   7.074   5.380  0.1626  0.0067  0.0325
45267W        W48487  13.730  17.071   0.186 -0.0182  0.0098  0.2201
45268W        W48488   0.967   3.710  11.259 -0.1170  0.1020 -0.3447
45269W        W48489   0.589  16.190  15.246 -0.2097  0.1827 -0.3364
45270W        W48490   3.040   3.245  16.679 -0.0036 -0.0548 -0.1366
45271W        W48491  13.061   1.724  17.881  0.1549  0.2505  0.1280
45272W        W48492   2.201  16.148  17.588 -0.1869  0.1296 -0.1538
45273W        W48493  16.406   2.014   5.608 -0.2913 -0.2762 -0.0236
45274W        W48494   1.439  17.574   3.757  0.0479 -0.1416  0.0472
45275W        W48495   1.337   7.240   0.393  0.0677 -0.2152  0.0607
45276W        W48496   0.420  11.944   0.388 -0.0496 -0.0902  0.0669
45277W        W48497  16.763  12.458   3.144 -0.0568 -0.1553  0.2257
45278W        W48498   0.962  17.250  16.084  0.0954  0.0062 -0.3759
45279W        W48499  10.672   0.557  12.783 -0.4957  0.1813  0.0551
45280W        W48500  17.636  10.011  18.200  0.0102  0.0067 -0.0028
45281W        W48501  12.240  15.573   0.027  0.1207 -0.1231  0.3969
45282W        W48502   0.286  13.764  16.663  0.0727  0.1452  0.1537
45283W        W48503   6.365  14.978  15.409 -0.2965  0.0652 -0.2120
45284W        W48504  13.211  13.943  15.630  0.1371  0.0033 -0.2038
45285W        W48505   0.427  10.848  13.991 -0.3693 -0.2481  0.0420
45286W        W48506   0.276   6.128  12.379 -0.1480 -0.1570  0.3738
45287W        W48507  17.502  13.858   4.617  0.2318 -0.2635  0.3515
45288W        W48508   0.495  13.178   2.488  0.0281  0.1317  0.0542
45289W        W48509   9.339  14.188   2.806  0.0583 -0.2102 -0.0549
45290W        W48510   9.150   7.561   1.092 -0.0566  0.2784  0.1422
45291W        W48511  14.516   6.720   6.537  0.2623  0.5223  0.0105
45292W        W48512  12.220  15.493   3.592 -0.1526  0.1232  0.1406
45293W        W48513  15.111   9.523   3.415 -0.0861 -0.1595  0.1421
45294W        W48514   3.398  10.402   8.146 -0.2237 -0.0386  0.0131
45295W        W48515  14.845   0.248   1.625 -0.0816 -0.0178 -0.1032
45296W        W48516  17.187  11.276   0.111  0.3773 -0.1375 -0.5391
45297W        W48517  15.068  10.773   2.174  0.1201  0.2935  0.2735
45298W        W48518   9.634  15.402   9.375 -0.0666 -0.3051  0.0650
45299W        W48519   0.143  10.992  16.217 -0.0266 -0.1074  0.0746
45300W        W48520  13.937   0.612   5.044  0.4988  0.2605  0.0753
45301W        W48521   2.792  11.397  17.730 -0.0443 -0.4893  0.1555
45302W        W48522  17.963  10.925   9.907  0.5305 -0.2339  0.0507
45303W        W48523  14.088   7.611   1.013  0.0559 -0.1636 -0.1791
45304W        W48524  15.065   9.170   3.772  0.2180 -0.0989  0.2322
45305W        W48525  14.383  10.386   6.295  0.0490 -0.0728 -0.1625
45306W        W48526  10.781  12.514   3.095  0.1362  0.1809 -0.2086
45307W        W48527  11.873  16.761  18.033 -0.0805 -0.0204  0.0224
45308W        W48528  11.190   9.335   3.317 -0.2822  0.0475  0.0542
45309W        W48529  16.050   9.302   1.540  0.2399 -0.0740 -0.1884
45310W        W48530   1.705   9.025   4.295 -0.2071  0.1041 -0.2801
45311W        W48531  17.122   4.148  16.075 -0.0496 -0.0156  0.1470
45312W        W48532  10.326   7.210   3.219  0.3441 -0.0783  0.1828
45313W        W48533   0.582  15.771  16.536 -0.2636 -0.1646 -0.5806
45314W        W48534   1.548   2.620  15.222  0.1770  0.0245  0.2563
45315W        W48535   0.552  14.046   6.999 -0.1097 -0.2216  0.3574
45316W        W48536   1.862  15.908   3.407  0.1957 -0.1505  0.0919
45317W        W48537   0.813  11.463  16.014  0.0535 -0.2176 -0.3250
45318W        W48538  16.403   1.156  17.816  0.2753  0.4292  0.1284
45319W        W48539  16.760  13.676   8.321 -0.0296  0.2863  0.0801
45320W        W48540   0.496  14.640  15.240 -0.0572  0.0563  0.1124
45321W        W48541   7.162  13.907   6.124  0.0134  0.3661  0.3622
45322W        W48542   0.186  12.014   2.684 -0.0462  0.1396 -0.3627
45323W        W48543   2.587  13.955  10.955  0.1650 -0.1862  0.1289
45324W        W48544  16.766   4.409  17.575 -0.1363  0.0501  0.0247
45325W        W48545   1.954  15.967   7.936 -0.0391 -0.0029 -0.2348
45326W        W48546  13.108   6.673   2.703  0.0331 -0.0812  0.0159
45327W        W48547   3.160   8.720   4.369 -0.1336  0.0539 -0.2734
45328W        W48548   6.858   9.493  17.496  0.1584  0.2336  0.0739
45329W        W48549   0.317  10.943   0.665 -0.1145  0.3960 -0.0556
45330W        W48550   3.167  12.214  18.121  0.0104 -0.1926  0.0280
45331W        W48551   2.093  16.201   4.791 -0.0080 -0.0031  0.0487
45332W        W48552   6.837   8.225   4.855 -0.0476  0.1999 -0.1283
45333W        W48553   2.057  14.701   5.720 -0.3143  0.1368 -0.2903
45334W        W48554   0.689  11.641   4.852  0.2441  0.1662 -0.0566
45335W        W48555  13.029  16.273  16.143 -0.0705  0.1135  0.0829
45336W        W48556   6.158  15.267  13.137  0.0744  0.1104  0.0297
45337W        W48557   1.604   7.828  14.379 -0.3551  0.1341  0.1955
45338W        W48558  14.056  11.785   0.306 -0.0623 -0.0775  0.1361
45339W        W48559  12.655  11.565   5.832 -0.0658 -0.1772  0.0478
45340W        W48560  16.268  14.412  16.390  0.2213  0.0425 -0.0957
45341W        W48561   4.714   8.568   5.297 -0.0782  0.0931  0.1410
45342W        W48562  15.880  15.813   3.926  0.3705  0.0976  0.2930
45343W        W48563   7.953  12.639  14.244  0.2060 -0.0767 -0.0789
45344W        W48564  15.573  15.606   5.214 -0.3834  0.0678 -0.0371
45345W        W48565  13.504  16.616   4.760  0.1578  0.1721 -0.2912
45346W        W48566  10.288  13.194   4.682  0.4514 -0.0476  0.0315
45347W        W48567   9.728  13.642  13.726  0.0602  0.0657 -0.3440
45348W        W48568  16.142  10.936  15.343  0.1138 -0.0913  0.0802
45349W        W48569  15.118  11.928   2.092  0.0607 -0.2884  0.2328
45350W        W48570  15.302  15.323   0.925  0.0859 -0.2014  0.4049
45351W        W48571   1.338   0.034  15.303  0.2825 -0.2599  0.3199
45352W        W48572   4.447   8.443   7.310 -0.0290 -0.1317  0.0934
45353W        W48573   5.615   5.112  17.864 -0.1042  0.0860 -0.1654
45354W        W48574  16.520  10.001   3.770  0.0292  0.0434 -0.0129
45355W        W48575   1.301  12.550   2.874  0.1758 -0.2551 -0.1083
45356W        W48576   3.190   8.921   6.290  0.0903 -0.3747 -0.0592
45357W        W48577  14.984   8.899   2.278  0.1939  0.0801  0.0854
45358W        W48578  10.460   9.118  12.235  0.0952 -0.5147  0.0905
45359W        W48579  15.046   5.793   3.678 -0.0940  0.1955  0.0479
45360W        W48580  10.435  10.712   2.172  0.3002 -0.0693  0.1016
45361W        W48581  15.878  14.135  17.042 -0.0235 -0.1928 -0.0897
45362W        W48582   3.094   8.075   0.488 -0.1267  0.0892  0.2230
45363W        W48583  14.303  11.952   2.339 -0.0301 -0.1707 -0.0906
45364W        W48584  17.970  11.056   5.799  0.0238 -0.1873 -0.1710
45365W        W48585   9.973  12.692   1.045  0.1757 -0.2405  0.0174
45366W        W48586  14.679  11.954  15.648 -0.1484  0.1471 -0.0081
45367W        W48587  15.287  16.833   4.400  0.3656  0.0688 -0.3138
45368W        W48588  11.637   2.328  15.705  0.0092  0.0520 -0.0387
45369W        W48589  18.071  13.096   0.915  0.1399  0.0215  0.0773
45370W        W48590   0.322  16.049   1.424  0.0786  0.2394  0.2807
45371W        W48591  14.139   9.489   5.308 -0.1298  0.0080 -0.1734
45372W        W48592  14.420   7.766   2.777 -0.2499  0.1830 -0.0159
45373W        W48593   0.718  10.269   1.357 -0.0479  0.0137  0.2677
45374W        W48594   2.513   8.824   1.489 -0.0803  0.0975 -0.0247
45375W        W48595  17.704  14.004   0.095  0.0121 -0.1722 -0.1265
45376W        W48596   5.752   6.273   0.834 -0.1842  0.0197 -0.2140
45377W        W48597   2.018  14.136   1.586 -0.1790 -0.0619 -0.0461
45378W        W48598  16.724  16.514   2.824 -0.2699 -0.1644 -0.0719
45379W        W48599  13.652   8.551   8.643  0.1894  0.0949  0.1102
45380W        W48600   0.030  15.319   9.411 -0.2276 -0.0087  0.0971
45381W        W48601  16.944   9.364   4.077  0.0864 -0.2504  0.0226
45382W        W48602   5.943   7.300   1.439  0.1452 -0.0043 -0.1140
45383W        W48603  17.598  10.446   4.600 -0.2101  0.3686 -0.1129
45384W        W48604  17.887   4.981   2.051  0.1357  0.0978 -0.2233
45385W        W48605   0.098  14.017  15.706  0.1164 -0.1568 -0.2822
45386W        W48606   0.652   0.311   6.243  0.0212  0.0031 -0.3983
45387W        W48607  16.022  14.855  14.389 -0.0157  0.0257  0.1896
45388W        W48608   3.576  11.401  18.067 -0.0258  0.0724 -0.2393
45389W        W48609  17.625  14.574  13.418 -0.1408 -0.1753  0.1996
45390W        W48610  15.220  17.135   3.937 -0.1544 -0.2134  0.0808
45391W        W48611   0.931   9.948   0.672 -0.1512 -0.0603  0.3614
45392W        W48612  12.493  12.485   6.959  0.1556  0.3645  0.0127
45393W        W48613  17.503  11.420  16.173 -0.0346  0.0793 -0.0619
45394W        W48614  13.763  11.960  18.116  0.0893 -0.1866  0.0883
45395W        W48615  16.562  12.889  17.598 -0.1859  0.2573 -0.0776
45396W        W48616  15.056  11.130   4.152 -0.1291  0.0886  0.2160
45397W        W48617   2.246  12.301   4.389  0.0664  0.0350  0.1502
45398W        W48618  17.210  14.572   1.821 -0.1171 -0.1894  0.0629
45399W        W48619  15.629   0.812   5.753 -0.0756 -0.0164 -0.1417
45400W        W48620  17.115  14.787   3.734  0.3074 -0.1130  0.0754
45401W        W48621  17.916  14.718   1.310 -0.0220 -0.0892  0.1584
45402W        W48622   7.158  14.614  10.332 -0.2946  0.3563  0.2765
45403W        W48623  17.535  16.053   0.614 -0.1466  0.0328 -0.0582
45404W        W48624  12.746  14.097  15.563  0.4045  0.1704  0.0213
45405W        W48625  17.499  14.928   5.635 -0.1312 -0.1556 -0.1681
45406W        W48626   1.190  11.800  16.234  0.1484  0.1540  0.1312
45407W        W48627   7.102  12.148   2.363  0.3565  0.2273 -0.2044
45408W        W48628   7.682   0.866  17.175  0.0806 -0.3566  0.0976
45409W        W48629  15.081  10.373  17.695  0.1209  0.1590  0.0132
45410W        W48630  14.462   6.950   4.364 -0.1190 -0.0645 -0.0440
45411W        W48631  16.303  17.964   0.103  0.1311 -0.3615 -0.1807
45412W        W48632  14.345   8.982   5.428  0.2460 -0.0568 -0.0949
45413W        W48633   0.167  17.764   2.550  0.3310  0.0025 -0.1787
45414W        W48634  11.380  12.691  15.009  0.0460  0.0858 -0.0529
45415W        W48635   9.396  15.145   2.004  0.2472 -0.1380  0.0278
45416W        W48636  13.596  15.074   6.189 -0.2548 -0.0878 -0.1815
45417W        W48637  11.059  12.518   0.935  0.2559  0.5674  0.2531
45418W        W48638  15.670  18.012   0.288  0.4143  0.0347 -0.2714
45419W        W48639  13.389  12.042   0.125  0.0170  0.2747 -0.3583
45420W        W48640  17.040   0.201  14.631  0.0990  0.0846 -0.0275
45421W        W48641  18.102  11.296   5.081  0.1115 -0.0368 -0.3097
45422W        W48642   7.527   8.095  15.100  0.1936  0.0812 -0.0077
45423W        W48643  11.258  12.803   6.839 -0.1062 -0.0068  0.0659
45424W        W48644  17.328  10.626   6.092  0.0488  0.1942  0.1826
45425W        W48645   0.049  10.335   6.215 -0.2219  0.2674  0.0935
45426W        W48646  15.002   9.637   4.999  0.2733 -0.0223  0.1030
45427W        W48647   6.830  14.880   4.968 -0.4147  0.0693 -0.0006
45428W        W48648  14.038   9.886  15.791  0.3616 -0.3933  0.0216
45429W        W48649   2.638  16.065  17.892 -0.1432  0.2655  0.2099
45430W        W48650  17.749  11.277  10.159 -0.1012 -0.0902  0.1286
45431W        W48651  16.164  15.304   4.476  0.0161 -0.1528  0.3039
45432W        W48652  13.277  13.396   5.414 -0.2357 -0.3572  0.2211
45433W        W48653  16.550  14.819  14.790  0.0421  0.0769  0.1056
45434W        W48654   8.663  13.327  10.783  0.0121 -0.0527 -0.1537
45435W        W48655  10.688   9.348  17.051 -0.0170 -0.1345  0.0338
45436W        W48656  15.801  13.457  17.648 -0.0709 -0.2301 -0.2809
45437W        W48657   5.615  11.245   3.689 -0.0269  0.1975  0.1117
45438W        W48658  11.721  14.982   2.254  0.1155 -0.0921 -0.4390
45439W        W48659  15.490  12.525   4.145 -0.1483 -0.2963  0.2148
45440W        W48660  14.155  12.562  17.499  0.2100  0.1370  0.0404
45441W        W48661  11.951  13.185   5.684  0.0551  0.0666 -0.0009
45442W        W48662  15.704  14.636   6.381 -0.1331  0.0859 -0.4456
45443W        W48663  17.665   7.764  17.647  0.0398 -0.1989 -0.0727
45444W        W48664  17.286   2.839   1.031 -0.2332  0.5237 -0.0552
45445W        W48665   2.961   0.166   0.738 -0.2898 -0.1864 -0.1153
45446W        W48666  12.561  11.709   3.070  0.0846  0.2760 -0.1845
45447W        W48667  11.390  17.817  17.265  0.1250 -0.1558 -0.0135
45448W        W48668   3.691   9.164   1.908 -0.1436 -0.1824  0.0000
45449W        W48669   5.352   9.694   2.983  0.0600  0.0663  0.1396
45450W        W48670  15.372  14.699   4.296 -0.0243  0.0351  0.2914
45451W        W48671   2.600  15.870   5.249  0.3319 -0.2993 -0.1416
45452W        W48672   2.273   3.270  14.744 -0.0451 -0.2486  0.0494
45453W        W48673   1.111   8.219   5.966 -0.0520  0.3639 -0.2293
45454W        W48674  15.062  12.556   6.936  0.1940 -0.2322  0.1408
45455W        W48675   5.722  10.680  12.532 -0.0684 -0.0122  0.0297
45456W        W48676  12.646  13.662   0.820 -0.1036 -0.1178  0.2663
45457W        W48677  13.583  11.060  10.904 -0.1110 -0.0272 -0.2722
45458W        W48678   1.182  11.143  14.638 -0.2178 -0.3429  0.0422
45459W        W48679  17.168   1.926  11.222 -0.0719  0.1661  0.0262
45460W        W48680  16.797  15.468   1.369  0.1488  0.0888 -0.0422
45461W        W48681  16.911  18.169  17.714 -0.0928  0.0713 -0.2713
45462W        W48682  14.512  13.710  16.865 -0.3685  0.2492  0.0102
45463W        W48683  16.566  12.019   1.242 -0.0130  0.1243 -0.1560
45464W        W48684  15.117  15.500   0.501  0.1120  0.3744 -0.4260
45465W        W48685   0.122   8.578   2.522  0.1634  0.1658  0.0913
45466W        W48686  14.284  11.652   5.813 -0.3071 -0.2750  0.2949
45467W        W48687   9.047  13.838   0.712  0.2965 -0.0710  0.0896
45468W        W48688  11.736  11.863  14.573 -0.0542 -0.2325  0.0872
45469W        W48689   1.101   7.403   2.875  0.2847  0.0999  0.1547
45470W        W48690  16.616  12.500  13.787 -0.2493  0.0979 -0.1160
45471W        W48691  12.686  10.636   5.197 -0.0619  0.0807  0.0408
45472W        W48692   6.222  11.829   3.318  0.1016  0.3116 -0.1069
45473W        W48693  12.684  15.684  17.926  0.1279  0.0260 -0.0067
45474W        W48694   2.086  15.690   8.623  0.0321  0.2411  0.0544
45475W        W48695  15.937   6.700   7.674 -0.1669  0.3359  0.0563
45476W        W48696  17.860  14.434  15.074 -0.2703 -0.0683  0.2349
45477W        W48697  12.519  10.919  16.692  0.1599 -0.2527  0.0764
45478W        W48698   7.804   1.843  16.382 -0.2396  0.1056  0.1334
45479W        W48699  17.126  12.535   4.226 -0.2826  0.1916  0.0979
45480W        W48700  18.141  13.720   1.635  0.0093 -0.0577 -0.0940
45481W        W48701   1.009  11.980  18.111  0.1475  0.1848  0.1486
45482W        W48702   1.930   8.170   4.549  0.1136 -0.0647  0.2033
45483W        W48703   0.450  17.697  13.593  0.0479 -0.4025 -0.1321
45484W        W48704   6.019  13.097   2.675 -0.1732  0.0343  0.2434
45485W        W48705  14.536  16.583   2.395 -0.1576  0.0953 -0.1426
45486W        W48706  10.525   6.618   3.194 -0.0024 -0.2309 -0.2184
45487W        W48707  17.877  13.739   3.620  0.2430  0.0481  0.1375
45488W        W48708   0.983  10.704   0.193 -0.0640 -0.0535 -0.3684
45489W        W48709  16.679  17.481   2.744 -0.0420 -0.0282  0.0713
45490W        W48710  13.018  13.285  11.203  0.0548  0.0965 -0.0770
45491W        W48711  15.519  11.201   3.262 -0.1537 -0.0590 -0.1335
45492W        W48712  13.796  16.898   3.705 -0.0152  0.2516  0.0833
45493W        W48713  16.182   0.496   1.597 -0.1746  0.1912 -0.3729
45494W        W48714  14.947  11.859  17.729 -0.3109  0.0396 -0.0999
45495W        W48715  15.574   9.052   6.164  0.1159  0.2644 -0.0663
45496W        W48716  15.911  10.971  17.854 -0.1142  0.3074 -0.3002
45497W        W48717  15.584   9.633   0.243  0.1859  0.1995  0.3563
45498W        W48718  17.150  13.787  17.671  0.0745  0.2578 -0.2540
45499W        W48719  11.618   5.805   5.594 -0.0943  0.1185 -0.1162
45500W        W48720  16.147  15.786   4.409  0.0749  0.3433  0.0364
45501W        W48721   0.720   0.139  14.362  0.0952 -0.1093 -0.3492
45502W        W48722   3.737   6.116  13.159 -0.0448  0.1716 -0.3856
45503W        W48723  14.415  16.186   1.394 -0.2525  0.3798 -0.0970
45504W        W48724  12.039  15.712  10.664 -0.1288  0.0023  0.4029
45505W        W48725  15.947  13.907  17.465  0.0181 -0.1071  0.1666
45506W        W48726   0.512  12.761   6.655 -0.0787  0.1491  0.0088
45507W        W48727  16.205  15.256  17.001 -0.2705  0.0960  0.2341
45508W        W48728   4.809  16.842   0.702 -0.2503  0.1097  0.1354
45509W        W48729   8.170   9.270  15.939  0.0428  0.0635  0.1272
45510W        W48730   3.990  17.154  14.864  0.1265  0.1282 -0.0998
45511W        W48731  10.258  13.995  17.462 -0.4560 -0.1260 -0.1256
45512W        W48732   9.888   8.653   1.731  0.1941  0.1071  0.0648
45513W        W48733  14.332   8.243   5.993  0.1621 -0.1059 -0.3029
45514W        W48734  12.603  12.846   0.809 -0.2768  0.0797 -0.0158
45515W        W48735   6.325   8.586   0.878 -0.3195  0.0351 -0.3820
45516W        W48736  15.223  15.721   6.002 -0.1971 -0.0645 -0.0076
45517W        W48737  11.716  10.518  16.494 -0.1639 -0.0998 -0.0568
45518W        W48738   1.136  13.320  18.140  0.1575  0.1071 -0.1127
45519W        W48739   6.287   5.008   6.284  0.2855 -0.1683 -0.0874
45520W        W48740  17.617  12.013   3.403 -0.0454 -0.2114 -0.0457
45521W        W48741   0.422  14.458  14.102 -0.0953 -0.0232 -0.0019
45522W        W48742  12.703  13.143  18.216  0.1240  0.1697  0.1696
45523W        W48743   6.256  10.646   3.410  0.1511  0.5364  0.1288
45524W        W48744   3.398   9.691   3.096  0.2741  0.2044 -0.0630
45525W        W48745   1.923  13.625   7.427 -0.0885  0.1297  0.2047
45526W        W48746   6.485  14.224   5.513  0.2176 -0.0631  0.0116
45527W        W48747  17.532   9.474   9.970 -0.0687 -0.1190  0.4540
45528W        W48748  17.448   5.087  17.338 -0.2308 -0.1109 -0.1024
45529W        W48749  12.784  13.897   3.790  0.0358  0.0235 -0.1135
45530W        W48750  10.937  11.829   0.518 -0.1952 -0.0442  0.1986
45531W        W48751   1.694  15.928  11.162 -0.4006 -0.1543 -0.2675
45532W        W48752   7.185  12.227   5.482 -0.2915  0.1903 -0.0541
45533W        W48753   9.108   9.596   4.116 -0.2367  0.1331 -0.2055
45534W        W48754  16.033  11.962  15.858  0.2000  0.1858  0.0484
45535W        W48755   2.357  14.983   4.945 -0.1662  0.3316  0.0745
45536W        W48756  14.871   5.693  13.903  0.0479  0.0379 -0.1772
45537W        W48757   6.262   9.142   3.963  0.0887  0.1984  0.1567
45538W        W48758  11.580  13.631   5.049  0.3467 -0.2783 -0.1621
45539W        W48759   0.015  12.720   8.167 -0.0516 -0.0262 -0.0340
45540W        W48760  14.452  10.417  14.865  0.2041  0.1570  0.1614
45541W        W48761  11.527  13.412   4.615  0.4325  0.1721  0.2798
45542W        W48762  16.037   9.597   9.316  0.1805 -0.4094  0.2201
45543W        W48763   2.527  13.679  18.153 -0.3284  0.0343  0.1927
45544W        W48764   3.457   8.676   1.302  0.1733  0.2318  0.1578
45545W        W48765   0.741   1.838   3.057 -0.0631 -0.0714  0.0139
45546W        W48766   3.313   2.125   1.097  0.1944  0.1630 -0.1391
45547W        W48767  14.059  11.244  13.675  0.0048 -0.0095  0.1431
45548W        W48768  17.235  17.269   2.386  0.0809  0.0916  0.0821
45549W        W48769   3.489  14.423   0.560 -0.0511 -0.0088 -0.1304
45550W        W48770  11.160  10.135   3.993  0.1935  0.0263  0.3507
45551W        W48771   2.286   8.826   4.079  0.5646  0.1229  0.0165
45552W        W48772  12.824   8.462   2.227  0.0523 -0.2526  0.1265
45553W        W48773  15.404  12.316  17.819  0.2259 -0.0948  0.2287
45554W        W48774  10.867  16.830   3.306 -0.2388 -0.0085 -0.0361
45555W        W48775  12.298   7.062   4.422  0.1043 -0.2378  0.1049
45556W        W48776  15.945   0.278   3.028  0.4089  0.0100 -0.2092
45557W        W48777  13.373  11.157   3.277  0.1059  0.0000 -0.1219
45558W        W48778   1.349  12.081   8.832 -0.4033 -0.0170  0.0951
45559W        W48779   2.959  14.234   9.174  0.1898  0.0506 -0.0405
45560W        W48780   0.011  13.777   4.725 -0.1377  0.2008 -0.2474
45561W        W48781   1.238  11.691   0.498 -0.1005 -0.0318  0.0840
45562W        W48782   9.265  12.975   0.908 -0.0296 -0.0738 -0.2280
45563W        W48783   0.096  15.879  12.189 -0.0458  0.3436 -0.0301
45564W        W48784  10.667   2.333   4.371  0.0377 -0.0594 -0.2131
45565W        W48785  10.325   8.996   6.889  0.2561  0.2200 -0.2274
45566W        W48786  18.171  10.542  16.061  0.3327  0.0481  0.1780
45567W        W48787   9.571   1.281  13.442 -0.6507  0.0974  0.1648
45568W        W48788   4.289  12.660   2.060 -0.1013 -0.2047 -0.3260
45569W        W48789   1.271   9.558  13.939  0.0646  0.2010 -0.2532
45570W        W48790  10.527  14.339  15.414 -0.0906  0.1424  0.1581
45571W        W48791   7.525  16.777  11.367 -0.0850  0.1309  0.2340
45572W        W48792  10.105  14.049   0.503 -0.1838  0.0783 -0.0149
45573W        W48793   5.543   7.556   1.201 -0.3556 -0.0817 -0.1289
45574W        W48794  11.146  13.244   0.706 -0.0783 -0.1501  0.3491
45575W        W48795   0.738  13.563   2.762  0.1769 -0.1534 -0.2807
45576W        W48796   7.785   0.567  13.196 -0.1859 -0.0290  0.0064
45577W        W48797   2.707  12.212   9.703  0.0613  0.2686 -0.0831
45578W        W48798  15.870  16.704   5.349 -0.0898 -0.6573 -0.4139
45579W        W48799  11.814  12.028  10.609 -0.1391 -0.3746 -0.1124
45580W        W48800  17.696  10.931   3.829  0.1569 -0.1264 -0.0081
45581W        W48801  16.856  15.622  17.712 -0.1028  0.2445 -0.0362
45582W        W48802  17.474  10.014   4.920 -0.2069 -0.0141 -0.0596
45583W        W48803   0.179  11.158   1.595 -0.2347 -0.1250  0.1242
45584W        W48804   1.459   9.905  18.066  0.0293  0.3021 -0.0378
45585W        W48805  17.166  13.660   2.026 -0.2260 -0.2415  0.0745
45586W        W48806  13.058   1.608   2.622 -0.1470 -0.2614  0.0120
45587W        W48807  17.188  15.063   0.654  0.0113  0.1590 -0.1333
45588W        W48808  17.756   8.156   2.776  0.1094 -0.1237 -0.1888
45589W        W48809  12.023   2.943   2.541 -0.0835 -0.1549 -0.0372
45590W        W48810   3.491   0.502  10.604 -0.0841 -0.0235 -0.3662
45591W        W48811   1.215  18.221  14.538  0.2029 -0.1349 -0.1968
45592W        W48812   0.237  11.522  17.827  0.0044 -0.2124 -0.0484
45593W        W48813  16.720  16.669  15.464  0.3837  0.1724  0.2880
45594W        W48814   0.324  17.096   0.103 -0.2802  0.1574 -0.1332
45595W        W48815   7.449   5.401   3.542 -0.0155 -0.0129  0.0115
45596W        W48816   9.314  10.698  14.838  0.0007 -0.0740  0.0979
45597W        W48817  10.722  16.251  11.338 -0.2309 -0.0079 -0.0314
45598W        W48818   3.084   0.626  17.807  0.1767 -0.2216 -0.2714
45599W        W48819   9.938  15.453  17.741  0.0194  0.0243 -0.1217
45600W        W48820  12.448  15.375   1.839 -0.0513  0.1312  0.0510
45601W        W48821  14.017  15.707  10.829  0.2110 -0.0218  0.0932
45602W        W48822  10.311  14.615   2.384  0.2408 -0.1275  0.2472
45603W        W48823  15.330  15.275   2.784 -0.3263  0.1308 -0.1558
45604W        W48824   1.955  13.629   3.677  0.1550  0.1343  0.0872
45605W        W48825  17.539   7.851   7.916  0.2431 -0.1294  0.0649
45606W        W48826   3.069   3.661  10.496  0.4118 -0.2425  0.0191
45607W        W48827   5.141   9.274   4.802 -0.3231  0.0771 -0.2533
45608W        W48828   6.965  14.263  15.418 -0.1935 -0.2077  0.2393
45609W        W48829   1.271  11.747   5.570 -0.2084 -0.0284  0.3557
45610W        W48830   8.099  15.702   4.370 -0.2250 -0.3059 -0.1811
45611W        W48831   2.801   2.282   0.491 -0.0553 -0.0315  0.0586
45612W        W48832   2.329  15.604   2.627  0.1930  0.0616  0.1317
45613W        W48833   0.679  10.649  16.426  0.1032  0.3194 -0.0208
45614W        W48834   0.992  16.318   4.836 -0.1414  0.1961  0.0702
45615W        W48835  18.018  14.911   6.451  0.2999  0.2680  0.2116
45616W        W48836   3.693   4.176  10.374 -0.0573  0.1555  0.1233
45617W        W48837   4.575  17.195   2.853  0.3160  0.1910  0.0141
45618W        W48838  13.171  13.556   6.959 -0.1785 -0.0714 -0.1294
45619W        W48839   2.028  14.736   2.249  0.1762 -0.2890  0.0386
45620W        W48840  16.573   5.541   1.955 -0.0593 -0.0056 -0.1751
45621W        W48841  13.807  11.965  12.493 -0.0479  0.1723  0.1440
45622W        W48842  13.819  13.546   4.385  0.2793  0.3074  0.2556
45623W        W48843   8.894   0.729  17.682  0.1902  0.3431  0.0693
45624W        W48844  17.004  11.189   1.383  0.1787 -0.1009  0.2404
45625W        W48845  15.277  15.451  16.975 -0.2254  0.0209 -0.0467
45626W        W48846  18.270  11.573   2.803 -0.0591  0.5182  0.1938
45627W        W48847  12.742  17.212   0.274  0.0283 -0.1458  0.0525
45628W        W48848  17.722  15.701  15.604  0.0076  0.1949  0.0206
45629W        W48849  14.181  14.131   0.486  0.0939 -0.0170 -0.2389
45630W        W48850   3.836  13.187  15.747 -0.0351  0.0667 -0.1303
45631W        W48851   2.937  16.163   5.188  0.1975 -0.2857 -0.0540
45632W        W48852  15.753  15.381  17.960 -0.4246  0.3411 -0.0124
45633W        W48853   2.810  15.389  10.668  0.0067 -0.2958 -0.2340
45634W        W48854  16.057  15.801  12.325  0.0694  0.2396 -0.0827
45635W        W48855   2.027   4.158   3.394  0.0555  0.3436  0.0916
45636W        W48856  16.364  14.322   0.584 -0.1508 -0.1279 -0.1764
45637W        W48857   1.305  16.346   2.623 -0.1752 -0.2340 -0.0019
45638W        W48858   7.628  10.908  11.459 -0.1686  0.0474  0.0852
45639W        W48859  11.897  10.527   5.802 -0.2522 -0.0112  0.1417
45640W        W48860  11.011  17.709   8.752  0.0575  0.1947 -0.2488
45641W        W48861  13.852  16.813   2.850  0.0850 -0.2293  0.1674
45642W        W48862  13.807  15.637   0.846 -0.0919 -0.1364  0.0950
45643W        W48863   2.080   7.884   8.320  0.0429 -0.0183  0.0925
45644W        W48864   1.219  14.096   9.407  0.0659 -0.3462  0.1416
45645W        W48865  14.197  13.446   5.744 -0.0132  0.0526 -0.0213
45646W        W48866   9.110  12.030   4.622  0.1737  0.2346  0.1891
45647W        W48867   9.949  14.703   7.671 -0.1204 -0.1506  0.0226
45648W        W48868  10.101  15.691   8.126  0.1523 -0.2029 -0.1007
45649W        W48869  10.071  13.292   6.952 -0.3189 -0.0110  0.2531
45650W        W48870  13.287  14.362   8.687 -0.1625  0.2413 -0.0570
45651W        W48871  17.719  12.809   5.521  0.1331 -0.2332  0.1659
45652W        W48872  17.578  14.259   4.314 -0.1089  0.0196 -0.0841
45653W        W48873   3.873   7.918   5.331  0.1452  0.2051 -0.1145
45654W        W48874  15.481  13.107   3.186  0.2254  0.1146 -0.2484
45655W        W48875   3.103  13.870   5.300  0.1359 -0.0759  0.1113
45656W        W48876  18.006  16.117   9.703  0.2230 -0.0219 -0.2228
45657W        W48877  12.760  15.084  17.153 -0.0865 -0.0736 -0.1686
45658W        W48878  13.489  17.540   1.938 -0.0781  0.2814  0.1165
45659W        W48879  13.146  12.747   9.725  0.3329  0.2996 -0.1978
45660W        W48880  13.994   0.108  11.078 -0.0174 -0.0030 -0.1504
45661W        W48881   1.379   4.380  10.547  0.0270  0.0282 -0.5997
45662W        W48882   2.618   3.691   8.706  0.3270 -0.1953 -0.1422
45663W        W48883  15.926  12.337   6.978 -0.2463  0.0446  0.0867
45664W        W48884   4.185  11.291   6.484  0.0255 -0.0414  0.0370
45665W        W48885   4.479  11.863   3.384  0.0551 -0.3331 -0.1579
45666W        W48886  12.747  11.273  13.475  0.3224 -0.1355 -0.0616
45667W        W48887  12.982   1.630  15.807 -0.0043 -0.0811  0.0515
45668W        W48888  14.283   6.876   1.473  0.0724 -0.1551 -0.2633
45669W        W48889  16.528  12.991   0.237 -0.1333 -0.3860 -0.1532
45670W        W48890  13.274  13.873   8.480 -0.1126  0.2454 -0.0086
45671W        W48891  12.286  10.240   5.907  0.1515 -0.0700  0.0223
45672W        W48892  14.632  16.413  12.359 -0.0398 -0.1305  0.0537
45673W        W48893  16.983  12.136   7.391 -0.0452  0.0068  0.3154
45674W        W48894   2.370   9.228  18.109 -0.0481  0.1629 -0.0977
45675W        W48895  14.714  13.026  16.826  0.3059  0.1987  0.3600
45676W        W48896   0.769  16.051   1.126 -0.0603 -0.2920  0.3366
45677W        W48897  13.662  11.634   9.076  0.0751  0.0256  0.1400
45678W        W48898  17.980  15.470   7.530 -0.1692 -0.0842 -0.6395
45679W        W48899  10.164   3.012   9.540 -0.0830  0.0655 -0.1941
45680W        W48900  16.957  11.906   3.136  0.1760 -0.0227  0.2539
45681W        W48901  11.904  12.057   1.254  0.2374 -0.1734 -0.0421
45682W        W48902  15.271  17.124  10.139  0.0193 -0.1262 -0.0650
45683W        W48903  17.506  15.143   8.768  0.1216  0.3223 -0.3237
45684W        W48904  14.891   8.737  17.800 -0.2134  0.0968  0.1959
45685W        W48905   4.571  11.254   4.038  0.0673 -0.1476  0.0203
45686W        W48906  12.200   9.739   4.968 -0.4745  0.1381  0.0304
45687W        W48907  12.845  17.695  12.257  0.0112  0.3893 -0.1905
45688W        W48908   3.381  10.530  10.072  0.0617 -0.0893 -0.2416
45689W        W48909  16.386  10.419   6.681  0.1510  0.1319  0.1105
45690W        W48910   1.410   9.019   1.472 -0.1090  0.0691  0.0766
45691W        W48911  17.653  16.482   3.265  0.2238 -0.2656  0.2117
45692W        W48912  12.242  12.047   3.348  0.0609  0.2200 -0.1895
45693W        W48913   1.066   8.166   6.561  0.2226  0.3818 -0.0389
45694W        W48914   1.872  15.399  15.391 -0.1585  0.0458 -0.0215
45695W        W48915   0.105  12.846   5.193  0.1317  0.0442  0.1622
45696W        W48916  12.056   7.651   7.673  0.2626  0.0749  0.2255
45697W        W48917   0.120  12.772   6.273  0.1365 -0.0949 -0.1311
45698W        W48918   3.411   8.118   5.629 -0.2997 -0.1420  0.1144
45699W        W48919   8.878  11.973   8.812 -0.1271 -0.1440 -0.2209
45700W        W48920  16.051  12.359   8.863 -0.2465 -0.0534 -0.0877
45701W        W48921  13.815   1.932   9.302  0.0312  0.0328 -0.1985
45702W        W48922   0.093  12.421   9.008  0.0529 -0.2736 -0.1030
45703W        W48923   7.051  11.381   7.051  0.2521 -0.1234 -0.2105
45704W        W48924   0.241  14.023   8.246 -0.3085 -0.3161  0.1646
45705W        W48925  15.479   6.396   5.267  0.0625 -0.0653 -0.0876
45706W        W48926  16.622  17.747   8.789  0.1768 -0.1841 -0.2592
45707W        W48927   6.097   9.072   5.744  0.2763  0.3021 -0.1591
45708W        W48928   5.989  12.187   3.576  0.1966 -0.0301  0.2900
45709W        W48929  16.070  14.053  10.183 -0.2878  0.0419  0.2152
45710W        W48930   2.692  10.135  13.333 -0.1410 -0.2214  0.1038
45711W        W48931  15.598  17.404  11.016  0.3043 -0.1814 -0.2580
45712W        W48932  18.103  10.098   1.594  0.2599 -0.0467  0.0723
45713W        W48933  17.089  15.947  12.353 -0.1423 -0.2262  0.0897
45714W        W48934  17.656   9.718   4.544  0.0763 -0.2676  0.3268
45715W        W48935   4.497  10.150   5.628  0.0591 -0.4158  0.3506
45716W        W48936  17.970  15.655  15.152 -0.2955 -0.0295 -0.0834
45717W        W48937   1.799  17.640   2.622  0.0627 -0.1859 -0.0919
45718W        W48938   0.544   4.904   1.708  0.0352 -0.1717  0.2281
45719W        W48939  13.861   9.246   5.742  0.1689  0.0498 -0.0366
45720W        W48940   2.514   3.338   2.947 -0.0384  0.0623  0.0576
45721W        W48941  16.899   6.229   7.276  0.0578 -0.2173  0.1574
45722W        W48942  11.148   0.027   4.431  0.1648  0.1289 -0.3030
45723W        W48943  15.785  14.432   4.976  0.1197 -0.1171 -0.1789
45724W        W48944   4.078  13.976   5.034  0.2772  0.0937 -0.0709
45725W        W48945   3.497   1.450   3.591 -0.1887 -0.0070  0.1423
45726W        W48946  14.180   8.888   2.352 -0.0969  0.0456 -0.2854
45727W        W48947  17.782  14.683  16.398 -0.0111 -0.0244  0.2257
45728W        W48948   4.279  18.141   2.372  0.2064 -0.2517 -0.3458
45729W        W48949   4.228  12.596   7.469 -0.0609 -0.0625  0.0006
45730W        W48950   2.875  13.610  11.958 -0.0705 -0.0071 -0.2591
45731W        W48951   0.411  18.155  16.223 -0.1829  0.0924 -0.3270
45732W        W48952  15.831  14.924   4.238 -0.1393  0.1182 -0.2359
45733W        W48953   2.918  16.902  16.605  0.0750 -0.0294 -0.1239
45734W        W48954  13.032  13.214   2.049  0.1048  0.1511 -0.1719
45735W        W48955   2.873  10.328   5.574 -0.0628  0.1711  0.1410
45736W        W48956   7.928  17.056   2.038  0.0308  0.1623  0.3964
45737W        W48957  13.717  13.612   2.159  0.1398  0.2077 -0.2045
45738W        W48958   1.965  14.330   3.527  0.0409 -0.0777 -0.3498
45739W        W48959   3.071  13.460  11.496 -0.0875  0.1986 -0.2011
45740W        W48960   7.778   5.936   8.205  0.2201 -0.0653 -0.0284
45741W        W48961   2.744  15.872   3.252 -0.0761  0.1961 -0.0092
45742W        W48962  14.717  11.677   2.165 -0.1213 -0.0495 -0.3212
45743W        W48963   8.528  17.451   4.237 -0.0932  0.2016 -0.0285
45744W        W48964   7.400   9.458   9.687 -0.0933  0.1319 -0.2038
45745W        W48965  17.766  16.558   8.805 -0.1550  0.1595  0.2310
45746W        W48966   5.341  13.578   5.382  0.1403 -0.1868 -0.0339
45747W        W48967   3.082  15.127   5.388  0.2159 -0.1746 -0.0591
45748W        W48968  15.011  15.964   7.609  0.4785  0.0666  0.0053
45749W        W48969  13.322  13.339   6.007 -0.2171  0.1759 -0.0456
45750W        W48970  16.546  10.325   2.349  0.0807  0.1135  0.0998
45751W        W48971  17.271  12.717  17.982  0.1752 -0.0733 -0.0610
45752W        W48972  18.124   8.477   4.755  0.1765  0.0887  0.2800
45753W        W48973  11.407  14.772   4.066 -0.2787  0.0130 -0.1944
45754W        W48974  10.852  11.418   1.632  0.2125  0.3363  0.0180
45755W        W48975  10.730  11.252   2.239 -0.2932 -0.0037 -0.0325
45756W        W48976  14.010  11.949  14.261 -0.1356  0.1202  0.0752
45757W        W48977  16.620   9.352   0.925  0.0957 -0.0843  0.0581
45758W        W48978  17.015  15.180   3.023 -0.0424 -0.0484  0.0390
45759W        W48979  15.085   9.615  17.763 -0.2713 -0.0822  0.0807
45760W        W48980  12.046  11.704   7.691 -0.1204  0.1369 -0.1019
45761W        W48981   5.861   8.423   2.319  0.2133  0.1494  0.0958
45762W        W48982  11.923  13.387   7.253 -0.0866 -0.3724 -0.4531
45763W        W48983  12.401   2.801   4.531 -0.1387  0.3645 -0.0951
45764W        W48984  17.266  13.100   5.515 -0.3908 -0.0158 -0.2113
45765W        W48985  12.357  12.399   5.348 -0.0739  0.2464  0.1782
45766W        W48986  14.235   0.631   7.522 -0.0799  0.0607 -0.3143
45767W        W48987  10.959   1.180  16.216 -0.1586 -0.1081  0.0827
45768W        W48988  13.882  15.819   4.870  0.4120  0.0438  0.0005
45769W        W48989   6.922   2.264   4.417  0.2424 -0.0355 -0.2967
45770W        W48990   1.275  12.213  11.543  0.2354 -0.1194  0.1712
45771W        W48991   1.705  12.284   9.241 -0.1134 -0.0914 -0.0145
45772W        W48992  12.937  14.801   5.858 -0.0413 -0.1328 -0.1020
45773W        W48993   4.646  10.511  11.330 -0.2311 -0.0650  0.0906
45774W        W48994  13.472  12.155   5.953 -0.2496 -0.0077  0.0716
45775W        W48995  15.905   8.943   5.821  0.0967  0.1123  0.2337
45776W        W48996  14.145  14.342   6.573 -0.1523 -0.1538 -0.1421
45777W        W48997  12.246   3.187   0.350  0.0704 -0.1650 -0.1755
45778W        W48998   3.883   5.191  10.133 -0.0159 -0.0333  0.0815
45779W        W48999   0.105   1.848   7.895 -0.0460  0.1790  0.1445
45780W        W49000  11.049  13.776   6.870  0.0425  0.1207 -0.1317
45781W        W49001  14.592  10.348   1.424  0.3018 -0.2209  0.0013
45782W        W49002   3.104  17.607  18.201 -0.1618 -0.1867 -0.0385
45783W        W49003  14.228  14.874   9.050 -0.3838 -0.1479 -0.0291
45784W        W49004  17.975  11.599   4.533  0.1500  0.0397 -0.2402
45785W        W49005   6.239  16.776   0.252 -0.0390 -0.0138  0.1328
45786W        W49006  14.364   9.304   4.196 -0.1104  0.0974  0.2188
45787W        W49007  17.483  10.591   9.887 -0.1228 -0.0781 -0.2560
45788W        W49008  15.071   8.888   9.343  0.1112 -0.0228 -0.1286
45789W        W49009   0.635  12.566  13.045 -0.2624  0.2015 -0.1399
45790W        W49010   8.397   7.719   2.637  0.2042 -0.0679 -0.2726
45791W        W49011   1.517   1.625   1.786  0.2462 -0.2126 -0.2075
45792W        W49012  14.102  15.322   2.779 -0.0035  0.0133 -0.3404
45793W        W49013  17.924   8.443   2.343 -0.2072  0.1864 -0.3105
45794W        W49014  10.200  17.890  14.712 -0.0298 -0.1421  0.0150
45795W        W49015   0.456  16.740   1.948  0.1414 -0.0084 -0.0879
45796W        W49016  14.829  14.161  10.251 -0.0908 -0.1374 -0.0954
45797W        W49017   0.870   8.430   7.397 -0.0901  0.0653 -0.0871
45798W        W49018  16.151  17.807   6.551  0.1287  0.0738 -0.2307
45799W        W49019   3.105  11.486   0.385  0.1143  0.1801 -0.0533
45800W        W49020  16.109  12.863   1.491  0.1059 -0.0566  0.1930
45801W        W49021  15.693  15.923  11.873 -0.1321 -0.2933  0.1087
45802W        W49022  13.403  14.407   5.274 -0.2560  0.0810  0.0810
45803W        W49023  14.210  15.607   6.659  0.0720  0.2440  0.1437
45804W        W49024  17.781  15.848   2.627  0.0554  0.0857 -0.1687
45805W        W49025  12.974   1.959   4.949 -0.0826  0.1006 -0.0271
45806W        W49026   8.193  10.770   2.740 -0.1578  0.0471 -0.3052
45807W        W49027   2.320  15.460   7.308  0.2987 -0.0011  0.0775
45808W        W49028   8.595  10.450   2.372  0.2007  0.2622 -0.1723
45809W        W49029  10.999  15.211   0.848 -0.3641  0.2340  0.2498
45810W        W49030   3.691   2.437   7.273 -0.3757 -0.1210 -0.0753
45811W        W49031   5.404  13.552   6.574  0.1189 -0.3060 -0.0732
45812W        W49032  15.172  12.359   6.037 -0.0499 -0.2907 -0.2183
45813W        W49033   6.233  16.858   5.397 -0.1405  0.1628  0.0283
45814W        W49034  12.613  12.469  10.494 -0.1907 -0.1298  0.0247
45815W        W49035  17.831  17.842   6.862  0.1267  0.0333  0.1003
45816W        W49036  14.782   8.330  10.940  0.0096  0.1992  0.4849
45817W        W49037   3.130  15.831  11.288  0.6268 -0.1725 -0.1815
45818W        W49038  15.213   9.771   9.580  0.0859 -0.0390 -0.1555
45819W        W49039  14.805   7.430   2.766  0.1405 -0.0804  0.0069
45820W        W49040   8.793  15.787   1.444 -0.0065 -0.0963 -0.0386
45821W        W49041  14.972   7.858   2.998  0.0250 -0.0417 -0.0289
45822W        W49042  17.301   2.513   6.126 -0.1447  0.2272 -0.2459
45823W        W49043   8.091   9.569   4.560  0.0715  0.0973 -0.0854
45824W        W49044  15.594   8.611   5.878 -0.0966 -0.0278  0.1028
45825W        W49045  12.166   9.956   7.816 -0.3502  0.0172  0.0272
45826W        W49046  14.115  15.116  12.040 -0.0066 -0.0281  0.1763
45827W        W49047  14.650  11.980   3.327  0.2119  0.1156  0.0148
45828W        W49048  14.411   9.276   5.867 -0.2066 -0.1517 -0.0571
45829W        W49049  13.949  17.513   7.266  0.2840  0.0576  0.0089
45830W        W49050  16.002  16.082   7.181 -0.0907  0.2063 -0.0352
45831W        W49051  13.367  17.966   4.464  0.0481 -0.0083  0.1691
45832W        W49052   7.992  15.340   2.112 -0.0671  0.0905  0.0456
45833W        W49053   8.600  15.898  15.162  0.1906  0.1922 -0.0796
45834W        W49054  16.443  11.272  11.716  0.0026 -0.0744 -0.1707
45835W        W49055   0.786   6.955   2.851 -0.3519  0.1691  0.0563
45836W        W49056   0.337  14.942   6.649  0.0749  0.2026  0.1714
45837W        W49057  15.331  14.657   4.845  0.0459 -0.0998 -0.3773
45838W        W49058   2.330  11.785   8.183  0.0306  0.2253  0.2209
45839W        W49059  15.798  11.036   8.494  0.0342  0.1186  0.1265
45840W        W49060  14.178  17.505  10.518 -0.0114 -0.0766 -0.3674
45841W        W49061  14.391  16.194  15.753 -0.0426  0.0864 -0.1006
45842W        W49062  17.259  12.575   5.727  0.0810  0.1889 -0.1842
45843W        W49063   3.170  15.085   6.350 -0.1416 -0.1092 -0.0870
45844W        W49064   9.132   0.805   6.556  0.0619  0.1754 -0.1432
45845W        W49065   0.158   6.739   6.201 -0.0067 -0.1383  0.1040
45846W        W49066   4.179  10.868   6.720  0.0943 -0.1269  0.1787
45847W        W49067  14.013  16.590   4.650  0.0452  0.0333 -0.2031
45848W        W49068  13.370  14.769  12.965  0.1132  0.4151 -0.1119
45849W        W49069   4.864  11.552   3.675 -0.1424 -0.2572  0.2311
45850W        W49070  16.492  10.861  10.988 -0.0868 -0.3273 -0.0769
45851W        W49071  17.532   0.268   7.458 -0.0140 -0.1048 -0.1445
45852W        W49072   0.047  14.122   5.620 -0.2381 -0.2857  0.2805
45853W        W49073  18.138  12.459   2.677 -0.3633 -0.3884 -0.0916
45854W        W49074  17.861  14.250  12.565 -0.1175  0.0547 -0.2667
45855W        W49075  12.383   9.222   2.928 -0.1266 -0.0949  0.0993
45856W        W49076   0.052   7.086  12.398  0.1587  0.0665  0.0077
45857W        W49077  13.850   9.771   5.769  0.1975  0.0063  0.3359
45858W        W49078  17.834  14.849  15.384 -0.0658  0.2699 -0.0328
45859W        W49079  14.976  12.750  10.777 -0.2146 -0.0378 -0.0901
45860W        W49080   0.703  14.030   4.177  0.0054 -0.2315 -0.3352
45861W        W49081  13.863  17.287   1.692  0.2197 -0.2636  0.0579
45862W        W49082   0.424   8.079  11.322  0.2968  0.2386 -0.0590
45863W        W49083   1.292  13.860   3.580  0.0953  0.1985  0.0174
45864W        W49084  14.540  15.964   3.762  0.1613 -0.0956 -0.0704
45865W        W49085   1.133   9.953   2.545 -0.3779 -0.0032 -0.1555
45866W        W49086  17.755  16.084   6.300 -0.0199  0.0305 -0.0236
45867W        W49087  13.627   3.333   2.513 -0.2638 -0.1981  0.0107
45868W        W49088  17.070  16.876  10.471 -0.0331 -0.1867 -0.1821
45869W        W49089   6.193  12.435   7.452  0.0684 -0.0725 -0.0885
45870W        W49090  15.229   0.722  17.181  0.0156  0.1533 -0.0315
45871W        W49091   2.571  10.121   7.432 -0.0149  0.1508  0.2907
45872W        W49092  14.739  12.752   9.346  0.0320 -0.1345  0.1514
45873W        W49093  16.093  12.643   6.611 -0.1147  0.3853  0.0422
45874W        W49094  14.842  18.084  11.525 -0.0147  0.0122  0.1024
45875W        W49095  17.206   6.837   6.338 -0.1128 -0.0591  0.2172
45876W        W49096  11.327  13.639  10.864 -0.0161  0.0132  0.2457
45877W        W49097   1.068  17.301  13.580  0.0203  0.1987 -0.0776
45878W        W49098   1.168  14.050   4.547  0.0738 -0.2690 -0.2056
45879W        W49099  16.546   6.673   4.818 -0.2459  0.3187 -0.0343
45880W        W49100  16.381  12.696   7.698  0.0237 -0.0772  0.0179
45881W        W49101  14.619   6.718   8.387 -0.0219  0.0795  0.2922
45882W        W49102  12.231  15.786   2.120 -0.0673  0.1956  0.2739
45883W        W49103  11.213  14.879   4.821 -0.1123  0.2505  0.0103
45884W        W49104   3.020   2.370   1.881  0.2159 -0.4394  0.0948
45885W        W49105  15.100   6.542   1.325  0.1422  0.0323 -0.0585
45886W        W49106   5.944  16.385  11.665 -0.0924  0.1038  0.2076
45887W        W49107  17.718  13.146   7.606  0.0601 -0.4480  0.0473
45888W        W49108   1.354   9.876   4.259  0.2356 -0.0065 -0.0182
45889W        W49109   0.082   0.019   2.461  0.0048  0.1376 -0.0111
45890W        W49110   6.912   0.958   4.874 -0.4436 -0.1466  0.0272
45891W        W49111   9.827  12.852  12.279 -0.1527  0.1775  0.0252
45892W        W49112  12.520  14.103  15.109  0.0706 -0.0677  0.2043
45893W        W49113   2.924  13.767  10.063 -0.3537 -0.0962 -0.2297
45894W        W49114  12.758  13.250   2.603  0.1515 -0.3118  0.2440
45895W        W49115  15.660  13.033   0.490 -0.1398 -0.1489 -0.0071
45896W        W49116  15.849   3.230  11.575 -0.2395 -0.1518 -0.1730
45897W        W49117  11.718  10.849   3.793  0.2454 -0.3173  0.1474
45898W        W49118  18.223   7.502  12.549  0.1359  0.2511  0.0600
45899W        W49119  16.352  12.985   5.777  0.1895  0.1871 -0.0968
45900W        W49120   1.849  12.369   6.582  0.1087 -0.2706 -0.0123
45901W        W49121  10.340  13.005   2.539  0.1493  0.0830  0.3395
45902W        W49122  12.228  14.675  18.121 -0.0908 -0.1138  0.2807
45903W        W49123   1.596   0.040   5.438 -0.2174  0.1221 -0.0308
45904W        W49124   2.709  11.609  16.307 -0.2046  0.0785 -0.1924
45905W        W49125  11.021  14.626   4.400  0.1512  0.4477 -0.1458
45906W        W49126  16.955  18.132   2.244  0.0072  0.1060  0.1982
45907W        W49127  11.772  15.339   3.826 -0.1077  0.0855  0.3531
45908W        W49128  17.875   9.836   7.973  0.0660  0.0769 -0.3258
45909W        W49129  13.525   3.408   4.111 -0.1527  0.2350  0.0139
45910W        W49130  15.727   4.395   3.376  0.0104  0.2977 -0.2541
45911W        W49131  17.657   1.887   2.390 -0.0892 -0.2069  0.4685
45912W        W49132   7.092   0.232   3.636 -0.0371  0.1014  0.3171
45913W        W49133   4.594  12.232   2.869 -0.1457 -0.1556  0.0006
45914W        W49134   3.540  15.237   5.008 -0.1361  0.1057 -0.1821
45915W        W49135  16.035   4.301   7.240 -0.1531  0.2457  0.4770
45916W        W49136   1.759  11.231   8.956  0.1500  0.0157  0.1810
45917W        W49137  17.316   2.200   4.632  0.0423  0.0471 -0.3692
45918W        W49138  15.860   8.736  11.482  0.0498 -0.1832 -0.2502
45919W        W49139  12.859   1.819   4.450 -0.2587  0.3995 -0.1228
45920W        W49140   4.776  10.617  10.851 -0.0640  0.0403 -0.1408
45921W        W49141  15.565  11.305   8.122 -0.0823  0.2684 -0.1441
45922W        W49142   0.990  11.828  11.337  0.1555 -0.0708 -0.0368
45923W        W49143   0.819   7.707   6.618  0.4632  0.1684 -0.0783
45924W        W49144  15.654  13.364   4.115  0.0106  0.2199 -0.0732
45925W        W49145  14.973  14.434   1.652 -0.0200  0.1967 -0.1623
45926W        W49146   0.149  11.975  16.417  0.0569  0.0275  0.2131
45927W        W49147  11.171  17.899   9.654  0.1939 -0.0299  0.2587
45928W        W49148   4.109   9.961   1.812 -0.1946 -0.2517  0.0951
45929W        W49149   4.985  15.927  12.052 -0.1395  0.1218 -0.0336
45930W        W49150   0.720  10.870   4.228  0.0402 -0.0120  0.0694
45931W        W49151   8.080   1.405  16.240  0.0306  0.1802 -0.0332
45932W        W49152   3.261  11.458   5.472 -0.1594  0.1722 -0.0109
45933W        W49153  14.562  14.518   9.200 -0.0918  0.0029  0.0956
45934W        W49154  11.336  12.854   2.400 -0.0974  0.1538  0.1049
45935W        W49155  16.937  14.352  17.883 -0.1708 -0.0024 -0.1026
45936W        W49156  15.208   7.079   3.882 -0.0498  0.0101  0.1660
45937W        W49157  15.948  13.339   6.015  0.0875 -0.1462  0.2235
45938W        W49158   4.386  12.507   7.985 -0.1471  0.0756  0.0382
45939W        W49159  13.366   9.861   5.970 -0.0648  0.2064  0.0469
45940W        W49160  18.097   0.241   4.330  0.1090  0.1656 -0.0685
45941W        W49161   3.053  12.071   1.329 -0.0851  0.2541  0.0878
45942W        W49162   1.255  12.301   3.492  0.2542 -0.1978 -0.2517
45943W        W49163   0.758   8.136  10.965  0.4120  0.0683  0.1264
45944W        W49164   0.544  10.712   7.478  0.0981 -0.2208  0.0446
45945W        W49165   4.125  16.083   5.375  0.1573  0.2273 -0.1141
45946W        W49166   3.624   9.972   2.260 -0.1147  0.1690  0.0678
45947W        W49167  13.340  15.875  11.295  0.1082 -0.0022  0.2470
45948W        W49168   2.938  11.560   4.307  0.0886 -0.0867 -0.3351
45949W        W49169  15.297   8.548   5.371 -0.0001 -0.1104  0.2734
45950W        W49170   0.119  17.390   9.618  0.3145  0.0796  0.1400
45951W        W49171   1.966  17.663   7.878  0.1067  0.1252 -0.1628
45952W        W49172  15.720  16.887   9.328 -0.1977 -0.1814  0.1566
45953W        W49173  16.463  14.891   6.055 -0.1181 -0.0864 -0.0414
45954W        W49174  14.996  13.772   5.948 -0.0661 -0.2255 -0.5238
45955W        W49175   2.147   2.811   9.650  0.1734  0.1926 -0.0134
45956W        W49176   8.222   9.031   9.855  0.0748  0.0097  0.0396
45957W        W49177  15.934  13.994  11.789  0.0249 -0.1971  0.3159
45958W        W49178  17.127   6.323   3.422  0.0474  0.1646  0.3610
45959W        W49179   1.750  13.102   7.214 -0.3001  0.0844 -0.1811
45960W        W49180   0.324  14.158   9.182 -0.0870 -0.2328 -0.1313
45961W        W49181   0.512  15.666  17.579  0.0309  0.2180  0.1353
45962W        W49182   1.575  15.823   7.633 -0.0900  0.2802  0.0323
45963W        W49183   2.820  13.317   4.083  0.0320  0.0026  0.0528
45964W        W49184  15.482   8.122   2.276  0.3610 -0.0545  0.4537
45965W        W49185  14.148  12.611   0.308 -0.2325  0.0421  0.0132
45966W        W49186   3.517   9.135   5.632  0.1489 -0.0903  0.4350
45967W        W49187  15.175  11.538  11.986  0.1227 -0.1759  0.0182
45968W        W49188   7.727  14.620   8.457 -0.0163 -0.3522  0.2990
45969W        W49189  15.828  18.166   5.719  0.1491 -0.0915 -0.0511
45970W        W49190   9.446  15.896  14.000 -0.0491  0.0710  0.0369
45971W        W49191  10.164  12.134   3.606 -0.1245 -0.0775 -0.0108
45972W        W49192  13.491  18.041   7.773 -0.1315  0.0302 -0.2748
45973W        W49193   1.153  13.280  17.235 -0.1596 -0.1958  0.2147
45974W        W49194  14.547  12.862  17.298  0.0623 -0.0313 -0.1075
45975W        W49195  11.842  10.780   1.501 -0.0579  0.0020  0.0093
45976W        W49196   1.757  14.821   3.535 -0.0703  0.0481  0.0215
45977W        W49197  15.906  18.093   2.195 -0.0419 -0.0000  0.2078
45978W        W49198   5.009   0.438  17.341  0.2195 -0.1452 -0.1586
45979W        W49199  13.800  14.618   8.800 -0.2949  0.0606 -0.0000
45980W        W49200   4.154  10.839   9.743  0.1873 -0.0971  0.2301
45981W        W49201  16.366  11.706  10.271 -0.0726  0.2919  0.1029
45982W        W49202  12.037  10.149   9.674  0.0523 -0.1110 -0.0977
45983W        W49203   1.656  10.769   4.639 -0.1089 -0.1623  0.2925
45984W        W49204   9.333  10.119   6.917  0.1648  0.4086 -0.0816
45985W        W49205   0.872  14.868   6.458 -0.0014  0.2805 -0.1669
45986W        W49206  11.530   8.957   3.404  0.3271  0.3418 -0.2152
45987W        W49207  16.651  10.624   7.642 -0.3487  0.0253 -0.2114
45988W        W49208  15.860   6.825   8.638 -0.0154  0.0165 -0.1159
45989W        W49209  13.032  10.130   5.115 -0.2278  0.2449  0.1124
45990W        W49210   2.432  11.805  16.996  0.4052  0.0503  0.0197
45991W        W49211  16.647  17.562  10.982 -0.0407 -0.1239 -0.1147
45992W        W49212  15.145  12.396  18.227 -0.2600 -0.3048  0.0623
45993W        W49213   0.864   9.143   8.526  0.2035 -0.1338  0.0100
45994W        W49214   2.016   7.525   2.439  0.0915  0.0989 -0.1865
45995W        W49215   2.841  15.749  16.475  0.0820  0.3118  0.0744
45996W        W49216   9.602   9.617  16.733  0.3034 -0.1853  0.3727
45997W        W49217  13.387  17.208   2.881 -0.0084 -0.2095  0.0553
45998W        W49218   2.668  13.703  11.485 -0.1384 -0.1022  0.1464
45999W        W49219   2.014   0.020  11.341 -0.1223  0.0902  0.0019
46000W        W49220  16.238   8.527  12.942 -0.0936  0.1301  0.0168
46001W        W49221   0.363  13.942  12.286 -0.4250 -0.0215  0.0583
46002W        W49222   0.491  14.124   4.710 -0.2174  0.0591 -0.1024
46003W        W49223  13.654  10.501   4.685  0.1499  0.1440 -0.1474
46004W        W49224   3.301  11.212   4.230  0.1684  0.3724  0.0825
46005W        W49225   1.376   1.054   2.870  0.1446  0.0168 -0.0756
46006W        W49226  16.478  14.944   6.966 -0.0705  0.2755  0.2722
46007W        W49227  17.090   3.100  12.535 -0.2620  0.0408 -0.0011
46008W        W49228   1.754  12.299   6.008 -0.0733 -0.0894  0.1703
46009W        W49229  15.209  14.801  12.444  0.2707  0.1207 -0.3714
46010W        W49230  16.235   8.429   8.756  0.0722  0.1686 -0.3776
46011W        W49231  11.289   4.799   8.352 -0.0177  0.0670 -0.0616
46012W        W49232  17.832  11.122   8.635  0.2364  0.2054  0.3933
46013W        W49233   6.427   7.641   2.122 -0.0846 -0.2028  0.2151
46014W        W49234  16.148  10.582   3.029 -0.0477 -0.2528  0.3035
46015W        W49235  15.355  11.819   1.007 -0.5145 -0.4500 -0.1834
46016W        W49236  15.310  11.169  13.600 -0.0416  0.0857  0.2293
46017W        W49237   1.089  17.308  16.843  0.0326 -0.1005 -0.2476
46018W        W49238   1.615  15.136   2.154 -0.0609 -0.1565 -0.0302
46019W        W49239  10.265   9.806   6.773  0.2602  0.1118  0.0889
46020W        W49240  12.086  14.266   1.755  0.0773 -0.1826 -0.0385
46021W        W49241  15.035  14.873   3.961  0.1596 -0.1418  0.3379
46022W        W49242   1.130   4.541   4.108 -0.1965 -0.0777 -0.2003
46023W        W49243  16.324  11.083   8.580 -0.0409  0.0240  0.1828
46024W        W49244   0.757  13.420  16.281  0.2498  0.0839  0.2988
46025W        W49245  12.395  15.512   6.912  0.0482 -0.0135 -0.0259
46026W        W49246   7.730  14.889   7.987 -0.0574 -0.1090  0.0564
46027W        W49247  17.960  15.152   9.047 -0.1461  0.1444  0.2088
46028W        W49248  12.117   9.832   6.746  0.0745  0.0274 -0.0131
46029W        W49249  14.047  14.679   8.343  0.0792  0.2193 -0.0154
46030W        W49250  16.806   4.809   6.819  0.0913 -0.0732 -0.0058
46031W        W49251   0.078   0.883  14.695 -0.4419 -0.1249 -0.4826
46032W        W49252  13.327   0.035  13.955 -0.0701 -0.3536  0.0829
46033W        W49253  11.981  15.685  13.797  0.0826 -0.2950 -0.0896
46034W        W49254   1.444   9.948  11.649  0.2709 -0.0542 -0.1060
46035W        W49255   0.497  11.067  10.355 -0.0033  0.5548  0.0398
46036W        W49256  10.351  10.525   4.236  0.0096 -0.6870 -0.1897
46037W        W49257   2.442   7.311   9.071 -0.0007  0.0578 -0.0869
46038W        W49258   2.757  10.869   6.376 -0.1434  0.2116 -0.2601
46039W        W49259  17.856  14.207  13.187  0.2461 -0.0869  0.0796
46040W        W49260  12.930   1.458   9.936 -0.1117 -0.2796  0.2026
46041W        W49261  15.639  14.989   9.527  0.1311  0.0574  0.2276
46042W        W49262  14.386  11.272   4.414  0.1891 -0.0132  0.1128
46043W        W49263  15.227  12.353  10.513 -0.3320  0.0812 -0.1659
46044W        W49264  14.297  14.390   6.068 -0.3319  0.0587 -0.1535
46045W        W49265  13.630  12.618   8.471 -0.1063  0.0991 -0.0862
46046W        W49266  17.014   9.472   5.799 -0.2949 -0.2273  0.1496
46047W        W49267   5.858  16.797   7.860  0.1477  0.2520 -0.0221
46048W        W49268   8.609  15.886   7.323 -0.1128  0.1897  0.1479
46049W        W49269  10.406   4.166  11.781  0.1317  0.2687  0.2648
46050W        W49270  11.083  13.534   4.201 -0.0261  0.3558 -0.1209
46051W        W49271   5.571  11.733  13.002 -0.1027 -0.2390  0.3496
46052W        W49272   2.536  12.906   7.985 -0.0224  0.2777 -0.0842
46053W        W49273   9.119  18.152  12.645  0.3247 -0.1858  0.0383
46054W        W49274   4.238  12.049   5.337 -0.1717  0.0027  0.1757
46055W        W49275  14.286   1.203   8.721 -0.0297  0.2428  0.0904
46056W        W49276  14.671  15.191  11.829  0.1131  0.3500  0.0693
46057W        W49277   3.771  13.486   0.397  0.1671 -0.4261  0.0549
46058W        W49278  15.255  10.253   9.186  0.0929  0.0053  0.0024
46059W        W49279  11.862  15.912  10.056 -0.1283 -0.4924 -0.0430
46060W        W49280  16.204  14.816   5.586 -0.1004 -0.0017 -0.0404
46061W        W49281  15.637  14.679   8.521 -0.0882  0.1544  0.4200
46062W        W49282  15.685   8.460   4.157 -0.2142 -0.2831  0.2071
46063W        W49283   4.334  14.542  14.682  0.0020 -0.0656 -0.0501
46064W        W49284   0.109  14.148  10.695 -0.1707  0.1804 -0.1407
46065W        W49285   1.482  15.274  13.501  0.1258 -0.1213  0.0472
46066W        W49286   1.076  10.625   7.359  0.2344 -0.1023  0.2047
46067W        W49287   2.624   9.887  10.418 -0.1060  0.1633 -0.2408
46068W        W49288   0.945  18.139  12.426 -0.1149  0.2251  0.2544
46069W        W49289   9.151  10.994   6.647 -0.0303  0.1244  0.1746
46070W        W49290  14.575  12.648  11.309 -0.0189  0.1926 -0.2562
46071W        W49291  14.074   9.261  10.326 -0.0479 -0.1568 -0.1184
46072W        W49292  10.783  12.743  11.716 -0.1224  0.1704  0.0746
46073W        W49293   2.305  18.125  10.940 -0.2447  0.0975  0.0913
46074W        W49294   1.888  11.225  12.395  0.0499  0.2403 -0.1547
46075W        W49295   1.180  16.328   5.359  0.0239  0.1395 -0.1409
46076W        W49296  15.818   8.662   7.117 -0.0628  0.0880  0.1635
46077W        W49297   6.652  18.239   5.303 -0.1003  0.1057  0.0725
46078W        W49298  12.273  17.142  13.242  0.0810 -0.0584 -0.0620
46079W        W49299   2.448  11.957  13.057  0.1555 -0.0428 -0.0113
46080W        W49300   0.281  11.726   9.698  0.0320 -0.1780 -0.2077
46081W        W49301  15.090  17.617   5.940 -0.0559 -0.0748 -0.1121
46082W        W49302  14.369  11.861  11.405 -0.1888 -0.1100 -0.3292
46083W        W49303  15.862  11.849  12.470 -0.1094  0.1097 -0.3590
46084W        W49304   6.007  10.150   4.610 -0.0876  0.1167 -0.1907
46085W        W49305  15.692   1.064  12.784  0.1105  0.0110 -0.2264
46086W        W49306   3.450   8.820  11.163  0.2073 -0.1844  0.2955
46087W        W49307   7.412  12.785   9.680  0.3928  0.0309  0.0437
46088W        W49308  12.043  16.954  14.759  0.0135  0.2646  0.0641
46089W        W49309  18.232   0.069  15.250  0.0699  0.0559 -0.2425
46090W        W49310  15.841  11.644  10.350  0.0138 -0.2416  0.1621
46091W        W49311  12.920  16.907   3.448 -0.0216  0.1590 -0.0060
46092W        W49312  14.833  11.225   7.468 -0.2623 -0.0637  0.0507
46093W        W49313  14.080  13.674  13.122  0.1113  0.1751  0.2848
46094W        W49314  16.376  17.650   9.639 -0.0110 -0.3176  0.2072
46095W        W49315   0.761  16.836   6.511  0.1449 -0.2294 -0.1641
46096W        W49316  12.757  15.708   9.772  0.0492  0.1129  0.2377
46097W        W49317   0.161   7.989  15.324  0.0530  0.1325  0.3136
46098W        W49318   7.626   0.402   7.410  0.2862  0.1218 -0.0722
46099W        W49319   0.314  14.816  13.477 -0.0171  0.1345  0.0079
46100W        W49320  17.499  13.836   8.865  0.0592  0.0160  0.3361
46101W        W49321   2.964  11.142   7.219  0.0038  0.0717 -0.3740
46102W        W49322  15.778  13.796  12.260 -0.4009  0.0600  0.0651
46103W        W49323  16.007  13.586   9.234  0.0476 -0.0438  0.5173
46104W        W49324   9.474   4.921  10.925 -0.0855 -0.0661 -0.2149
46105W        W49325  13.640  10.187  14.475 -0.1470 -0.1117  0.3049
46106W        W49326   2.692  10.695   7.406  0.1080  0.0104 -0.2792
46107W        W49327   0.154  11.137   5.434  0.0341 -0.0137 -0.0081
46108W        W49328   2.648  14.456   0.968 -0.1903 -0.1533 -0.0791
46109W        W49329  17.378  12.837   7.721 -0.0811  0.1338 -0.1060
46110W        W49330  17.708   0.272  15.343  0.1268  0.0082  0.2343
46111W        W49331   0.784   2.173  11.335 -0.0404  0.0206 -0.1054
46112W        W49332  16.322  14.090   3.762 -0.2579 -0.1018  0.0184
46113W        W49333   1.248   5.440  13.914 -0.2402 -0.1827 -0.2516
46114W        W49334   3.253   7.625   7.779 -0.1765 -0.2167 -0.4688
46115W        W49335   3.782   0.350   7.281  0.4286  0.0286 -0.0393
46116W        W49336  13.461  15.940   6.766 -0.0356 -0.0113  0.1655
46117W        W49337   1.165   8.673  10.026 -0.1682 -0.0375  0.0962
46118W        W49338   3.207   6.410   0.277 -0.3026  0.0832 -0.1422
46119W        W49339  17.377   7.845  11.996  0.0383  0.1056  0.0112
46120W        W49340   3.832  15.362   6.004  0.0473  0.0448 -0.4511
46121W        W49341  11.513   3.424  14.674  0.1942 -0.1163  0.0909
46122W        W49342  18.022  10.949  11.045 -0.1653  0.0462  0.1170
46123W        W49343   4.522   0.188  13.209  0.0285 -0.1073  0.0188
46124W        W49344  17.712  17.926   8.633 -0.0409  0.0022 -0.2079
46125W        W49345  13.545  12.448  15.023  0.0522 -0.0789 -0.0375
46126W        W49346   0.376   4.277   7.016  0.0104  0.1250  0.3587
46127W        W49347  13.166  11.308   6.820  0.0783 -0.0641 -0.0254
46128W        W49348  14.702  14.481  15.027 -0.2057  0.2127 -0.3736
46129W        W49349  18.021  10.080   4.498 -0.4184 -0.0054  0.3363
46130W        W49350  12.100   1.464   5.194  0.1584 -0.0188  0.0682
46131W        W49351  14.142  10.505   5.880  0.0370 -0.1640 -0.0287
46132W        W49352  10.077  12.396  12.225  0.2326  0.1411  0.1634
46133W        W49353  13.042   9.254   5.408 -0.1950 -0.2280 -0.0108
46134W        W49354   3.071   6.292   5.786  0.0633  0.0110  0.0560
46135W        W49355  15.476  17.661  10.061 -0.0406 -0.3521  0.0834
46136W        W49356   7.807  15.627   6.727 -0.3976 -0.0935 -0.0651
46137W        W49357   1.194  10.728  11.636  0.1566  0.0813 -0.0251
46138W        W49358  17.318  10.298  16.310  0.3963  0.0341 -0.0492
46139W        W49359   1.320  10.515  16.799  0.1267  0.2147  0.2480
46140W        W49360  13.242   8.608   6.694  0.0924  0.0324  0.0212
46141W        W49361   5.624  13.023  13.080  0.0631  0.1122 -0.0237
46142W        W49362   2.358  10.569   5.042  0.1677 -0.1429  0.0954
46143W        W49363  14.913  16.097  13.734  0.0078  0.2297 -0.2491
46144W        W49364  13.543  18.176  11.159 -0.1735  0.0352  0.0968
46145W        W49365   8.594  17.304  13.238  0.0147 -0.1291 -0.0516
46146W        W49366  17.153  15.583   7.994  0.0596 -0.0801  0.2568
46147W        W49367   1.331  10.613   3.444  0.3535  0.0479  0.1506
46148W        W49368   0.237   7.732  13.526 -0.1002  0.0794  0.0232
46149W        W49369  15.369   2.983  12.599 -0.0523 -0.2183  0.2904
46150W        W49370   3.340   9.332   6.061 -0.1465 -0.1624  0.1201
46151W        W49371   4.143  13.520   9.248  0.0045 -0.0948  0.1128
46152W        W49372   9.849  13.275  10.522 -0.1406  0.0446 -0.2270
46153W        W49373   9.283   0.141  10.571  0.0940 -0.3469  0.1708
46154W        W49374   0.692  10.152  10.291  0.1272  0.1844  0.1344
46155W        W49375  17.716  11.694   1.176  0.3093  0.1337  0.5520
46156W        W49376   3.861  13.892   9.195  0.3202  0.1453 -0.1010
46157W        W49377  17.955  13.392  11.837  0.1452 -0.0005 -0.2226
46158W        W49378  14.113  12.199  12.100 -0.2372  0.4466 -0.1635
46159W        W49379  16.292   0.195  11.175 -0.1222  0.0872  0.3681
46160W        W49380   2.473  12.760   2.504  0.3151  0.2577 -0.0796
46161W        W49381  14.275  18.143  12.300 -0.1299  0.1151  0.0508
46162W        W49382  17.126  16.902  16.953 -0.1115  0.1542  0.1017
46163W        W49383  18.229   7.978  12.211 -0.0264 -0.2155  0.0894
46164W        W49384  17.908  11.962   5.882  0.0189  0.2056  0.0251
46165W        W49385   4.389   6.699   3.157  0.1490  0.4642 -0.3291
46166W        W49386  13.367   3.855   4.278  0.0426 -0.1105 -0.0000
46167W        W49387   3.387  13.762  12.162 -0.2127  0.0211  0.0829
46168W        W49388   0.869   4.608   4.549  0.2302  0.0325  0.1063
46169W        W49389  16.675  14.169  10.488 -0.1290 -0.0454 -0.3909
46170W        W49390   0.300   4.738   6.712 -0.1214  0.1079 -0.0198
46171W        W49391  16.160   9.288   8.773 -0.1858  0.0611 -0.1327
46172W        W49392  13.935   2.272   5.499  0.2137  0.0575 -0.0137
46173W        W49393   4.993  16.917   6.169  0.0330  0.1159 -0.0108
46174W        W49394   3.383  10.435   9.129 -0.1393  0.2601  0.2343
46175W        W49395   0.696  16.427   5.486  0.1819  0.2069  0.0813
46176W        W49396  16.622  16.193   8.208  0.0025  0.1351  0.0070
46177W        W49397   4.934   1.384   7.730  0.0107 -0.3182 -0.0104
46178W        W49398  15.426   8.899  14.694  0.0976 -0.0271  0.0990
46179W        W49399   8.329  11.239  10.151 -0.0999  0.0050  0.0828
46180W        W49400  14.615  11.977  11.902 -0.3027 -0.1287 -0.0428
46181W        W49401  13.245  15.366  10.359 -0.0347 -0.0894 -0.2337
46182W        W49402  14.055  10.670  14.733 -0.3147 -0.2511 -0.2062
46183W        W49403   1.849  11.293   4.061  0.1874  0.0968 -0.1940
46184W        W49404  16.768  16.864  17.345 -0.1327 -0.0566 -0.4181
46185W        W49405  14.085  15.900  17.209  0.0717  0.1267 -0.1817
46186W        W49406  14.836   5.729  13.410  0.0365  0.1374  0.0577
46187W        W49407  17.784  15.877   7.256 -0.1518  0.0054 -0.0028
46188W        W49408  16.120  16.737  17.645  0.1793  0.2287  0.2669
46189W        W49409  14.103  13.623   1.362  0.2230  0.1530 -0.1208
46190W        W49410  17.274  15.189   4.009  0.2570  0.0445  0.3566
46191W        W49411  17.450  12.423  12.790 -0.1082  0.2407  0.0520
46192W        W49412  17.177  14.525   9.513  0.0428 -0.1270 -0.0426
46193W        W49413   0.351  17.427  11.436  0.1443  0.2156 -0.2253
46194W        W49414  15.048   0.695   9.719 -0.2298  0.1480 -0.0406
46195W        W49415  16.837  13.108   2.282 -0.0887  0.2604  0.0586
46196W        W49416   6.518  17.339   3.685 -0.1502 -0.0703 -0.1719
46197W        W49417  15.111   9.708  11.836 -0.0030 -0.0959 -0.0279
46198W        W49418   2.992  11.770  12.225 -0.2877 -0.0511  0.3318
46199W        W49419  17.827   0.760  15.441  0.1733 -0.0733  0.0316
46200W        W49420  16.090   7.537  10.811  0.3180  0.1805  0.0344
46201W        W49421  11.999  12.880   9.797 -0.2329  0.3739  0.4139
46202W        W49422   7.472   8.818   4.703  0.0101  0.0325 -0.0857
46203W        W49423   8.068  10.647   0.260  0.0243  0.1090 -0.0238
46204W        W49424   4.366  16.089  10.929 -0.1926  0.1112 -0.3989
46205W        W49425   1.164  16.935   5.774  0.1524 -0.0201  0.0560
46206W        W49426   1.585  11.895   7.301  0.1317  0.0135  0.1428
46207W        W49427   7.349   9.352   8.003 -0.1405 -0.1371 -0.0199
46208W        W49428   8.277  10.978   8.346  0.0681  0.1303  0.0185
46209W        W49429  13.700  17.935   5.606 -0.1564  0.0439  0.0450
46210W        W49430  15.825  10.539   8.034  0.2461 -0.2747  0.2869
46211W        W49431  16.748   8.694  10.853  0.0292 -0.2706  0.0047
46212W        W49432  13.309  13.644  12.342  0.0541 -0.1269 -0.2817
46213W        W49433  13.113  15.918  18.194 -0.0163 -0.0792 -0.0745
46214W        W49434  14.026   5.436   7.907  0.1114 -0.0827  0.1351
46215W        W49435  11.005   7.384  17.396  0.2392  0.0257 -0.2616
46216W        W49436   0.484  13.642   9.129 -0.2023 -0.0654  0.1022
46217W        W49437  16.636  11.768   7.767 -0.1621  0.3170  0.1620
46218W        W49438  14.311  11.445   2.361 -0.0918 -0.0779 -0.2761
46219W        W49439   1.283  10.461  10.269  0.0881 -0.2506 -0.2636
46220W        W49440   3.927   6.291  10.897  0.3649  0.2301  0.0766
46221W        W49441  13.347  15.305   9.038  0.1048 -0.0991 -0.1148
46222W        W49442   3.278  10.362  16.726  0.1018 -0.0009  0.2159
46223W        W49443   2.014  17.302  13.222  0.1736  0.2028 -0.0079
46224W        W49444  11.581   0.342  15.959  0.1510  0.1681 -0.2190
46225W        W49445  15.526  14.838   7.686 -0.0136  0.0745 -0.1714
46226W        W49446  12.700  12.891   9.533 -0.0341  0.0010 -0.1546
46227W        W49447  12.846  11.518   6.505  0.2510 -0.2760 -0.3037
46228W        W49448  10.533  15.046  13.020  0.0357  0.1760 -0.2049
46229W        W49449  18.260   3.817   7.591  0.0630 -0.2006  0.0308
46230W        W49450   8.940  10.746   7.674 -0.2986  0.2708  0.1392
46231W        W49451   0.563  16.266   6.459 -0.4320  0.2339 -0.0096
46232W        W49452  17.465   0.484   8.932 -0.1121 -0.3933 -0.4647
46233W        W49453  12.634   4.281   8.479 -0.0340  0.1032 -0.1017
46234W        W49454  12.507  11.271  10.839 -0.0171 -0.3491 -0.2045
46235W        W49455  10.989  14.661   6.624  0.1619  0.1913 -0.0168
46236W        W49456   0.179  14.020  16.267  0.1142 -0.0653 -0.0916
46237W        W49457  14.734  11.033  15.326  0.2794  0.1090 -0.0394
46238W        W49458   0.000  11.147   4.617 -0.0631  0.0603 -0.0907
46239W        W49459  16.581   8.790   8.833  0.0488  0.0383  0.0868
46240W        W49460  14.208  10.567   4.978  0.1547  0.2629  0.1617
46241W        W49461   3.558   6.753  10.322 -0.1567  0.1947 -0.4514
46242W        W49462  16.529   9.994   1.403  0.0916 -0.3361 -0.2136
46243W        W49463  16.061   3.904  11.852 -0.0435  0.0090 -0.1622
46244W        W49464  16.850   8.806  15.170 -0.1161  0.0384  0.0962
46245W        W49465  12.299   1.552   9.178 -0.0396  0.0798  0.1757
46246W        W49466  14.456  12.978   5.928  0.2175 -0.3377 -0.0642
46247W        W49467  10.564   4.861   2.561  0.0593 -0.0441  0.0465
46248W        W49468  16.851   9.875  15.457 -0.2688 -0.0631  0.1439
46249W        W49469  14.795   0.134  12.470 -0.0396 -0.2854  0.2924
46250W        W49470  15.150  10.346  15.183 -0.1715  0.1103  0.0271
46251W        W49471   0.340   8.301   6.571  0.0453 -0.1194  0.6163
46252W        W49472   2.737  16.671   5.888  0.0206  0.0263 -0.0966
46253W        W49473   4.258   5.512  11.303 -0.0990  0.0845  0.2228
46254W        W49474  11.267  10.810   3.669 -0.2524  0.2021 -0.1652
46255W        W49475  16.269  14.931   8.516  0.0097  0.4490  0.2768
46256W        W49476  12.761  14.907  12.118 -0.1074 -0.2040 -0.0422
46257W        W49477  16.218  13.534  17.310 -0.0942  0.0042 -0.1602
46258W        W49478  12.355  10.499  11.685 -0.1901 -0.0679  0.2608
46259W        W49479   9.007  10.889  11.890  0.0030  0.1423 -0.2168
46260W        W49480   0.866  10.330  16.018  0.1020  0.1001 -0.1308
46261W        W49481   1.153  10.652  12.557 -0.1578 -0.1822 -0.2986
46262W        W49482  13.064  15.594   4.073  0.1060 -0.0820  0.0124
46263W        W49483  14.280  10.710   6.678  0.1178  0.3569  0.3906
46264W        W49484  15.029  12.283  14.919  0.0831  0.0077 -0.0948
46265W        W49485  14.338  11.895  10.212 -0.1458 -0.0087  0.2395
46266W        W49486  16.806   7.441   7.654 -0.2142  0.0885  0.0141
46267W        W49487  16.468   0.277   5.735  0.0103  0.1641  0.1307
46268W        W49488   7.141   1.408   7.555  0.1044 -0.0620  0.1374
46269W        W49489   5.108  12.048   6.707 -0.0371 -0.3820  0.0568
46270W        W49490  18.254  16.129  14.950  0.1254  0.3814 -0.2564
46271W        W49491  15.770  13.906   5.414  0.0341  0.1065  0.1782
46272W        W49492   0.284  17.295   8.562 -0.1713  0.0346 -0.0485
46273W        W49493  11.595   6.876   9.065 -0.1249 -0.1187 -0.0276
46274W        W49494   1.224   5.631  11.983  0.2618 -0.3850 -0.1650
46275W        W49495  17.227  15.841   9.914 -0.0059  0.1890 -0.3351
46276W        W49496  16.410   9.556  12.076  0.0963 -0.0940  0.0454
46277W        W49497   0.438   6.857   6.597 -0.2544  0.0783 -0.2876
46278W        W49498  14.636   3.990   4.810  0.3670 -0.0242 -0.0857
46279W        W49499  12.233   0.170   2.029 -0.0518  0.0430 -0.4917
46280W        W49500  16.632  17.262   9.708 -0.0217 -0.0523  0.0276
46281W        W49501  17.621   7.523   7.455 -0.2210 -0.1118  0.1445
46282W        W49502   3.287   7.220   8.792  0.0972 -0.0147  0.0356
46283W        W49503   4.461  13.538  16.481  0.2103  0.1076  0.1823
46284W        W49504  10.575  15.805   7.333  0.1408 -0.0868 -0.0234
46285W        W49505   3.409   1.620   9.902  0.2832 -0.0244  0.0912
46286W        W49506  10.819   2.521   8.788 -0.0008 -0.1998  0.2789
46287W        W49507  16.530   7.444  11.171 -0.0711 -0.2349  0.0609
46288W        W49508   7.678  16.831  10.201  0.2476  0.0946 -0.4700
46289W        W49509  10.123  14.348   1.013 -0.0348 -0.2449  0.2268
46290W        W49510   6.540  17.058   7.373  0.0207 -0.0985 -0.1850
46291W        W49511   0.080  11.218  10.110 -0.1095 -0.1175 -0.1692
46292W        W49512   6.378  15.278   4.280  0.1467  0.3161  0.2314
46293W        W49513  16.426   7.181  12.607 -0.3964 -0.2445  0.0940
46294W        W49514  16.088  14.802  11.481 -0.0594 -0.1233 -0.0251
46295W        W49515  17.331   4.384   9.210  0.0499 -0.0858 -0.0588
46296W        W49516  10.005  10.837   6.447 -0.3654 -0.0328 -0.2773
46297W        W49517   0.809  13.541   6.957 -0.0997 -0.0527 -0.0694
46298W        W49518  17.927  12.880  14.133  0.1123  0.0527  0.2233
46299W        W49519  16.463  13.694   9.427 -0.0871  0.0865 -0.0236
46300W        W49520  16.009  13.067   8.043  0.0095  0.1584  0.1012
46301W        W49521   6.163  10.259   6.533  0.2520  0.0062  0.0973
46302W        W49522   7.902  11.258  11.118  0.1563  0.2092 -0.0670
46303W        W49523   3.958   6.634   7.881  0.2243  0.0905 -0.0497
46304W        W49524   1.131   1.316   4.484  0.1264  0.0912 -0.0549
46305W        W49525   8.584   8.968   6.374  0.1828  0.3313  0.0096
46306W        W49526   0.609   9.686  13.234  0.1783  0.1822 -0.1768
46307W        W49527   4.782   4.479  11.746 -0.3955  0.2248  0.2389
46308W        W49528  14.889  12.932   8.890 -0.1564  0.0946 -0.2632
46309W        W49529  12.833   6.461   8.484 -0.1493  0.0019  0.0231
46310W        W49530  14.919  11.240  13.287 -0.3232 -0.4050  0.1573
46311W        W49531  17.703  17.269  17.340 -0.2225  0.2060  0.2204
46312W        W49532  12.280   0.395   5.672  0.0629 -0.1027 -0.1013
46313W        W49533  14.195  11.775   8.176  0.0509 -0.1304  0.2142
46314W        W49534   4.110   8.851   9.944 -0.1123 -0.1729 -0.0471
46315W        W49535  17.450   7.197  15.966 -0.0767  0.2519  0.3268
46316W        W49536  15.728  16.259  12.756  0.2034  0.0588  0.0297
46317W        W49537  18.096   5.834   6.030  0.2485 -0.1253 -0.2119
46318W        W49538  12.083  11.613  10.763  0.3418 -0.1084 -0.0493
46319W        W49539   1.276  16.632  13.133  0.0236 -0.2091 -0.1218
46320W        W49540  15.779  16.721   3.126  0.0000  0.1036 -0.0130
46321W        W49541  10.277   4.257  16.626 -0.0272  0.0373 -0.0187
46322W        W49542   5.494  15.017   3.614  0.1643  0.2939  0.1059
46323W        W49543  10.935   9.675   7.121  0.0314 -0.1087  0.0456
46324W        W49544  15.655  10.129  16.666  0.1650 -0.2568  0.0799
46325W        W49545  15.562  13.919   1.980 -0.2205  0.1045 -0.1689
46326W        W49546  16.161  11.574   9.373  0.0272 -0.1794  0.0131
46327W        W49547  15.432  15.737   8.689  0.1757  0.0931  0.4760
46328W        W49548  15.425   0.320  12.074  0.2252  0.1752 -0.0838
46329W        W49549  11.403  11.861   0.329 -0.1195  0.0776  0.2177
46330W        W49550  16.632  11.441   5.967  0.1539  0.3088  0.0602
46331W        W49551  15.871   6.498   0.278  0.2143 -0.1695  0.0301
46332W        W49552   5.128  14.480  12.865  0.3303 -0.0217 -0.0613
46333W        W49553  16.412  11.839   7.311 -0.0571  0.0176 -0.0487
46334W        W49554  14.379  13.791  15.656  0.1333  0.2986  0.2984
46335W        W49555   7.519  10.362   0.631  0.2559 -0.2231  0.1997
46336W        W49556   6.550  17.040  13.816  0.2012  0.0249  0.0191
46337W        W49557   2.277  17.396   8.119 -0.0500 -0.2921 -0.2192
46338W        W49558  15.228  12.218  11.677  0.1830  0.2744 -0.1743
46339W        W49559   5.718  12.238  11.929  0.1809 -0.0409 -0.2047
46340W        W49560  15.135  10.192   7.506 -0.0863 -0.0350 -0.0398
46341W        W49561  17.563  13.950  17.899 -0.1372  0.0022  0.2943
46342W        W49562  17.926   0.170   8.756 -0.1303  0.0042  0.2103
46343W        W49563  12.151   9.788  11.549  0.0796 -0.0825 -0.0588
46344W        W49564   3.165  14.882   6.992  0.3538 -0.1666 -0.5063
46345W        W49565  16.602  14.486  15.763 -0.3878 -0.2090  0.2703
46346W        W49566   8.894  12.553   5.411 -0.0547 -0.3517 -0.0294
46347W        W49567  14.035  17.430   9.056  0.0782  0.0448 -0.0636
46348W        W49568  15.032  10.573   5.434  0.0175 -0.0479  0.0364
46349W        W49569   0.579  11.534  12.316  0.2422 -0.0293  0.0560
46350W        W49570  16.964   9.948   8.430 -0.1208 -0.4029  0.0008
46351W        W49571  14.762  11.718  12.300 -0.2269 -0.1674 -0.1388
46352W        W49572   4.348  10.400  13.042 -0.1898 -0.0152  0.1892
46353W        W49573   1.635  15.569   8.838  0.3286  0.2742  0.1110
46354W        W49574  17.064   9.463  12.883 -0.0657  0.1499 -0.0582
46355W        W49575   0.866   9.231   9.360 -0.0095  0.0868 -0.0800
46356W        W49576   1.751  11.177   5.876 -0.2052 -0.2211 -0.1141
46357W        W49577   8.261  18.008   6.398 -0.0389  0.1581 -0.2901
46358W        W49578   1.665  14.023   3.799  0.1486 -0.3971  0.3649
46359W        W49579  13.689  16.321   8.345 -0.0019  0.0279 -0.3776
46360W        W49580  17.147  14.448   3.304  0.1201 -0.0921  0.0389
46361W        W49581  14.225  15.656   8.068  0.1507  0.2327  0.1439
46362W        W49582  16.515  12.642   8.738  0.0444  0.2368 -0.0379
46363W        W49583   8.067  17.984  15.189  0.0656 -0.0299 -0.0532
46364W        W49584   3.763  15.059   4.056  0.0941  0.2070  0.2356
46365W        W49585   2.712  12.651   8.451 -0.1904  0.3783 -0.0408
46366W        W49586  12.091  10.283  10.318 -0.0059  0.0362 -0.3677
46367W        W49587   0.305   0.615   7.378 -0.2697  0.1038  0.0314
46368W        W49588  17.841  15.679   0.328 -0.0571  0.0813  0.3100
46369W        W49589  14.467  10.271  15.755 -0.0283  0.0122  0.1061
46370W        W49590  13.192  12.988  13.110  0.0139 -0.1029 -0.4851
46371W        W49591  15.475   0.239   5.798 -0.1111  0.1290 -0.0890
46372W        W49592  17.749   4.447   4.711 -0.0177 -0.2545  0.0853
46373W        W49593   0.982  14.589  11.028  0.0700 -0.0926  0.2584
46374W        W49594   1.014  17.910   6.104 -0.0886  0.1953 -0.2369
46375W        W49595   4.693  16.776   4.435 -0.2590  0.3023 -0.0920
46376W        W49596  10.528  11.691   7.731 -0.0788 -0.2746  0.0738
46377W        W49597   7.299  16.718   7.597 -0.0623 -0.2920 -0.1369
46378W        W49598   2.575  10.819   5.527  0.2817 -0.1751  0.1753
46379W        W49599  10.268  17.328   6.724 -0.1669 -0.2961 -0.0546
46380W        W49600   9.559   0.417   5.262  0.0369  0.0762  0.2561
46381W        W49601  11.718  14.889   2.916 -0.4044  0.1374  0.0923
46382W        W49602  16.476   9.532   5.960 -0.1893  0.1380 -0.2329
46383W        W49603  14.136  14.709  11.121 -0.1017 -0.0945  0.1230
46384W        W49604   8.468  14.964   6.473  0.0082  0.1375 -0.1842
46385W        W49605  17.164  16.557   1.729 -0.0472  0.1610  0.1332
46386W        W49606  14.596  10.485  10.753  0.3504  0.3119 -0.4144
46387W        W49607  15.877   3.685   5.366  0.0092 -0.3474 -0.0513
46388W        W49608   0.327  14.054   3.326 -0.1639 -0.1515  0.3329
46389W        W49609   4.418  10.823   5.812  0.2809  0.2004  0.1484
46390W        W49610  10.983  16.737  13.199 -0.0940 -0.0168 -0.0128
46391W        W49611   9.524  11.323   8.999  0.2066  0.1689 -0.0257
46392W        W49612   4.233  10.748  17.854 -0.3402 -0.1732 -0.0903
46393W        W49613  16.099   0.508  11.544 -0.2272 -0.1560 -0.1517
46394W        W49614  11.708  14.568  17.096  0.3973  0.0655 -0.1060
46395W        W49615  14.746  11.948   9.815  0.2168 -0.0391 -0.2436
46396W        W49616  15.375  15.281  15.182 -0.0121  0.0858  0.3101
46397W        W49617   9.952  17.937  12.992 -0.0039 -0.2308 -0.0015
46398W        W49618  17.448  10.998  14.378 -0.1019  0.2863 -0.1706
46399W        W49619  13.518   9.160  11.550 -0.1110  0.1347  0.2695
46400W        W49620   3.530   2.399  16.716  0.2173 -0.1015  0.1671
46401W        W49621   2.395   4.923  11.710 -0.0264 -0.3809  0.0002
46402W        W49622  11.812  10.559   7.207 -0.3581 -0.0734  0.3077
46403W        W49623  18.140  14.427  14.627 -0.1631  0.2641 -0.4921
46404W        W49624   0.338  13.120   8.240 -0.0302  0.0838  0.0884
46405W        W49625  16.116   6.047  11.375 -0.0481 -0.1547 -0.1541
46406W        W49626   4.126  17.494  16.727 -0.2340 -0.0586  0.0399
46407W        W49627  12.816  17.582  17.616 -0.0315 -0.0455 -0.0821
46408W        W49628  12.901  15.292  11.232 -0.0443 -0.0686  0.2050
46409W        W49629   3.070  15.298   7.688 -0.1981 -0.4440 -0.1301
46410W        W49630   0.672  16.206  16.312  0.1688 -0.0168 -0.4860
46411W        W49631   1.637  13.144   3.703 -0.0227  0.0785  0.2025
46412W        W49632  12.108  11.671  15.011 -0.4090  0.1279 -0.0663
46413W        W49633  12.372   2.490  11.963  0.0010  0.1585 -0.2306
46414W        W49634  15.032  15.709   2.937 -0.0605 -0.0928  0.3669
46415W        W49635  17.209   9.806  16.303 -0.0166 -0.1571  0.2601
46416W        W49636  14.366  15.954   9.954 -0.0397 -0.1334  0.0155
46417W        W49637   0.884   0.612   9.450 -0.1711  0.0333 -0.3727
46418W        W49638   9.217   0.592   6.977 -0.1828  0.0890  0.1582
46419W        W49639   8.044   4.052  13.939 -0.0916 -0.0084  0.1272
46420W        W49640  17.876  15.305  10.858  0.1071  0.0605  0.1188
46421W        W49641  14.534  14.941   4.125  0.2687 -0.0918  0.3847
46422W        W49642  11.606   6.966  11.621 -0.0314  0.3050  0.0428
46423W        W49643  14.451  10.436  13.485  0.0482  0.2469  0.0082
46424W        W49644  10.744  15.989  15.639 -0.0688  0.1657  0.0070
46425W        W49645   6.436  10.088   2.340 -0.0605 -0.2004 -0.3581
46426W        W49646   0.767   8.041   2.063 -0.2475  0.0613  0.0029
46427W        W49647  10.110   9.724   0.747 -0.0362 -0.1815  0.1055
46428W        W49648  10.578  11.633   5.783  0.1365  0.1406  0.2081
46429W        W49649  11.311  15.274  13.186  0.3688  0.1045  0.0294
46430W        W49650   1.761   3.505  10.123  0.2605  0.1221 -0.2755
46431W        W49651  16.020  16.720  15.798 -0.2227 -0.1166 -0.2737
46432W        W49652  12.401  16.163  14.448 -0.0179  0.3035  0.1181
46433W        W49653  12.402  17.555   7.801 -0.3731 -0.0191  0.0897
46434W        W49654   1.612  13.188  15.866 -0.0208  0.0618  0.0162
46435W        W49655  11.402   8.489  14.832 -0.1751 -0.2294 -0.0859
46436W        W49656  12.104  12.337   2.164  0.0538 -0.0405  0.3122
46437W        W49657   9.899   6.337  15.133  0.0657  0.1298  0.2249
46438W        W49658  15.241  15.527  16.002 -0.2669 -0.0040 -0.2150
46439W        W49659   1.432   9.411  17.893  0.0569  0.1410 -0.2326
46440W        W49660   2.251   2.563   0.169  0.2698  0.1095 -0.1970
46441W        W49661  13.776  16.793   9.853 -0.2552  0.1382 -0.1036
46442W        W49662   0.673  13.535   2.147  0.1166  0.0365  0.2298
46443W        W49663  18.161   0.587  17.804 -0.1150  0.0391  0.1043
46444W        W49664  14.586  16.138  16.581 -0.0562 -0.0975 -0.1014
46445W        W49665  17.182  16.484  17.212 -0.2354 -0.0934 -0.4504
46446W        W49666   2.312  18.005  11.984 -0.2141  0.1841 -0.0496
46447W        W49667  12.522   1.062  13.674  0.0522  0.0302 -0.4248
46448W        W49668  13.620   9.657   1.013  0.1082 -0.0962 -0.0141
46449W        W49669  14.591   6.288   5.182 -0.0059  0.2690  0.1953
46450W        W49670  13.958   9.256  16.646 -0.0676 -0.2301  0.0684
46451W        W49671  12.669  13.890  12.582  0.1023 -0.3809 -0.0523
46452W        W49672  10.519  12.246  16.731  0.1862  0.0083 -0.0725
46453W        W49673   2.248  13.537  10.674 -0.0611 -0.3305 -0.2336
46454W        W49674  12.280   8.611  15.861 -0.1721  0.0637 -0.0704
46455W        W49675  15.703   3.926  14.118 -0.1962 -0.0550  0.1113
46456W        W49676  11.098  13.744  15.376  0.1202 -0.0121  0.1409
46457W        W49677   0.834   4.136   6.802  0.1854  0.0610  0.2747
46458W        W49678  16.978  13.801  10.815 -0.2507 -0.3290  0.4687
46459W        W49679  12.561  17.619  16.421  0.1061  0.2058  0.2557
46460W        W49680  15.108  17.750  11.828 -0.2989  0.0527 -0.2258
46461W        W49681  16.002  18.165   8.328 -0.0334  0.0649 -0.0204
46462W        W49682  11.023   7.536   3.257  0.5215  0.3826 -0.0490
46463W        W49683  16.002   0.833   8.934  0.0221  0.0135 -0.1105
46464W        W49684  14.459   9.562   9.501 -0.0495 -0.3025 -0.2022
46465W        W49685   9.144  16.781  13.419  0.0402  0.0973  0.1144
46466W        W49686  15.307  15.615  14.779  0.1281  0.1573  0.3513
46467W        W49687   8.904  12.311  13.931  0.2855 -0.1323 -0.0090
46468W        W49688  13.787  14.438   0.658  0.0503  0.0181 -0.1304
46469W        W49689  16.375  13.643  12.026  0.1762 -0.0199  0.1660
46470W        W49690  11.656   9.787   9.579 -0.1004  0.1590  0.2228
46471W        W49691  14.263  12.346   9.100  0.4288  0.1893 -0.2402
46472W        W49692  14.981  18.136   4.087 -0.2035  0.1258 -0.0979
46473W        W49693  10.315  15.859   9.912  0.2352 -0.0839 -0.2514
46474W        W49694  14.407  15.845  14.439  0.1948  0.4268  0.0239
46475W        W49695  17.462  12.610  10.053 -0.0726  0.2105 -0.1102
46476W        W49696  13.938  11.635  13.291 -0.1857 -0.4265 -0.2607
46477W        W49697  15.581   9.307  17.496 -0.0401  0.1197  0.1727
46478W        W49698  11.361  14.462  11.880 -0.0242  0.0113 -0.1937
46479W        W49699  11.656   5.908   2.608  0.4053  0.0085 -0.3212
46480W        W49700  14.729  11.047  12.045 -0.0719  0.1613 -0.0454
46481W        W49701   0.806   3.418  17.323  0.0689  0.1213 -0.0885
46482W        W49702  16.526  15.131  10.184 -0.0045  0.1519 -0.2084
46483W        W49703  10.755  14.847   8.856  0.1844  0.3281 -0.2116
46484W        W49704   2.503  17.791   9.596 -0.1773 -0.0097  0.3248
46485W        W49705  14.328  12.826   9.097 -0.0467 -0.0035  0.0541
46486W        W49706   1.713   0.190   4.944  0.0969  0.1104  0.0883
46487W        W49707  10.763  10.756   8.983  0.1441 -0.0361 -0.1582
46488W        W49708   7.235  13.724   7.353  0.0768  0.0279  0.2166
46489W        W49709  11.341  15.393  11.838  0.2171  0.1902  0.2788
46490W        W49710  12.270   8.634   8.155  0.0174 -0.1341  0.0960
46491W        W49711  17.247  10.859  12.199  0.1832 -0.1583  0.2512
46492W        W49712  16.860  13.576  13.226 -0.0072 -0.1886 -0.2656
46493W        W49713  15.876   0.332  13.330 -0.2407 -0.0602 -0.2510
46494W        W49714  17.351   0.392  11.833 -0.3208  0.2394  0.1046
46495W        W49715   0.521  10.504  14.636 -0.0007 -0.1305 -0.2123
46496W        W49716  17.173  14.400  11.448  0.0400  0.0480 -0.0706
46497W        W49717   0.940  10.585   0.959  0.0532  0.1835  0.0071
46498W        W49718  11.180  12.349   6.658 -0.2597  0.0136  0.0179
46499W        W49719  13.118   0.939  12.950  0.1853 -0.1977 -0.2335
46500W        W49720  13.648  12.939  18.065 -0.2088 -0.0966  0.3940
46501W        W49721   6.050  16.889   5.902  0.3820 -0.0819 -0.0215
46502W        W49722  10.896  16.800  12.170 -0.0325  0.0859 -0.1138
46503W        W49723  13.013   8.549   4.801 -0.0287  0.0326  0.0021
46504W        W49724  17.437   9.247  12.639 -0.2698  0.0503 -0.1545
46505W        W49725   9.226  12.807  11.728  0.3050  0.0509  0.1012
46506W        W49726  15.138   9.379  16.454 -0.2441 -0.0577  0.2141
46507W        W49727  14.493  12.209  15.224 -0.0844 -0.0079  0.1682
46508W        W49728  17.630  13.959  12.083 -0.0666  0.1161 -0.0735
46509W        W49729   0.114  14.097  14.297  0.0319  0.0903 -0.1005
46510W        W49730  17.194   6.800  14.151  0.0183  0.0054 -0.2657
46511W        W49731  13.544  15.904  17.344 -0.1603  0.0335  0.0429
46512W        W49732  16.982  12.096  12.562 -0.0321 -0.2489  0.1278
46513W        W49733  15.416   5.663   1.223 -0.1787  0.0541 -0.2535
46514W        W49734   1.901  16.136   0.173 -0.0042 -0.0436  0.0770
46515W        W49735  10.883  14.561  17.888  0.2052  0.1237 -0.1813
46516W        W49736   8.619   6.864  13.336  0.0502 -0.1078 -0.1733
46517W        W49737  14.672  13.264  14.207  0.0832  0.0481 -0.0576
46518W        W49738   1.091  18.164   7.807 -0.0281 -0.0900  0.1652
46519W        W49739   0.642  15.684  15.435  0.2785 -0.0988 -0.0888
46520W        W49740  12.307  10.682  10.669 -0.0359  0.1193  0.1402
46521W        W49741  13.702  10.745  17.940  0.0114  0.0179  0.3201
46522W        W49742  16.295  11.987  12.702 -0.0871  0.2212 -0.1995
46523W        W49743   2.908  14.064  17.479 -0.0825  0.0169 -0.0779
46524W        W49744   5.646  15.286  14.470 -0.0911  0.0582 -0.3692
46525W        W49745   8.141  14.742   7.666 -0.0006 -0.3479 -0.0692
46526W        W49746  16.732  13.859  15.846  0.0097  0.2337 -0.0895
46527W        W49747  15.248   8.604  15.075  0.1812 -0.3323  0.2329
46528W        W49748  17.221  16.963  15.652 -0.0663 -0.2034  0.0368
46529W        W49749   0.196  17.854   9.449 -0.2157  0.1300  0.1037
46530W        W49750  15.082   4.475  12.032  0.2064 -0.1593  0.0577
46531W        W49751  14.006  14.314  15.111  0.0370  0.0183  0.2595
46532W        W49752  11.061  13.162   4.538 -0.0131  0.0867  0.3379
46533W        W49753   0.529   9.449  17.088 -0.0949 -0.0265  0.1260
46534W        W49754  14.375   9.793   5.738 -0.0751 -0.0127  0.0584
46535W        W49755  10.242  15.051  17.072  0.0128 -0.3526 -0.1828
46536W        W49756   6.538  12.126  13.174  0.2262  0.1280 -0.0353
46537W        W49757   2.389  16.389  18.263 -0.0426  0.1619  0.0753
46538W        W49758  12.329  10.172  14.971  0.0353  0.2707  0.1521
46539W        W49759  13.901   3.724  12.298 -0.3737  0.1766  0.1626
46540W        W49760  15.463  10.125   5.372 -0.0217  0.0345  0.2671
46541W        W49761  10.160  13.185  16.483  0.2288  0.2785  0.0819
46542W        W49762  14.608   9.737  14.196 -0.1494  0.3629 -0.0524
46543W        W49763   1.299  15.936  14.433 -0.1467  0.2253  0.0007
46544W        W49764  14.279   1.738  17.200 -0.0732  0.1449  0.3169
46545W        W49765  11.058  12.415  11.998 -0.2094  0.1306 -0.2063
46546W        W49766  16.261  15.911   4.911 -0.0747 -0.1944  0.0185
46547W        W49767   0.935  11.995  14.871  0.1093  0.1827  0.2619
46548W        W49768  16.251  11.221  13.270  0.0180  0.0974 -0.0683
46549W        W49769  16.442  11.352   1.333  0.0271 -0.1444  0.0720
46550W        W49770  14.779  15.351  12.762  0.0449 -0.0666  0.0261
46551W        W49771   2.290   9.880  12.062 -0.1716 -0.2235  0.0325
46552W        W49772  12.286   9.849  14.385 -0.0560  0.1452  0.0498
46553W        W49773  16.140   9.488  10.643 -0.0193 -0.2681  0.0149
46554W        W49774   0.380  12.412   2.462 -0.2545 -0.1047 -0.2972
46555W        W49775   2.650  12.639  14.474  0.0111  0.2295 -0.0338
46556W        W49776  16.589   9.594   0.135 -0.3554  0.1928 -0.0718
46557W        W49777   8.400   8.386  13.669  0.1321 -0.0734  0.0925
46558W        W49778   0.858  11.478  11.626  0.1690  0.3075 -0.0457
46559W        W49779  16.551  10.882   9.736 -0.1148 -0.0759  0.1802
46560W        W49780   9.313   2.971  16.901  0.0284  0.0558  0.0217
46561W        W49781  12.769   9.369  15.704  0.2382 -0.1223 -0.1057
46562W        W49782  16.729  15.843   0.541 -0.3684 -0.4080  0.2696
46563W        W49783  11.979  16.264   9.593  0.1351  0.1377  0.0606
46564W        W49784   0.237  11.004  17.969  0.0021  0.2557  0.2596
46565W        W49785  14.120   9.128  12.412 -0.4351 -0.2196 -0.0468
46566W        W49786  12.904  14.500  12.722 -0.0873  0.1320 -0.3449
46567W        W49787  15.304  17.540  13.360  0.0099 -0.1441 -0.2501
46568W        W49788  14.314  12.976  14.225  0.0191 -0.1702  0.0700
46569W        W49789  14.201  10.502   9.449  0.1744 -0.0963 -0.4671
46570W        W49790   5.283  14.276   8.133 -0.0176 -0.1268 -0.1122
46571W        W49791   1.064   0.593  12.003 -0.0508 -0.2181  0.2078
46572W        W49792  14.928  13.655  11.570 -0.4722 -0.1304  0.0334
46573W        W49793  17.171  13.279  13.808  0.0896  0.2132 -0.0204
46574W        W49794   0.733  10.690  12.251 -0.0083  0.3426  0.1347
46575W        W49795   1.391   0.541  12.389 -0.0538  0.0647 -0.1311
46576W        W49796   6.573  11.700  10.045 -0.0115 -0.0137 -0.0193
46577W        W49797   1.966  10.177   4.027 -0.0771  0.2689 -0.0292
46578W        W49798  13.080   9.401  11.522  0.0282  0.0320  0.0572
46579W        W49799   6.892  11.825   7.227 -0.1516 -0.0352  0.0720
46580W        W49800   2.267   8.289   0.630 -0.0130 -0.2664 -0.0336
46581W        W49801  16.098  15.952   9.510 -0.1579 -0.0544 -0.1571
46582W        W49802  15.772  12.742  17.972  0.0198 -0.3859 -0.0047
46583W        W49803   9.778  14.612   0.835 -0.0629 -0.0338 -0.1095
46584W        W49804  12.176   9.360   5.239  0.3306  0.2196  0.0480
46585W        W49805   0.493   9.302  16.546 -0.0419 -0.1774  0.1055
46586W        W49806  13.964  14.084  15.626 -0.2000  0.0647 -0.2426
46587W        W49807  15.993  16.418   1.756 -0.0713 -0.1917 -0.3316
46588W        W49808  13.254  10.183  12.314  0.0380 -0.0222  0.1176
46589W        W49809   1.938   6.952  13.011  0.2379  0.4805  0.1205
46590W        W49810  11.426  10.579   4.911 -0.2930  0.1131 -0.0140
46591W        W49811   1.161  15.082  12.243  0.0125 -0.1377 -0.1010
46592W        W49812   3.885  10.235  10.985  0.1664 -0.1084  0.1158
46593W        W49813   4.153   9.468  10.690 -0.2098  0.2522  0.0976
46594W        W49814   1.640  16.751  15.290 -0.1006 -0.2138  0.1071
46595W        W49815   2.549  13.711   2.413  0.2815 -0.0937  0.3466
46596W        W49816  15.475  12.751  10.679  0.1512  0.0581  0.0403
46597W        W49817  10.948  13.227   0.209 -0.0161  0.0179  0.2513
46598W        W49818   3.876   7.409  17.068 -0.0312  0.1008  0.0766
46599W        W49819  17.935  12.341   0.836  0.1300 -0.2178 -0.1002
46600W        W49820  16.649   9.727  16.758  0.0582  0.2662 -0.2438
46601W        W49821  14.932   4.692   9.443  0.0420 -0.1273 -0.0181
46602W        W49822  14.790  11.570  16.903  0.3926 -0.0402 -0.1009
46603W        W49823   1.118  14.121   2.704 -0.3073 -0.0066 -0.1316
46604W        W49824  14.567  13.435  11.283  0.0894 -0.2728  0.1370
46605W        W49825  15.128  13.993   1.533 -0.1850  0.0280 -0.1421
46606W        W49826  13.194   3.040   4.003 -0.1523  0.1355 -0.0327
46607W        W49827  13.651  18.266  18.126  0.2588 -0.0783  0.1000
46608W        W49828   1.642   8.922  13.767  0.0502 -0.0635  0.1342
46609W        W49829   4.510  11.909  10.059 -0.3345  0.1876 -0.1938
46610W        W49830  15.467  15.167   0.050  0.4239  0.1572 -0.0574
46611W        W49831  12.263   1.447  11.674 -0.0493  0.0695 -0.0715
46612W        W49832   9.866   9.157  16.046  0.1995 -0.0758 -0.0467
46613W        W49833   7.685  12.854  16.065  0.1263 -0.0578 -0.0299
46614W        W49834  13.027  16.312  12.704  0.2367 -0.0562 -0.1436
46615W        W49835   0.566   9.791   0.308 -0.2061  0.0855 -0.2515
46616W        W49836  17.445   7.793   3.934  0.1004  0.1097 -0.0059
46617W        W49837  15.877  12.547  13.314 -0.2842 -0.1513  0.0735
46618W        W49838  15.138   7.028   0.398  0.1606 -0.0241  0.1154
46619W        W49839  12.639   9.587   0.215  0.1770  0.2748 -0.0149
46620W        W49840  15.135  13.991  13.777  0.4204 -0.1231  0.1040
46621W        W49841   8.952   3.510  11.691 -0.0902  0.0476  0.2179
46622W        W49842  16.687  16.119  16.999 -0.1770 -0.1992 -0.2944
46623W        W49843  10.109   9.833   1.941  0.1559 -0.0416  0.0377
46624W        W49844   9.170   6.806   5.927 -0.2023 -0.0912  0.0469
46625W        W49845   8.643  14.731  10.638  0.2853  0.0147  0.2247
46626W        W49846  18.261  16.002  13.945 -0.0033  0.2667 -0.0355
46627W        W49847  14.531   1.568   8.361  0.1536  0.0306  0.1023
46628W        W49848  13.980   0.611  11.634  0.0875  0.1191  0.1425
46629W        W49849  16.988  10.583  14.970 -0.0033 -0.3256 -0.2090
46630W        W49850  12.729  14.546  13.958 -0.0444 -0.3097 -0.0776
46631W        W49851  14.196  17.696   6.227  0.3646  0.3164 -0.0340
46632W        W49852   3.844   0.816  14.697 -0.2248 -0.0118 -0.1370
46633W        W49853  16.857  14.171  14.210  0.3682  0.2906  0.1127
46634W        W49854   1.396   7.734  12.064  0.0177  0.1395 -0.1898
46635W        W49855   5.939  12.733  12.173  0.0216 -0.0417  0.2946
46636W        W49856  18.108  18.100   0.653  0.2794  0.0320 -0.2326
46637W        W49857  10.645  14.369   8.796 -0.0901 -0.0257 -0.0009
46638W        W49858  17.961  12.565   2.192 -0.0702 -0.0413 -0.2878
46639W        W49859   0.221   7.482  11.437 -0.0446 -0.1023  0.1783
46640W        W49860  13.338  14.172   0.577  0.1259  0.0362  0.1579
46641W        W49861   1.276  16.481  17.606  0.7136  0.4590  0.0718
46642W        W49862  11.918  13.146  17.307 -0.0213  0.0082  0.4643
46643W        W49863  17.338  11.623  13.105 -0.0305 -0.0704 -0.2931
46644W        W49864   4.264  11.737   7.319  0.1599 -0.0344  0.1890
46645W        W49865   6.624   6.003   6.999  0.0103  0.3381 -0.0054
46646W        W49866  17.230  12.141  16.648 -0.3326 -0.0655  0.0794
46647W        W49867  11.454  10.833  16.232 -0.1392  0.0403  0.0013
46648W        W49868   7.085  12.658   7.855  0.3476 -0.1188 -0.3166
46649W        W49869  12.128   8.940   7.789  0.0038  0.0987 -0.2283
46650W        W49870  17.666  16.968  10.309  0.2589  0.1531 -0.3075
46651W        W49871   0.594   8.227  17.629  0.1446 -0.2660 -0.1236
46652W        W49872   7.980  11.224  12.811 -0.0999 -0.1593 -0.2190
46653W        W49873   2.804  13.724  13.065 -0.1140  0.4705  0.0614
46654W        W49874  17.083  13.903  14.542  0.1042 -0.1833 -0.0533
46655W        W49875  15.305  12.955  14.359  0.2502 -0.0118 -0.2126
46656W        W49876   4.600  11.991   0.288 -0.0862 -0.0412  0.1933
46657W        W49877  13.826  14.434  10.513 -0.1189 -0.1021  0.0462
46658W        W49878  17.868  14.621  12.966 -0.0758 -0.0497  0.0086
46659W        W49879  16.562  15.215  12.898  0.1525 -0.0524 -0.2393
46660W        W49880   0.358  13.106  12.973 -0.1194 -0.0257 -0.2118
46661W        W49881  16.659  12.620  15.775 -0.1303 -0.0230 -0.0478
46662W        W49882  17.340  16.244   6.076 -0.0254 -0.1269  0.3128
46663W        W49883  11.740  11.266  16.987  0.1024  0.1159  0.0261
46664W        W49884  15.857  11.588  15.387 -0.1094  0.0874  0.0131
46665W        W49885  16.842  13.272  10.096 -0.2028 -0.0648 -0.1240
46666W        W49886  16.158   6.177  12.702 -0.2180 -0.4384 -0.2175
46667W        W49887  13.091  11.835   5.893  0.1765  0.3065 -0.1164
46668W        W49888  15.803  17.127  16.837  0.0826 -0.1456  0.0608
46669W        W49889   1.643  15.506  15.817 -0.0088  0.0769 -0.2883
46670W        W49890  14.742  12.668  14.942 -0.2092  0.4612  0.1194
46671W        W49891   4.215   2.520   4.652 -0.3159 -0.3339  0.3844
46672W        W49892  11.956  11.544  12.581 -0.0092  0.3565 -0.1135
46673W        W49893  16.691  17.088   9.251 -0.1184  0.0837 -0.1692
46674W        W49894   4.464  16.808  14.708 -0.0292  0.0861  0.2445
46675W        W49895  12.634   0.439  14.131  0.0084 -0.0936 -0.0855
46676W        W49896  10.662  10.489  16.634  0.2612 -0.0843  0.2181
46677W        W49897   1.910   1.950  14.152 -0.2121 -0.1187  0.1681
46678W        W49898   1.275   5.665  13.101  0.1607 -0.1629 -0.1290
46679W        W49899  17.365  15.202   8.297  0.0735  0.0167 -0.1405
46680W        W49900   0.201   5.429  11.588 -0.0172 -0.0053  0.1381
46681W        W49901   0.302  13.886  13.777 -0.0831  0.0948  0.3843
46682W        W49902   1.327   9.439   2.671 -0.2178 -0.0298  0.2871
46683W        W49903  15.977   5.610  12.586 -0.2106 -0.3978  0.1269
46684W        W49904   4.801  10.351   3.121  0.2772 -0.2916  0.1259
46685W        W49905  17.063  16.323   7.431 -0.1706  0.1154  0.2946
46686W        W49906  18.167   1.007  11.982 -0.0008  0.0946  0.0055
46687W        W49907  10.821  11.492   6.721  0.0923  0.0347 -0.1512
46688W        W49908  12.657   9.087   5.111 -0.3109 -0.3383 -0.1484
46689W        W49909   7.409  11.284  11.136  0.0038  0.2933 -0.1367
46690W        W49910  10.021  11.381  11.970 -0.1835 -0.0862  0.2900
46691W        W49911   4.351  15.339  11.841 -0.3374  0.0721 -0.3362
46692W        W49912   4.978  13.316   9.714  0.0998  0.2408 -0.3381
46693W        W49913  14.559  12.545  11.930 -0.0298 -0.1876  0.0717
46694W        W49914  14.755  10.078   6.592 -0.1434  0.0718 -0.1390
46695W        W49915  15.950  11.772  14.937  0.0903 -0.2179 -0.2352
46696W        W49916  18.203  10.628  13.794 -0.1935  0.1637 -0.0467
46697W        W49917   0.026  12.041   2.134  0.3865 -0.2682 -0.0479
46698W        W49918  14.135  12.940  15.156  0.2443 -0.2447 -0.1529
46699W        W49919   9.718   7.097  13.074 -0.1407 -0.0012 -0.2773
46700W        W49920  17.661  14.875   1.907 -0.2033 -0.1043 -0.1726
46701W        W49921  12.462  12.020   1.854 -0.0874  0.0354  0.1630
46702W        W49922   3.047  11.121   0.823  0.1652 -0.0677  0.0760
46703W        W49923   9.579  13.098   7.294  0.0471  0.2077 -0.1969
46704W        W49924   6.709  15.477   2.472  0.0213  0.0189 -0.3104
46705W        W49925  15.710  14.726  15.746  0.1466  0.1469  0.0396
46706W        W49926   0.927  10.071  12.434 -0.0187 -0.1065  0.3452
46707W        W49927   6.062  13.876  16.330 -0.2128  0.0211  0.1578
46708W        W49928  16.849  12.728   9.107  0.4156  0.0948  0.0386
46709W        W49929  10.089   7.196   2.260  0.4485 -0.0132 -0.0016
46710W        W49930   1.315  13.055   5.440  0.0668  0.2930 -0.1133
46711W        W49931  13.745   1.602  13.746 -0.1934  0.1338 -0.1164
46712W        W49932   2.135   9.919   8.654 -0.0440  0.0418 -0.0477
46713W        W49933   4.603  11.930  13.958 -0.2171 -0.2127  0.0498
46714W        W49934   1.520  16.562   3.003 -0.4334 -0.0990  0.1935
46715W        W49935  11.714  18.056   5.720  0.2287  0.1362 -0.0416
46716W        W49936  12.067  17.313  13.698 -0.0795 -0.1084  0.2437
46717W        W49937   0.996  13.031  11.236  0.3373  0.2060 -0.1352
46718W        W49938   9.834  14.667   2.221  0.1440  0.0526 -0.2228
46719W        W49939  12.490  17.778  14.134 -0.1535 -0.1202 -0.2109
46720W        W49940  17.607   4.761  15.709 -0.0455  0.0011  0.1981
46721W        W49941  14.421  12.950  13.397  0.0995  0.2618  0.1007
46722W        W49942  10.455  15.119   4.441 -0.1283 -0.2777  0.1852
46723W        W49943   5.071  11.995  15.162  0.0127 -0.1508 -0.2466
46724W        W49944  15.794   9.208   2.975 -0.1891 -0.2192 -0.0380
46725W        W49945   7.865  10.412  13.800  0.0494  0.2847  0.1349
46726W        W49946  13.552   0.714  12.029  0.1885 -0.0757  0.0459
46727W        W49947  15.549   4.549  12.597  0.1122  0.1225 -0.1422
46728W        W49948  15.210   1.316  13.140  0.3940 -0.2664 -0.1252
46729W        W49949  15.593  15.435  17.346 -0.0070  0.1478 -0.0002
46730W        W49950  14.455  10.628   8.903  0.2158  0.0259  0.0229
46731W        W49951   0.854   6.013   1.766 -0.0244 -0.1632 -0.0768
46732W        W49952   4.917  15.893  15.595 -0.2161 -0.1135 -0.0757
46733W        W49953   3.608   8.283  14.278 -0.1429  0.1193 -0.0859
46734W        W49954  10.158  11.386   8.273  0.0454 -0.0343  0.1498
46735W        W49955  15.728  18.181  15.166 -0.0525  0.1942  0.2483
46736W        W49956  16.024  15.794   1.175  0.6157  0.1899  0.0871
46737W        W49957   1.090  13.559   0.957  0.0297 -0.2607  0.0534
46738W        W49958  16.421   7.739  12.433 -0.1025  0.2339  0.0225
46739W        W49959  18.117  11.838  17.616 -0.1265  0.2897 -0.0978
46740W        W49960  15.801  11.540  16.164  0.1379  0.2524 -0.2172
46741W        W49961  14.207  13.341  16.064 -0.1635 -0.0197 -0.1582
46742W        W49962  11.245   9.485  13.531  0.1805 -0.1930  0.1736
46743W        W49963  16.356  16.431  12.580 -0.0321  0.2224  0.2957
46744W        W49964   0.899  11.888  14.356  0.2695 -0.0580 -0.3856
46745W        W49965   1.594   4.780  11.704  0.1404  0.2085 -0.1556
46746W        W49966   8.737   5.975  17.058  0.0734  0.1473  0.5719
46747W        W49967  15.191   5.218  14.041  0.2193  0.0432 -0.0290
46748W        W49968  15.377  11.521  15.196 -0.0883  0.0569 -0.1114
46749W        W49969  13.811   9.789   5.018 -0.1939  0.2365 -0.0990
46750W        W49970   7.826   7.304  16.621  0.4824 -0.0362  0.1634
46751W        W49971   2.079  17.309  13.755 -0.1374  0.2397 -0.0883
46752W        W49972  15.212  15.475  10.533 -0.1217  0.2192 -0.0711
46753W        W49973   0.166  10.856  15.140  0.1130  0.3245  0.0829
46754W        W49974   1.924  12.684  14.359  0.0088  0.4472 -0.0400
46755W        W49975  13.171  11.531  13.187  0.2490 -0.0136 -0.0272
46756W        W49976   2.097   7.758  18.259 -0.0311  0.0242 -0.0742
46757W        W49977  11.596  13.796   7.068 -0.0025 -0.2613  0.3339
46758W        W49978   7.896  12.326   3.589 -0.0041 -0.0561  0.3161
46759W        W49979  13.682  15.425  12.194  0.2167  0.1451  0.3261
46760W        W49980  17.543   9.357  14.809  0.0020  0.0935  0.0693
46761W        W49981   4.800  17.774  15.096  0.0413  0.0023 -0.4249
46762W        W49982  17.268   9.708  11.851  0.1865 -0.0216  0.1423
46763W        W49983  15.974  17.626  14.889  0.1555  0.0261 -0.1448
46764W        W49984  17.282  16.483   8.770  0.1152  0.0702  0.1228
46765W        W49985  17.289   5.541  12.460 -0.1007 -0.1212 -0.1165
46766W        W49986  13.330   6.654  12.945 -0.1955  0.1368  0.2085
46767W        W49987  11.172  11.249  16.341  0.2394 -0.0416  0.3738
46768W        W49988   3.133   8.234  11.878 -0.4236  0.0494 -0.0336
46769W        W49989   0.308  14.061  13.236 -0.1775 -0.2892 -0.2756
46770W        W49990   8.068  15.661  11.392 -0.0065  0.0021 -0.2558
46771W        W49991  11.553  13.311   7.852  0.1792  0.4963 -0.0208
46772W        W49992  16.373  13.397  15.112 -0.1609 -0.2256  0.0342
46773W        W49993  12.573   0.238  14.592  0.2167  0.1957  0.4111
46774W        W49994  16.652   5.702   6.451 -0.2516 -0.1372  0.1318
46775W        W49995   0.656  14.747   9.327  0.0937  0.2704  0.1103
46776W        W49996   6.545  16.465  15.771 -0.0316  0.1213  0.0617
46777W        W49997  18.243   0.376   9.086  0.0522 -0.0458 -0.0077
46778W        W49998  17.492  10.451  13.907 -0.1031  0.0352 -0.0804
46779W        W49999  16.634   9.324  11.327 -0.1904  0.0360 -0.2066
46780W        W50000   0.601  12.537  13.765  0.1254  0.1195  0.1348
46781W        W50001  14.049  11.480  18.174 -0.1540 -0.0463  0.2181
46782W        W50002  14.233  13.912   0.945 -0.0223 -0.4011  0.1195
46783W        W50003  17.751  16.702  13.994 -0.1648  0.1776 -0.1224
46784W        W50004   2.184  11.558   9.592 -0.0132  0.0016  0.1401
46785W        W50005   1.656  16.298  13.708 -0.0759 -0.1533 -0.3048
46786W        W50006   4.030  10.064  14.686  0.0036 -0.1154 -0.1911
46787W        W50007  15.040  10.113   8.018  0.0966  0.0283  0.1342
46788W        W50008   5.906   7.602   0.143 -0.0708  0.0604  0.0464
46789W        W50009  17.485   9.729  12.653  0.1830  0.0347 -0.0959
46790W        W50010   0.251  14.981  13.981 -0.0736  0.0381  0.2245
46791W        W50011  15.958  14.424   6.031  0.1817  0.3761  0.2259
46792W        W50012   0.867   9.436  17.981  0.4909  0.2177  0.1310
46793W        W50013  13.231  15.007  10.865  0.1869  0.0154  0.0893
46794W        W50014  14.359   2.078  16.209  0.2911  0.0543 -0.1449
46795W        W50015  10.634  15.271  12.025  0.0466 -0.0173  0.3292
46796W        W50016   1.240   8.940  15.999  0.2743  0.1270 -0.2276
46797W        W50017  16.392   3.099  15.860 -0.1390  0.0775  0.1995
46798W        W50018  12.166  10.435   0.300 -0.1408 -0.0254  0.2809
46799W        W50019  12.589  14.703  14.378  0.2037  0.1632  0.1084
46800W        W50020  15.807  14.361   7.679  0.0451  0.2349 -0.1911
46801W        W50021  13.620   1.198  15.822  0.0558 -0.0845  0.1980
46802W        W50022  13.103   8.986  16.809  0.2271  0.2475  0.4209
46803W        W50023   2.865   7.029  17.761  0.1815  0.1335  0.2079
46804W        W50024  14.733   9.340   0.342 -0.1864 -0.0972  0.4241
46805W        W50025   0.878  10.702  13.808  0.3472  0.1611 -0.1380
46806W        W50026  13.415   8.863  15.338 -0.0281  0.3582 -0.1800
46807W        W50027   5.254  17.069  11.817 -0.0431 -0.1936  0.0724
46808W        W50028  14.047  16.948  15.705 -0.1412 -0.0634 -0.0969
46809W        W50029  14.887  13.682  15.043  0.1038 -0.0672  0.1927
46810W        W50030  11.867  13.260   9.285  0.2903 -0.2305  0.0312
46811W        W50031   4.613  13.215   0.118 -0.0789  0.4863  0.1053
46812W        W50032  12.190  13.865  14.134 -0.1492  0.2742 -0.0973
46813W        W50033  11.726  11.475  14.256  0.2893  0.4156 -0.0813
46814W        W50034   8.988   9.367  16.711  0.0549 -0.1121  0.1846
46815W        W50035  16.365   9.227   9.264  0.1411 -0.2379 -0.0882
46816W        W50036   7.793   0.076  13.053 -0.0398 -0.0436  0.1130
46817W        W50037  15.531  11.994   4.311 -0.0361 -0.1673 -0.0165
46818W        W50038  14.955   5.275  15.613 -0.0820 -0.1052 -0.0438
46819W        W50039  11.457  10.832   4.303 -0.0562 -0.4119  0.3177
46820W        W50040  14.715  13.315  17.243 -0.1955  0.3073  0.1543
46821W        W50041  15.322  14.546   5.934  0.4886  0.2145 -0.0821
46822W        W50042  10.268   2.972  15.628  0.3738  0.2140  0.1881
46823W        W50043   2.293  17.062   8.803 -0.1847 -0.2584 -0.0486
46824W        W50044  14.336  13.048  16.455  0.2122 -0.0054 -0.0774
46825W        W50045  10.557  13.151  14.741 -0.0705  0.1421  0.3950
46826W        W50046   0.891   3.640  10.382  0.0388  0.3685 -0.3032
46827W        W50047   3.313   4.594   0.597  0.0978  0.2329  0.0842
46828W        W50048  13.899   7.566   2.673  0.1288  0.0329  0.1192
46829W        W50049  14.741   9.683  18.139  0.0859 -0.1859  0.1430
46830W        W50050   2.494  12.570  17.633  0.1807  0.1931 -0.1383
46831W        W50051   6.081  11.908  13.061  0.1655 -0.1110 -0.1465
46832W        W50052  11.071  15.246   1.365 -0.0942 -0.2121  0.2873
46833W        W50053  15.763  12.488  15.684  0.0749 -0.1139 -0.0997
46834W        W50054  14.399  16.410   0.018  0.2030 -0.0919  0.0776
46835W        W50055  15.577   0.389   9.783 -0.1856 -0.2132  0.2556
46836W        W50056  15.054  13.077  15.748  0.1075 -0.0106 -0.0866
46837W        W50057   1.554   3.653  17.635  0.1394  0.0230 -0.1447
46838W        W50058   4.575  16.882  12.365  0.0631  0.0154  0.1213
46839W        W50059   1.609  14.193   0.001  0.0844 -0.4085 -0.1028
46840W        W50060   2.166  17.592   1.449 -0.0133 -0.0167 -0.3066
46841W        W50061   1.409   9.363  12.945  0.2568 -0.0249  0.0356
46842W        W50062   0.354  15.580  14.003  0.0411 -0.0631 -0.1788
46843W        W50063  10.469  12.751  16.590 -0.3573  0.0367 -0.0207
46844W        W50064  10.167   7.486  17.688 -0.0326 -0.0433  0.4568
46845W        W50065   2.207   5.706  15.333  0.1130 -0.0767 -0.0169
46846W        W50066  18.115  15.428   1.460 -0.3263 -0.1119  0.2267
46847W        W50067  14.188   0.172   4.195  0.1644 -0.2250  0.0575
46848W        W50068  13.294  14.045  14.507 -0.0854  0.0314  0.0884
46849W        W50069  17.135  14.280   3.901 -0.0053 -0.0042 -0.3877
46850W        W50070  16.620  17.043  14.642 -0.1648  0.1500 -0.1637
46851W        W50071  17.850  11.632  12.398 -0.1124  0.4039 -0.2707
46852W        W50072  16.940  15.200   8.527  0.0403  0.1781 -0.0063
46853W        W50073  13.576  13.489   1.232 -0.3023  0.1362 -0.4610
46854W        W50074   0.503  10.266  16.832 -0.0866  0.2154  0.0057
46855W        W50075  11.020   1.075   8.082 -0.2099  0.1978 -0.1252
46856W        W50076  15.627  11.391  18.049  0.0566  0.1221 -0.1716
46857W        W50077  17.803   5.059  12.496 -0.2892 -0.0436 -0.0162
46858W        W50078   3.239   9.438  13.965  0.1740 -0.0459  0.0726
46859W        W50079   7.795  11.521  12.458  0.0540 -0.2866  0.1316
46860W        W50080  17.514  17.252  12.258 -0.1349 -0.3167 -0.1171
46861W        W50081   7.459  15.468  12.578  0.2373  0.1015 -0.1186
46862W        W50082  13.227   7.545  14.231 -0.2411  0.0757  0.0604
46863W        W50083   2.356  17.806  18.035 -0.0014 -0.4276 -0.4366
46864W        W50084   9.961   8.648  13.048 -0.1277 -0.3207  0.2390
46865W        W50085   9.041  14.150   1.750  0.1099 -0.2429  0.1454
46866W        W50086   1.678  10.842  17.644 -0.0211 -0.0768  0.1919
46867W        W50087  13.774  13.606   7.799 -0.1046  0.2266  0.1506
46868W        W50088  12.069  10.323   1.383 -0.0834 -0.1832 -0.0013
46869W        W50089   0.672   9.546  14.701  0.0032  0.2217  0.0997
46870W        W50090  13.562   7.467  11.974 -0.0301  0.0485  0.2397
46871W        W50091  14.622  15.260  17.702 -0.0426  0.0655 -0.0204
46872W        W50092  12.636   8.781   0.134  0.2745  0.2419 -0.0495
46873W        W50093  11.635  15.947  15.788 -0.0690  0.1352 -0.0880
46874W        W50094   0.578  12.714   0.130 -0.0447  0.1100 -0.0755
46875W        W50095   5.351   9.200   2.194 -0.0692  0.1647 -0.1770
46876W        W50096  16.843  17.389  18.200  0.1965  0.2709 -0.0147
46877W        W50097   0.610  16.866  11.881 -0.0610 -0.1175 -0.2045
46878W        W50098  16.004  11.932   9.986 -0.0603 -0.1444 -0.0376
46879W        W50099   8.833  11.038  18.147 -0.1721 -0.2843  0.1757
46880W        W50100  11.768  14.046  13.900  0.0869  0.2036 -0.0163
46881W        W50101  16.155  14.914  15.476  0.2186  0.1327  0.0892
46882W        W50102  17.040  12.466  15.456 -0.0790  0.1203  0.1799
46883W        W50103  15.515   6.752  15.362 -0.1387  0.0506  0.2317
46884W        W50104  12.638  10.831  14.056  0.2519  0.3033 -0.0524
46885W        W50105   8.851   4.651  17.583 -0.0240 -0.0475  0.0282
46886W        W50106   7.554   0.483  16.240 -0.2974  0.2102  0.2864
46887W        W50107  15.169  12.582  14.103  0.1710  0.3980  0.1036
46888W        W50108  12.663   0.491  10.327  0.3031  0.0399  0.2506
46889W        W50109  17.915  12.174   0.283 -0.0250 -0.1590 -0.1340
46890W        W50110   5.771  16.452  12.170  0.1232  0.1958 -0.0588
46891W        W50111  17.587  13.901   0.845  0.4703 -0.2218 -0.0683
46892W        W50112  16.542  16.728  16.309  0.0029  0.1590  0.1181
46893W        W50113  16.288  14.002  16.039  0.1308 -0.1894 -0.0217
46894W        W50114   5.654  15.983  16.161  0.1492 -0.0179 -0.2088
46895W        W50115  13.970  17.275  13.117  0.0188  0.0063 -0.0141
46896W        W50116  16.021  11.175  12.178  0.0392 -0.0649 -0.2639
46897W        W50117  15.660  13.656   3.721  0.1326  0.0827  0.1832
46898W        W50118  12.728  10.942  13.109 -0.1826  0.1523 -0.1300
46899W        W50119  11.013  12.052   2.146  0.1435 -0.1510 -0.1148
46900W        W50120  11.577   9.856   2.438 -0.2803  0.0871  0.1611
46901W        W50121   4.460   3.111   7.625  0.1310  0.1122  0.1569
46902W        W50122  12.059  10.322   0.887  0.1279 -0.1177  0.0296
46903W        W50123   2.430  10.579   2.556 -0.0949 -0.3296  0.2576
46904W        W50124   3.896  12.453  17.954  0.4416 -0.3976  0.0410
46905W        W50125  16.667  13.984   0.918  0.0166  0.1548  0.2664
46906W        W50126   0.735   5.219  16.578  0.0793  0.2299  0.3050
46907W        W50127   0.367  14.307  14.791  0.2362 -0.0817  0.2639
46908W        W50128  17.123  11.733   4.053 -0.1677  0.1909  0.0580
46909W        W50129  15.884   9.257  15.944 -0.0900 -0.0135  0.0410
46910W        W50130  17.986  14.504  15.763  0.1011 -0.0104 -0.1842
46911W        W50131   7.429  17.315  14.012 -0.1411  0.1949  0.0324
46912W        W50132  15.385  12.099   0.455 -0.0317 -0.0174 -0.0537
46913W        W50133  17.243  17.184  12.780 -0.2404  0.1891  0.0341
46914W        W50134   0.599  17.759  14.114  0.0309  0.1092  0.0178
46915W        W50135  16.264  11.986   2.772 -0.0050 -0.3183  0.2046
46916W        W50136  10.857   5.441   4.695 -0.2173 -0.2540  0.2549
46917W        W50137  12.648   7.108  10.891  0.0413  0.0512 -0.0438
46918W        W50138  15.430  15.507  12.012  0.0476  0.0773 -0.1292
46919W        W50139  16.557  12.083   3.459  0.2583 -0.0143  0.3376
46920W        W50140  12.342   8.131  13.552 -0.1574  0.2806 -0.0154
46921W        W50141  15.219   5.104   2.119  0.2260  0.0959 -0.2148
46922W        W50142  17.336   4.092  12.547 -0.2828 -0.3225 -0.3973
46923W        W50143  15.576   3.858  15.368 -0.2848  0.1136 -0.4874
46924W        W50144  18.068   1.916  14.829 -0.0469  0.1142  0.1231
46925W        W50145   6.083  13.543   3.393 -0.0335  0.3169  0.2153
46926W        W50146  13.414   7.545   0.386  0.2838 -0.1660  0.2071
46927W        W50147  12.015  11.971   0.268  0.2811  0.0681  0.1338
46928W        W50148  17.801  12.813   4.960  0.1954 -0.3628 -0.1400
46929W        W50149  16.285   0.733  17.570  0.2049  0.2209  0.1537
46930W        W50150  12.494  13.692  10.683  0.2802  0.2726  0.1617
46931W        W50151  11.631  17.169  13.697 -0.0625 -0.1530  0.3156
46932W        W50152  17.410  14.353  12.402 -0.1246  0.0023 -0.1154
46933W        W50153   9.868   0.838   2.484  0.0375  0.1657  0.0462
46934W        W50154   0.678  12.543  17.825 -0.2357 -0.1200 -0.0507
46935W        W50155  10.876  14.074  14.543 -0.1459 -0.1527  0.1248
46936W        W50156   6.948  12.986  11.949 -0.0004 -0.2574 -0.0571
46937W        W50157  11.938  11.397  13.077  0.0099 -0.2176 -0.0314
46938W        W50158  17.281  11.405   1.030  0.2051 -0.1067  0.0989
46939W        W50159   2.253  10.187  15.279  0.1008 -0.4211  0.3043
46940W        W50160   2.374   6.238   8.173 -0.0439  0.1917  0.0088
46941W        W50161  16.186  13.066  17.993 -0.3129  0.0691  0.2018
46942W        W50162  18.020  12.311   5.072 -0.0173  0.0021 -0.2149
46943W        W50163   1.935  15.252   2.506 -0.0678  0.0314  0.0699
46944W        W50164  11.080  15.706  13.057 -0.0882  0.1622 -0.0737
46945W        W50165  17.946  13.724  12.908 -0.1588  0.1721  0.0971
46946W        W50166   3.640  15.887  12.150 -0.1060 -0.2109 -0.1499
46947W        W50167  12.004  11.579   3.140  0.0200  0.2878  0.3817
46948W        W50168  16.228  16.369  16.596  0.0034  0.2067 -0.0471
46949W        W50169  13.101   0.931  14.393  0.1895 -0.0283 -0.0046
46950W        W50170   1.234  15.855   1.483  0.1834 -0.1981  0.0908
46951W        W50171  14.930  14.289  13.127 -0.1103  0.1505  0.1718
46952W        W50172  16.656  12.566  14.322 -0.0040  0.3234  0.2025
46953W        W50173  16.229   7.162   1.512  0.0938 -0.0828 -0.2250
46954W        W50174  11.733  10.493  18.063  0.1910 -0.3044  0.0882
46955W        W50175   1.006  10.213   4.317  0.1526  0.0338  0.0735
46956W        W50176  13.298  13.454  12.810  0.0316  0.0599  0.0867
46957W        W50177  12.877  18.000  16.160 -0.0292 -0.3356  0.0344
46958W        W50178   0.353  13.191   0.911 -0.1528  0.1514 -0.1540
46959W        W50179  13.128  18.115  17.119  0.0519 -0.0537 -0.1634
46960W        W50180   0.952  11.060  15.057 -0.0212  0.0788  0.1220
46961W        W50181  15.900  13.318   1.291 -0.1521  0.0171  0.0868
46962W        W50182   3.239   7.545   7.255  0.0371  0.0812 -0.0468
46963W        W50183  12.633  15.229   8.698 -0.1142 -0.0012  0.1240
46964W        W50184  14.867   0.339  17.329  0.1400  0.0325  0.2689
46965W        W50185   0.201  13.330   9.413  0.0378 -0.2662  0.0827
46966W        W50186   0.179  14.636   1.294  0.1208 -0.2109 -0.0244
46967W        W50187   8.131  13.481   9.451  0.0480 -0.0913  0.2272
46968W        W50188   7.911   8.604   5.923 -0.1887  0.2093 -0.3394
46969W        W50189   2.685  11.955   4.203 -0.0596  0.2138 -0.0700
46970W        W50190  16.352  15.688   0.820  0.1233 -0.0361  0.2363
46971W        W50191  13.357  17.346   0.451 -0.2372 -0.0549  0.3460
46972W        W50192   1.098  11.607  13.974  0.1314 -0.1257  0.0051
46973W        W50193   9.253  13.670   4.279  0.1036 -0.1232  0.1688
46974W        W50194  15.309  14.120   9.443 -0.4077  0.1220 -0.2230
46975W        W50195   5.406  11.889   0.250  0.0470 -0.1353  0.1755
46976W        W50196   0.884  11.119   7.432  0.2605  0.1242  0.0679
46977W        W50197   9.568  13.726  13.243  0.1337 -0.2796 -0.2597
46978W        W50198  16.760   3.278   5.494 -0.0776  0.1223  0.0463
46979W        W50199  17.124   8.240  17.083  0.2874 -0.0179  0.0845
46980W        W50200   0.389   8.891   5.606  0.1899 -0.1589 -0.0389
46981W        W50201  13.537  18.254  17.388 -0.2165  0.1920  0.1214
46982W        W50202  10.999  18.226   0.726 -0.2330 -0.0072  0.2401
46983W        W50203  16.008  14.138   1.959  0.0734  0.0025 -0.1514
46984W        W50204  11.245  12.279   7.658 -0.0586 -0.1626  0.0523
46985W        W50205   3.162  12.826  16.232  0.1029  0.2566  0.1200
46986W        W50206   2.222   9.865  17.611  0.2311 -0.0699  0.2216
46987W        W50207   2.407  11.229  10.777  0.0811 -0.0301 -0.0431
46988W        W50208   1.244  11.991  10.510 -0.0277  0.1124 -0.1198
46989W        W50209  16.765  11.449  11.273 -0.1133  0.1805 -0.0563
46990W        W50210   1.350  11.796  14.424  0.3343 -0.1192 -0.0286
46991W        W50211  17.752  14.629   8.847  0.0255 -0.1212  0.5424
46992W        W50212   0.006  16.521  14.170 -0.2373  0.1879  0.0897
46993W        W50213  12.579   4.359   3.861  0.2022 -0.1570 -0.1058
46994W        W50214   2.133  15.783  15.826  0.3336 -0.0474 -0.0146
46995W        W50215  11.911  17.130  17.156 -0.1218 -0.3779 -0.3818
46996W        W50216   2.367   0.492   0.084  0.2158 -0.0363  0.0674
46997W        W50217   0.214  11.764  15.437  0.1809 -0.1782 -0.0266
46998W        W50218  15.617  11.463   1.975  0.1760  0.0954 -0.0828
46999W        W50219  11.522  11.766  17.021 -0.2672 -0.1236 -0.0815
47000W        W50220  12.058   4.318  17.476 -0.0182 -0.1096 -0.0256
47001W        W50221   0.083  12.070  10.846 -0.1361 -0.0827 -0.0225
47002W        W50222  14.690  11.343   8.273  0.1943  0.0927  0.1000
47003W        W50223  18.237  10.758   4.978 -0.1508  0.1238 -0.1254
47004W        W50224  17.930  15.494   4.939 -0.0881 -0.0777  0.0323
47005W        W50225   9.047  14.326  16.926 -0.0310  0.1110  0.1239
47006W        W50226  12.343  17.481  17.288 -0.2024 -0.3158 -0.2012
47007W        W50227  15.064  10.759  13.372 -0.2826  0.1387  0.0579
47008W        W50228  13.730   8.835  15.711 -0.0564 -0.1741  0.0303
47009W        W50229   5.215  10.637   0.778  0.0543 -0.1839 -0.0919
47010W        W50230   0.986  14.390   0.136 -0.1147 -0.0888  0.0171
47011W        W50231   1.271   6.480  18.016  0.0794  0.1898 -0.0819
47012W        W50232  10.775  17.160   8.658 -0.3392  0.3064 -0.0492
47013W        W50233   0.961  18.058  17.927  0.0166 -0.1123 -0.1059
47014W        W50234   4.440  10.230  10.990 -0.1475  0.0831  0.1634
47015W        W50235  16.276  10.173   1.885  0.1355  0.1998 -0.1283
47016W        W50236   3.872   8.866   7.856 -0.5100 -0.0053 -0.0290
47017W        W50237   3.113   7.596  10.548 -0.0167  0.1375  0.1450
47018W        W50238  11.962  15.249   2.756 -0.0044  0.1127 -0.1344
47019W        W50239  17.657  13.748   1.300 -0.1022 -0.0495  0.1731
47020W        W50240  10.243   4.321   7.803 -0.4777 -0.0563  0.0405
47021W        W50241   9.853  16.521  15.628  0.0414  0.2576  0.2700
47022W        W50242  12.129  12.997  15.324 -0.0290 -0.2017 -0.0902
47023W        W50243  16.788  12.920   0.722 -0.0622 -0.1366  0.0098
47024W        W50244  16.702  13.469  13.653 -0.0439  0.2687  0.2928
47025W        W50245  14.596  16.192   0.945 -0.1700 -0.0219 -0.0804
47026W        W50246  15.149  14.899   1.161 -0.1791  0.0074  0.1157
47027W        W50247   9.892  11.071   1.302  0.0036 -0.2768 -0.2614
47028W        W50248  14.484  13.055  17.734 -0.1338  0.1235  0.2342
47029W        W50249  16.120  14.474  15.160  0.1944 -0.2617  0.0882
47030W        W50250  11.705   7.398  15.493 -0.1107 -0.0749 -0.0623
47031W        W50251   0.095  14.352  12.270 -0.1043  0.1487 -0.1096
47032W        W50252   9.387  15.053  14.700  0.1161  0.1847 -0.0398
47033W        W50253   0.632  13.141  14.476  0.0292  0.1309 -0.1551
47034W        W50254   2.484   6.269   4.526  0.2949 -0.0512 -0.0065
47035W        W50255   2.721   0.696  11.098 -0.2176  0.0392 -0.3801
47036W        W50256  13.997  15.916  15.045  0.4421  0.1132  0.0614
47037W        W50257  15.043  14.022   0.831 -0.0454  0.3360  0.1246
47038W        W50258   7.487   2.258  10.648 -0.0703  0.2187  0.2677
47039W        W50259  14.963  11.554  13.738  0.1966 -0.0247  0.2005
47040W        W50260   0.519   0.523  10.593  0.0829 -0.0069 -0.3980
47041W        W50261  13.318  13.932   2.048 -0.0519 -0.0355 -0.1794
47042W        W50262   4.245  10.984  14.166 -0.0883 -0.1518 -0.2122
47043W        W50263  15.367   7.744  15.861 -0.0382  0.0742 -0.0524
47044W        W50264   0.673  15.443   2.694  0.2010 -0.2243  0.2059
47045W        W50265   7.989   9.006   1.076  0.0502 -0.2810 -0.4063
47046W        W50266   0.810  14.624  16.303  0.0612 -0.1454 -0.0766
47047W        W50267  18.002   8.870   2.668  0.2272  0.1732  0.0248
47048W        W50268  14.213   9.825  13.523  0.0766 -0.1183 -0.2207
47049W        W50269  16.798   9.475  16.362  0.1589  0.0257  0.0923
47050W        W50270   2.243   2.264  14.317 -0.0461  0.0856 -0.1695
47051W        W50271   1.046   9.399  16.953  0.1341 -0.2065  0.2664
47052W        W50272   4.559  13.607  15.975  0.1557 -0.0852  0.1081
47053W        W50273  13.074  12.184  15.154  0.0288 -0.0050 -0.1491
47054W        W50274  17.484  14.238   9.841 -0.0111  0.0551  0.2921
47055W        W50275   1.472   9.388  13.440  0.1318  0.3089 -0.2069
47056W        W50276  16.430  18.141  17.919  0.1357  0.0293  0.0928
47057W        W50277   8.019  12.562  13.765 -0.1687  0.0558 -0.2902
47058W        W50278  13.462   8.783   1.427 -0.0785 -0.0195 -0.1013
47059W        W50279   2.563  11.383   1.532  0.0890 -0.0548  0.1763
47060W        W50280   0.339   5.224  11.082  0.2008 -0.2868  0.0204
47061W        W50281  15.580  17.036   1.278 -0.0396 -0.1255 -0.1715
47062W        W50282   8.418   9.370   0.316 -0.0819 -0.0887  0.2793
47063W        W50283   1.340  13.130   0.865  0.1317  0.3215 -0.4543
47064W        W50284   7.876   8.785   2.288 -0.0853  0.5181 -0.1823
47065W        W50285  17.621  16.027   0.088  0.0982 -0.1185  0.3795
47066W        W50286  12.378   0.868   2.348  0.2139  0.1196  0.1329
47067W        W50287   4.490   1.738  16.772 -0.0111 -0.1922 -0.0219
47068W        W50288  16.612   4.886  16.195 -0.1181  0.2047 -0.2947
47069W        W50289  10.021   9.881  16.544  0.0879 -0.1883 -0.0987
47070W        W50290  10.648  14.651  15.847 -0.2771  0.0960 -0.2055
47071W        W50291  15.090  12.380   2.254 -0.2089  0.0453 -0.2614
47072W        W50292  16.051  16.026   2.159  0.1315 -0.1377  0.1499
47073W        W50293  16.746   0.424  15.931 -0.0451 -0.1650 -0.1243
47074W        W50294   0.200  11.245   9.569  0.3101  0.0213 -0.2402
47075W        W50295  15.924   8.123   2.665 -0.0403 -0.1030 -0.2351
47076W        W50296  12.554  11.909  15.087  0.1303  0.1339  0.3881
47077W        W50297   1.332  17.283  11.311 -0.0607  0.2000  0.0347
47078W        W50298   8.834  12.072   5.636 -0.1474 -0.0751  0.0888
47079W        W50299  11.454   7.028   0.542 -0.0840  0.0316 -0.0198
47080W        W50300  16.652  15.102  13.801 -0.2420  0.0129  0.3337
47081W        W50301  11.399  13.558  14.618  0.1717  0.0306 -0.2709
47082W        W50302  10.557  13.561  15.964  0.1691 -0.2945  0.2572
47083W        W50303   2.442  15.016  16.257  0.1001  0.2017 -0.0720
47084W        W50304   6.982  11.301  17.774 -0.2984  0.2126 -0.3311
47085W        W50305  14.173  15.108   3.769  0.0212 -0.0243 -0.0389
47086W        W50306  14.235  11.337   1.511  0.1683  0.2940  0.0313
47087W        W50307  16.571   6.610   3.365 -0.0789 -0.0683  0.1887
47088W        W50308  15.675  11.304  17.014  0.0694 -0.1210  0.1891
47089W        W50309  18.113  13.888   3.254  0.0093 -0.0186  0.0088
47090W        W50310  17.814   9.318  13.163 -0.0148  0.1087 -0.0223
47091W        W50311  14.403  12.726   2.833  0.0322  0.0009  0.2669
47092W        W50312  14.832  16.786  10.166 -0.3545  0.0622 -0.0733
47093W        W50313  13.043  13.819   4.767  0.2230 -0.0273 -0.1806
47094W        W50314  11.785  12.383  12.978  0.1077  0.1102  0.2995
47095W        W50315   5.932  13.610  12.510 -0.1398  0.1354  0.1040
47096W        W50316  12.231  11.731   6.963  0.0021  0.1486  0.1174
47097W        W50317  11.205   7.799   0.768  0.2483  0.0372  0.0974
47098W        W50318  13.704  17.360  17.829  0.0868  0.1997  0.3545
47099W        W50319  14.747  15.969  14.813  0.0663  0.2930  0.0464
47100W        W50320   1.933  11.785  17.586 -0.0379  0.1451 -0.0464
47101W        W50321  12.370  14.254  16.745 -0.2671  0.0232 -0.1948
47102W        W50322  12.261   9.046  16.862 -0.4930 -0.1297 -0.0876
47103W        W50323   0.972   6.040   9.540 -0.1858  0.1672 -0.5174
47104W        W50324  12.462   1.712  10.338  0.0783 -0.3091  0.4205
47105W        W50325  12.243  17.253  16.204  0.0636 -0.1224 -0.0137
47106W        W50326   0.719  10.889   2.936 -0.1281  0.0356  0.1032
47107W        W50327  16.890   5.329  16.479 -0.0438  0.1534 -0.2416
47108W        W50328  14.594  14.625   1.175  0.3760 -0.2484  0.0865
47109W        W50329  17.434   0.680  16.207 -0.0749 -0.1243 -0.0713
47110W        W50330   0.348   8.968   3.002  0.0915 -0.3911  0.0166
47111W        W50331   9.456  13.051  16.996  0.4424  0.0898 -0.1001
47112W        W50332  15.547  18.130  11.893 -0.1789  0.0201 -0.0805
47113W        W50333  13.170   9.824   0.980 -0.3140  0.1004  0.1013
47114W        W50334   1.775  16.985   0.116  0.2191  0.1195 -0.1910
47115W        W50335   9.853  16.680  14.194  0.1773 -0.1556  0.0174
47116W        W50336   9.456   8.647   4.304  0.2620  0.3138  0.0714
47117W        W50337  16.538  15.628  16.052  0.0462 -0.0933 -0.0553
47118W        W50338   4.300  12.313  18.250  0.0773  0.3054 -0.0397
47119W        W50339   2.202  15.566   9.500 -0.2290 -0.3198 -0.1423
47120W        W50340  11.528  15.734  13.884  0.2432  0.0946  0.0663
47121W        W50341  15.908  11.557   3.564 -0.3081 -0.0905  0.0222
47122W        W50342  16.327  12.772  13.317  0.0512 -0.1581  0.0754
47123W        W50343   4.445   2.585  16.009  0.0049 -0.1253  0.1111
47124W        W50344  15.024   0.089  13.913 -0.0960 -0.0699 -0.1586
47125W        W50345   0.926  13.247  16.745 -0.2525 -0.1962 -0.1010
47126W        W50346  12.993  14.117   0.946  0.0142 -0.0420  0.0162
47127W        W50347   1.013   9.164   1.773 -0.4139  0.1923  0.1423
47128W        W50348  16.560  12.811   1.877  0.0677  0.1329  0.2509
47129W        W50349   8.417  14.949   2.040  0.0009 -0.2740  0.0071
47130W        W50350  11.185   3.302  13.984  0.0443 -0.0951 -0.2810
47131W        W50351  11.503   6.386  13.677 -0.3586  0.0018 -0.4474
47132W        W50352   0.499  17.029   4.841  0.0320  0.2168 -0.0225
47133W        W50353   2.278  17.721   1.984  0.0379 -0.1709  0.2190
47134W        W50354   1.047   1.226   6.061  0.0041  0.2853  0.1518
47135W        W50355  15.609   7.031   0.954 -0.1449  0.0708 -0.1542
47136W        W50356  14.678  13.946  17.376 -0.2666  0.0514  0.3368
47137W        W50357  15.818   9.558   4.534  0.3244  0.1108  0.0865
47138W        W50358  14.882  15.329   4.105 -0.0124 -0.0365 -0.1016
47139W        W50359  12.380  13.617  16.148 -0.2601 -0.1489  0.0389
47140W        W50360  16.423   3.173  14.577  0.2176  0.1121  0.0877
47141W        W50361  15.565   7.220   1.596  0.0179 -0.0003  0.0472
47142W        W50362   1.172  17.772  15.388  0.1367  0.0501 -0.3563
47143W        W50363   0.573  10.355  12.549 -0.0512 -0.1621 -0.1000
47144W        W50364   0.260  16.629  17.017 -0.1371  0.0757 -0.1512
47145W        W50365  15.453   5.424  15.704 -0.0792  0.0752  0.3718
47146W        W50366   1.120   8.913  17.656  0.0272  0.1324 -0.0364
47147W        W50367  18.102  13.024  15.422 -0.0677  0.0757  0.3036
47148W        W50368   7.993  11.408  17.264  0.2272  0.0942 -0.2658
47149W        W50369   2.081  12.654  16.619 -0.1583 -0.0045 -0.2647
47150W        W50370   2.329   1.615  11.481 -0.1801  0.1536  0.0072
47151W        W50371   6.549  12.321   1.125  0.2264  0.1261 -0.0364
47152W        W50372  12.492  15.981   1.584  0.0887 -0.2590 -0.3157
47153W        W50373   1.106   0.476  14.769  0.0381  0.0780 -0.0558
47154W        W50374  11.164   7.947   2.052  0.1256  0.0028  0.1299
47155W        W50375  11.723  11.719  11.972  0.0626 -0.0117  0.0546
47156W        W50376  14.281   0.874  17.828  0.0379 -0.0872 -0.0948
47157W        W50377  12.304  13.764   1.987 -0.2185  0.1722 -0.0150
47158W        W50378  16.946   9.363   1.713  0.1798 -0.1353 -0.2367
47159W        W50379  11.128   0.885  15.355 -0.2711  0.0181  0.0274
47160W        W50380   5.148   4.337  11.376 -0.0782 -0.1344  0.1777
47161W        W50381  12.215  15.807  16.548  0.0221  0.1086  0.0637
47162W        W50382   7.692  11.408   2.000  0.0070 -0.0381 -0.2513
47163W        W50383   2.967  12.533  17.685 -0.0474 -0.1768  0.0439
47164W        W50384  11.580   8.016  17.598 -0.0393 -0.1972 -0.2928
47165W        W50385   3.372  12.648   2.908 -0.1139 -0.0558 -0.4592
47166W        W50386  14.820  11.756  13.236  0.1834  0.0105  0.2239
47167W        W50387   7.683  16.311  14.800 -0.1598 -0.1440 -0.1204
47168W        W50388  17.043  15.034   9.409  0.3371 -0.1800 -0.2198
47169W        W50389  14.040   1.585  15.934  0.4860 -0.1910 -0.0441
47170W        W50390  12.866   8.807   7.004  0.0008  0.0361 -0.0239
47171W        W50391   0.065  14.139   0.074 -0.0696  0.3540  0.1594
47172W        W50392   0.673  15.131   3.291 -0.0180  0.0841 -0.0185
47173W        W50393  13.415  16.064   1.403  0.0369 -0.1666 -0.1436
47174W        W50394  12.530   7.635   3.115 -0.0149 -0.0818 -0.2254
47175W        W50395   1.264  17.423  13.118  0.1662 -0.0546  0.0103
47176W        W50396  11.513  15.017   1.017  0.1961 -0.0695 -0.3086
47177W        W50397  16.871  12.523  11.719  0.0953  0.1633 -0.2307
47178W        W50398  10.515   4.801   6.452  0.0002  0.1197  0.1796
47179W        W50399  17.262   0.148   0.537 -0.1921  0.1206 -0.1422
47180W        W50400   1.234  15.278  16.005 -0.1411 -0.0397  0.2306
47181W        W50401   2.898   4.236  12.721  0.0241  0.1727 -0.2876
47182W        W50402  16.435   2.912   5.548 -0.0101 -0.1872  0.1948
47183W        W50403  14.156   7.340  14.917 -0.0070  0.2643 -0.0353
47184W        W50404   0.037  10.595  12.527  0.1100 -0.1112 -0.2090
47185W        W50405  12.897  11.144   1.404 -0.1433  0.1206 -0.0975
47186W        W50406  14.554  16.095  17.105  0.0792 -0.0693  0.0056
47187W        W50407  14.834  14.666  11.878 -0.0231  0.1645 -0.3517
47188W        W50408   5.140  14.080   9.083 -0.1345 -0.0008  0.0102
47189W        W50409  16.695  15.413   7.127 -0.4268 -0.1158  0.1278
47190W        W50410  16.973  15.615  14.483  0.2162  0.1364  0.1269
47191W        W50411  17.802  12.203   1.868  0.2850 -0.0710 -0.1345
47192W        W50412   1.421  17.412  17.219 -0.0545  0.1465 -0.4012
47193W        W50413  17.391  13.177   2.106  0.0889 -0.0297 -0.2846
47194W        W50414  14.622  10.997  17.205 -0.1414  0.0697  0.0841
47195W        W50415  13.481   7.643  17.448 -0.0162  0.1671  0.1928
47196W        W50416  14.687   7.772   1.554 -0.1940 -0.1180  0.1251
47197W        W50417  15.043  16.760  16.164 -0.1993  0.0006  0.4064
47198W        W50418  12.153   0.665  12.285  0.1389 -0.1798  0.1472
47199W        W50419  15.199  12.459  16.330 -0.1435  0.0368  0.1600
47200W        W50420  16.342  15.755   1.547  0.0352  0.0427  0.3752
47201W        W50421  14.049  16.333   9.753  0.3409 -0.0015  0.0556
47202W        W50422   0.275  18.223  17.231  0.2137  0.0184 -0.0920
47203W        W50423  12.960  11.981   1.255  0.1299 -0.1416  0.2197
47204W        W50424   3.423   9.735   1.263  0.2941 -0.2336 -0.0054
47205W        W50425   9.782  15.971  17.636  0.0014  0.2960 -0.2508
47206W        W50426  15.661  10.627  15.283 -0.0093 -0.1185  0.2469
47207W        W50427  14.601  14.929   4.681  0.0106 -0.0836 -0.0427
47208W        W50428  15.769  16.963  14.573 -0.1614  0.2090 -0.1853
47209W        W50429   8.590   7.333   0.067  0.0459  0.2472 -0.2186
47210W        W50430  15.348  13.846  14.784  0.1574 -0.0064  0.1733
47211W        W50431   2.410   2.707   6.070  0.0366 -0.1605 -0.0777
47212W        W50432  10.449  12.730   1.565  0.1377 -0.0507  0.4328
47213W        W50433  10.064  12.832   2.039 -0.0803 -0.2536 -0.0159
47214W        W50434  17.577  13.214   9.563  0.2039 -0.1805 -0.1557
47215W        W50435  15.185   3.683  13.329 -0.0556 -0.4160 -0.0531
47216W        W50436  12.814   1.486  15.300  0.0047 -0.1930 -0.1429
47217W        W50437  15.681   0.697   0.224  0.1366 -0.0434 -0.1951
47218W        W50438   8.538   3.384  12.702  0.0655  0.2501 -0.1383
47219W        W50439   7.509  16.091  16.039 -0.2220  0.0160 -0.0568
47220W        W50440  17.348   9.338   2.060 -0.2757  0.0534  0.0554
47221W        W50441  11.618   1.858  16.907 -0.0327  0.2051  0.2718
47222W        W50442   3.321  16.057  16.313 -0.1579 -0.0066 -0.3620
47223W        W50443  14.284   3.400  17.718 -0.2071 -0.3115 -0.2235
47224W        W50444  17.457  15.332  16.942  0.0074 -0.0004  0.2064
47225W        W50445  14.357  17.506  15.574  0.5671 -0.0287 -0.1240
47226W        W50446  14.646  13.364   0.376 -0.1359 -0.5035 -0.1620
47227W        W50447  14.936  13.237  12.413  0.0551 -0.1016  0.1157
47228W        W50448  18.020  15.204   0.386 -0.0504  0.1211  0.2129
47229W        W50449  11.470  17.601  15.431  0.3067  0.1267 -0.1789
47230W        W50450  16.130   3.668   7.147  0.0285  0.1123  0.0789
47231W        W50451  17.999  14.542   5.566 -0.1093 -0.1840 -0.1043
47232W        W50452  11.118   0.619  16.653 -0.2756 -0.2124 -0.0965
47233W        W50453  15.781  14.626  16.257  0.2076  0.0112  0.3475
47234W        W50454   7.751  10.781  18.110  0.6413  0.1551 -0.1602
47235W        W50455   5.321  17.877  17.382 -0.0270 -0.0185  0.0805
47236W        W50456  17.964  14.466   5.038  0.0303 -0.1740  0.2449
47237W        W50457  13.728  16.648   4.157  0.0956  0.3373  0.0594
47238W        W50458   8.501  18.242   1.731  0.0623 -0.1248  0.0139
47239W        W50459  13.103  14.284   8.125 -0.3998  0.0950  0.1334
47240W        W50460  16.610  17.536   1.540  0.0568 -0.2893 -0.2501
47241W        W50461  14.617  18.069   5.063 -0.0700 -0.1932  0.1471
47242W        W50462  11.862   1.920   2.671  0.0400 -0.0151 -0.1407
47243W        W50463   5.342   0.807   7.363 -0.1412  0.1334 -0.1881
47244W        W50464  10.660   3.412   0.733  0.1427  0.0327  0.3157
47245W        W50465  14.894   0.521  15.968  0.0474  0.2719  0.0936
47246W        W50466   1.161   8.576   3.738  0.0161  0.1820  0.0781
47247W        W50467  16.101  16.950  18.175  0.0992 -0.2065  0.0996
47248W        W50468   0.589   5.871  10.398  0.0108  0.0072  0.1557
47249W        W50469   9.543   8.663   7.007 -0.3887 -0.1140  0.1138
47250W        W50470   1.804   0.944  16.837 -0.3259 -0.1466 -0.0535
47251W        W50471  10.594  14.161  17.860 -0.1543 -0.1610 -0.0380
47252W        W50472   1.675   6.259  16.613 -0.2263 -0.0372  0.1988
47253W        W50473  15.879   0.668   1.139 -0.1071 -0.2491  0.3457
47254W        W50474   5.074   0.466   5.730  0.0648 -0.0011 -0.1448
47255W        W50475  12.248   0.963  17.782  0.2124 -0.0038  0.2748
47256W        W50476   8.507  17.632   0.058  0.0086  0.0042 -0.0059
47257W        W50477  10.653   9.881   0.709  0.2013  0.0687  0.0687
47258W        W50478  13.537   2.381  17.356  0.1295 -0.0291  0.1341
47259W        W50479   6.921  13.127   0.191 -0.1154  0.0017 -0.2272
47260W        W50480  15.407   5.517  18.150 -0.3045  0.1392  0.0530
47261W        W50481  17.540  11.355   4.152  0.1223 -0.0046 -0.1944
47262W        W50482   0.268  15.538   1.099  0.2376 -0.1011  0.1154
47263W        W50483   4.153  17.977  14.515  0.0493 -0.0106 -0.1961
47264W        W50484  15.442  16.193   3.923 -0.3265 -0.1571 -0.1904
47265W        W50485   0.790  17.181   2.534 -0.1321  0.1220 -0.1674
47266W        W50486   0.509   1.986   3.463 -0.2182  0.1196  0.0419
47267W        W50487   2.631  13.788   8.171  0.0695 -0.1143  0.2340
47268W        W50488   2.284   5.230   1.134 -0.0984 -0.1418  0.1663
47269W        W50489  17.531  11.933  17.063  0.1192  0.1709 -0.1737
47270W        W50490  16.358  18.013   7.791 -0.1171  0.2752 -0.1104
47271W        W50491  15.143   2.261  12.272  0.2649 -0.0013  0.2650
47272W        W50492   9.967   1.778   2.618  0.1287  0.2089 -0.0122
47273W        W50493  12.545  12.624  16.331 -0.2408 -0.3306 -0.1577
47274W        W50494  15.453   0.533   3.019 -0.0390  0.0082 -0.1586
47275W        W50495   8.370   0.529   0.612  0.0956 -0.0219 -0.0006
47276W        W50496   0.198  13.813   2.913 -0.0623  0.2512 -0.0472
47277W        W50497  15.344  14.446  17.962 -0.0319 -0.1493 -0.2358
47278W        W50498  11.966  17.253   1.481 -0.1350 -0.0415  0.2236
47279W        W50499  11.328  10.269   0.149 -0.0591  0.1533 -0.2038
47280W        W50500  13.983  10.530   9.967 -0.2638  0.1549 -0.1573
47281W        W50501   0.512   7.176   1.322  0.4507 -0.1467 -0.0814
47282W        W50502  14.544   1.196  14.679 -0.0614  0.1665  0.3593
47283W        W50503  12.129  15.865   5.567  0.3556  0.0027  0.1875
47284W        W50504  10.250  17.762  13.376 -0.1120 -0.1289  0.0119
47285W        W50505   5.166   1.451  17.621 -0.1215 -0.0734 -0.2110
47286W        W50506   3.490  14.222   7.552 -0.0760  0.0523 -0.0688
47287W        W50507  15.521  16.673   6.951 -0.0393 -0.1656 -0.4280
47288W        W50508   9.313   2.461  17.255 -0.2384  0.0286 -0.1178
47289W        W50509   4.259  15.564   1.045 -0.1072 -0.0600 -0.1170
47290W        W50510  14.916  17.822   5.445  0.2429  0.2619  0.1140
47291W        W50511  14.682  12.536   0.141 -0.0178  0.1678  0.2659
47292W        W50512  11.608  18.115  18.219  0.1636 -0.0180 -0.4078
47293W        W50513   1.966  16.455   5.557  0.2095  0.0536 -0.1011
47294W        W50514   2.346  17.793  15.309  0.2427 -0.0957  0.2143
47295W        W50515  13.854  15.181   6.739  0.1803 -0.0124 -0.0344
47296W        W50516  14.368  15.211   2.416 -0.0126 -0.1586  0.0697
47297W        W50517  16.519   1.498   1.429 -0.2440 -0.1752 -0.1375
47298W        W50518   0.610   8.495   1.861  0.2171  0.1247  0.3688
47299W        W50519   3.365  12.166   6.494 -0.1808 -0.0081 -0.2303
47300W        W50520   2.624  16.074   0.906 -0.1213  0.0936 -0.2877
47301W        W50521   0.504   0.783   4.997  0.2207 -0.0617  0.2606
47302W        W50522  16.443  13.267   0.604  0.0856 -0.1166  0.2399
47303W        W50523   2.550   1.804  14.279  0.0579  0.2765 -0.3062
47304W        W50524  16.874  13.247  17.480  0.1740 -0.2125 -0.0863
47305W        W50525   2.109  17.145  11.777 -0.0454  0.1662 -0.1885
47306W        W50526   3.898  15.826   0.135  0.0808 -0.0249  0.0638
47307W        W50527  11.296  16.506   3.155 -0.2016 -0.2127  0.1181
47308W        W50528   9.459  14.795   0.492  0.0942  0.0631 -0.0891
47309W        W50529  16.655   3.811   6.015  0.1374  0.1372 -0.4244
47310W        W50530  15.924  17.386  10.364  0.0723 -0.2326  0.2431
47311W        W50531  17.694  13.767  14.857 -0.2174 -0.0077  0.1032
47312W        W50532   2.844  15.258   0.866  0.2665 -0.0709  0.0176
47313W        W50533  15.718   3.647   9.955 -0.1828 -0.1111  0.1304
47314W        W50534   0.499   0.380   0.638  0.1064 -0.0523  0.2149
47315W        W50535  18.234   2.253   0.950  0.1275 -0.2047  0.3460
47316W        W50536  16.085  13.048   2.151  0.1621 -0.2420  0.0905
47317W        W50537  14.053   5.642  16.627 -0.0537 -0.0508  0.2857
47318W        W50538   1.078  15.071  11.272  0.1464 -0.2779 -0.3252
47319W        W50539  16.864   1.917  15.571  0.3570 -0.1516 -0.2107
47320W        W50540  16.449  16.199   6.218 -0.4501  0.3023  0.1186
47321W        W50541   6.193   3.871  12.582 -0.1275  0.0837  0.0754
47322W        W50542   0.929   2.643   1.373 -0.0142 -0.0727  0.0922
47323W        W50543   3.185  13.817   1.840  0.1329  0.2256  0.1748
47324W        W50544  17.309   7.957   2.617  0.0232 -0.2761 -0.1681
47325W        W50545   9.289  13.056   4.251  0.0118 -0.0009  0.0171
47326W        W50546   3.919   1.514  16.143 -0.0472  0.1120 -0.0009
47327W        W50547   4.055  14.500   9.394  0.1254  0.0261 -0.1147
47328W        W50548  13.562  14.441  16.826 -0.2570 -0.2991  0.0431
47329W        W50549   9.940  14.520  15.943 -0.0418  0.3394 -0.0553
47330W        W50550   0.027  12.038  18.129 -0.2608 -0.0342 -0.1686
47331W        W50551   1.002  18.094   1.338  0.0190  0.1788  0.0889
47332W        W50552  13.097   4.485  15.038 -0.0995  0.1546 -0.0500
47333W        W50553   0.254  10.439   1.561 -0.1294  0.3316  0.1093
47334W        W50554   0.310  12.083   3.646  0.1265 -0.1556 -0.2350
47335W        W50555  14.033  11.771  15.306  0.0513 -0.0573  0.2371
47336W        W50556  12.662  16.249  15.839 -0.2015 -0.1154  0.0487
47337W        W50557  14.531   3.358  14.925  0.0609 -0.0114 -0.0035
47338W        W50558  15.618  16.879   2.584 -0.1414  0.0938 -0.4523
47339W        W50559  15.917   3.136   5.426 -0.1855  0.1673  0.0670
47340W        W50560   9.542   3.419   8.086  0.0478  0.2784 -0.1907
47341W        W50561  12.166  17.125   2.018  0.1358 -0.1173  0.0658
47342W        W50562  15.724   5.697  11.959 -0.0945  0.0781 -0.0285
47343W        W50563   1.871   3.957   2.313  0.1727  0.0112 -0.2262
47344W        W50564   0.780   3.190   6.463  0.0307  0.0290  0.4089
47345W        W50565   2.628   0.617   4.866 -0.3447  0.1192 -0.0219
47346W        W50566  17.590  17.129  13.746 -0.1317  0.0363 -0.2546
47347W        W50567   0.720  15.575   7.450 -0.1477  0.1098 -0.0953
47348W        W50568   0.651  14.095  17.855 -0.0015 -0.0635 -0.1479
47349W        W50569  15.567  17.591   1.277 -0.0641  0.2089 -0.2949
47350W        W50570   1.397  14.374   3.587 -0.0772  0.1918 -0.2336
47351W        W50571  17.218  15.736   1.322  0.1531  0.0698 -0.0997
47352W        W50572  17.046   0.916   5.293 -0.0428  0.0203  0.0254
47353W        W50573  17.977   0.536   5.347  0.0369  0.2428 -0.0788
47354W        W50574  15.381   8.319  17.045  0.0302  0.1759 -0.1636
47355W        W50575  13.250   3.646  16.715  0.1150 -0.1679  0.0333
47356W        W50576  14.852  17.630  17.543  0.0851 -0.2610  0.0773
47357W        W50577   6.436   9.763  17.634 -0.0319  0.0427 -0.1612
47358W        W50578   2.250  11.200  17.719 -0.4588  0.1301 -0.1970
47359W        W50579  12.955   2.594   3.711  0.3778  0.0785 -0.0301
47360W        W50580   0.259  16.074   0.829  0.0248 -0.1510 -0.0778
47361W        W50581   1.682   1.385   4.542 -0.0854 -0.1581 -0.1900
47362W        W50582  18.142   0.972  12.500 -0.1663 -0.2096  0.1889
47363W        W50583   3.303  12.755   0.989  0.3546 -0.0073 -0.1259
47364W        W50584  14.454  16.688   6.100 -0.0485 -0.1636 -0.1635
47365W        W50585   5.186  18.229  12.115 -0.1172 -0.0065  0.1905
47366W        W50586   1.122   3.478  17.935  0.0955 -0.1445 -0.1510
47367W        W50587  13.790  11.421   7.648  0.3030 -0.0260  0.0123
47368W        W50588  12.357  12.828   3.930 -0.1594 -0.3692 -0.0366
47369W        W50589   4.056   8.920   4.803 -0.0698 -0.2074 -0.1242
47370W        W50590   0.569   2.886   7.013 -0.0286 -0.0395  0.0076
47371W        W50591   7.494   9.927   0.483  0.0222  0.0831  0.2101
47372W        W50592  13.219   7.722   7.807  0.0890 -0.2687 -0.0866
47373W        W50593  10.931   8.819   1.546  0.2162  0.0785 -0.1371
47374W        W50594  16.487   1.611   0.705  0.2241 -0.1129  0.0945
47375W        W50595  15.287  16.546  12.506  0.0227  0.2208 -0.0363
47376W        W50596  12.950  15.096   1.144 -0.0492  0.1313  0.0941
47377W        W50597  13.258  15.469   5.041  0.0746 -0.1190 -0.1311
47378W        W50598  11.990  15.036   4.608 -0.1298  0.1203 -0.0162
47379W        W50599   9.600  17.257  16.276  0.1615  0.0618 -0.1510
47380W        W50600  10.939  16.039   4.748 -0.1797 -0.1417 -0.0094
47381W        W50601  10.620  13.225  10.926 -0.0427  0.0129  0.0847
47382W        W50602  17.513  17.879   1.311 -0.4160 -0.1109  0.0206
47383W        W50603   1.605   3.501  15.304  0.2640  0.0592 -0.5261
47384W        W50604   4.657  16.180   0.612  0.0662  0.2745  0.0112
47385W        W50605  12.633   0.120   5.402 -0.1513  0.1413  0.1467
47386W        W50606  10.784  11.314   6.228  0.1453 -0.0119  0.1308
47387W        W50607   6.614   2.519   7.107 -0.0549 -0.0362 -0.1475
47388W        W50608  15.693  14.838  15.213 -0.3796  0.1526 -0.0643
47389W        W50609   0.203  16.140   4.274 -0.0552 -0.0097 -0.2718
47390W        W50610  15.537  14.336  15.568 -0.2606  0.1891  0.0327
47391W        W50611  10.220   6.676   7.009 -0.4130 -0.1051  0.0631
47392W        W50612   5.649   2.238   0.450  0.0013 -0.1881 -0.2097
47393W        W50613  15.482  17.806  17.985 -0.0690 -0.0783 -0.0417
47394W        W50614   2.572   0.050   9.600 -0.0796  0.0683 -0.1856
47395W        W50615   8.633  10.250  14.174 -0.2781 -0.2853  0.2258
47396W        W50616   1.838  13.794   6.933 -0.1304  0.0122 -0.1427
47397W        W50617  16.060  16.144   5.298 -0.0567  0.1591  0.0670
47398W        W50618  16.392  13.237   1.545  0.0859  0.1987  0.1931
47399W        W50619  11.793  16.882   1.757 -0.1641  0.2621 -0.2383
47400W        W50620  17.458  17.510   6.961 -0.0456  0.1616 -0.0204
47401W        W50621  14.685   2.920   1.368 -0.1214  0.0832  0.1787
47402W        W50622  11.624   2.312   4.922  0.0639 -0.2458  0.1653
47403W        W50623   4.246  14.319  11.178 -0.1730 -0.1955 -0.1707
47404W        W50624  13.730  15.291   3.340  0.3173  0.0628  0.1654
47405W        W50625   6.593   2.782   1.972 -0.3198  0.3226 -0.0661
47406W        W50626  17.091  15.310   4.929 -0.0295 -0.0334 -0.3944
47407W        W50627  13.986  13.314   4.835 -0.0983  0.1447  0.1730
47408W        W50628  14.310  10.988   7.498 -0.0039 -0.0176 -0.3008
47409W        W50629   5.176  11.537   2.616 -0.1363 -0.2865  0.1002
47410W        W50630  15.627  11.829   4.820  0.1028  0.1165  0.0616
47411W        W50631  11.047   6.951   2.447  0.0096 -0.1690 -0.0179
47412W        W50632   5.027  13.918   7.956 -0.0314  0.1936 -0.1175
47413W        W50633   9.742  16.585   0.765 -0.0311 -0.1062 -0.0847
47414W        W50634   0.713   3.706   4.431 -0.2144 -0.0662 -0.1062
47415W        W50635  11.859   0.293   0.641  0.1123 -0.1452 -0.1183
47416W        W50636  11.799  15.337   1.902 -0.1765  0.3634  0.3896
47417W        W50637  15.145  12.252   1.729  0.0391 -0.2130 -0.0934
47418W        W50638  14.947  13.462   9.767 -0.1688 -0.6046  0.1483
47419W        W50639   1.567  11.219  15.393 -0.1006 -0.1886  0.4179
47420W        W50640   9.864   0.819   1.111  0.1177  0.1065 -0.2365
47421W        W50641  14.080  11.056  17.899  0.1068  0.0481  0.0457
47422W        W50642  18.197   1.679   3.960  0.0193  0.0313 -0.1855
47423W        W50643  10.497  17.002  17.323  0.1057 -0.0949 -0.2397
47424W        W50644   6.854  13.662  16.848  0.1989  0.0924 -0.0967
47425W        W50645  17.634  11.474   2.959 -0.1687  0.1826 -0.4842
47426W        W50646  16.740  18.027   1.758  0.0705 -0.1195 -0.0524
47427W        W50647  13.929  13.994   5.816  0.0174  0.1121 -0.2610
47428W        W50648  17.220   0.606   4.501  0.1681  0.0922 -0.1638
47429W        W50649  14.583  16.534  10.470  0.0258 -0.2320  0.0601
47430W        W50650   3.590  17.335   7.348 -0.3340  0.1002 -0.0624
47431W        W50651   4.149   2.808  10.052 -0.2372 -0.2143 -0.2037
47432W        W50652   0.129  12.908   0.046 -0.1209 -0.0804  0.1913
47433W        W50653   2.081  17.848  16.536  0.1221 -0.0732  0.1868
47434W        W50654  16.230  17.754  15.361  0.2003 -0.0225 -0.1213
47435W        W50655   4.180  14.581   0.902 -0.2090  0.0584 -0.2128
47436W        W50656   2.411  17.321   4.691 -0.3189  0.0676 -0.1132
47437W        W50657  16.420  15.960   7.621 -0.2236 -0.1103  0.1933
47438W        W50658   4.232  16.149  14.293  0.0376 -0.3293 -0.1217
47439W        W50659  15.513  17.273   1.694  0.0218 -0.2459  0.0384
47440W        W50660  16.912   5.796  15.565 -0.0649  0.0006  0.0489
47441W        W50661  16.253  12.567  17.956 -0.0369  0.1043 -0.0379
47442W        W50662   1.258  17.268  15.326  0.3913 -0.0770  0.1057
47443W        W50663  17.744  17.699  14.219 -0.2356  0.2958  0.0238
47444W        W50664   0.289  17.610   0.110 -0.0437 -0.2952  0.2099
47445W        W50665  12.236  17.239   0.399 -0.1940 -0.1596  0.2019
47446W        W50666  10.494  11.551  12.131  0.0682 -0.1437 -0.2278
47447W        W50667   4.834   3.437  13.729  0.1411  0.1320 -0.1650
47448W        W50668  14.902  12.664  12.298 -0.1919 -0.2235 -0.1873
47449W        W50669  10.634  16.224  16.644 -0.2200  0.0017 -0.0528
47450W        W50670   0.974   3.303   4.465  0.4351 -0.2959 -0.1302
47451W        W50671  15.688  12.920   5.642  0.0798  0.3630  0.0924
47452W        W50672   0.762  14.952  18.205  0.1493  0.1515 -0.2668
47453W        W50673   6.871  14.046  15.881  0.1848 -0.1296 -0.0207
47454W        W50674  13.660  14.045  12.604  0.1565 -0.0540 -0.1627
47455W        W50675   1.130  15.456   4.506 -0.0829 -0.1386  0.0922
47456W        W50676  13.758  13.911   0.543 -0.2966  0.1893  0.0772
47457W        W50677  13.807  14.845   9.281  0.0355 -0.1439  0.1829
47458W        W50678   2.578   0.253  15.042  0.0270  0.0382  0.0255
47459W        W50679  15.561  14.879   0.848 -0.1625 -0.3672  0.1105
47460W        W50680  16.734   5.744  16.078 -0.0312 -0.1476  0.0468
47461W        W50681   1.745  16.021   2.226 -0.1277  0.0305 -0.1432
47462W        W50682  18.145  14.476   2.161 -0.0570  0.0483  0.1931
47463W        W50683  10.046   2.494   1.777  0.1655  0.1118 -0.0468
47464W        W50684   1.023   2.956  18.094  0.1709 -0.0293 -0.0368
47465W        W50685  11.679  14.826  17.965 -0.1191  0.2590 -0.0868
47466W        W50686  13.744   2.608   0.240  0.0827  0.0736 -0.0366
47467W        W50687  16.999  16.135   5.693  0.0625 -0.1519 -0.0293
47468W        W50688   8.896  13.439  17.269 -0.4487 -0.1661 -0.2568
47469W        W50689  11.474  16.367   0.020  0.0658  0.0776  0.0270
47470W        W50690  17.781  14.522   0.868 -0.0709 -0.1030 -0.0031
47471W        W50691  14.564  12.483   7.136 -0.0787 -0.3119 -0.1556
47472W        W50692  11.830   2.481   6.337 -0.1417 -0.2127  0.1309
47473W        W50693  13.848   0.712  14.035  0.1533 -0.0072 -0.3708
47474W        W50694   8.564  12.578   1.080 -0.2204  0.0107 -0.0248
47475W        W50695  15.529  15.587   3.678  0.0021  0.3884  0.1136
47476W        W50696  17.471   6.802   5.194 -0.1579 -0.1516  0.0166
47477W        W50697  17.514  14.397  16.053  0.4539  0.1912  0.2362
47478W        W50698  15.774   2.579   2.218 -0.0020  0.0623  0.2447
47479W        W50699  14.244   4.876   5.881  0.0883  0.1002  0.2405
47480W        W50700   1.256   4.267   1.401  0.0407 -0.0229 -0.0368
47481W        W50701  15.212  16.075   1.031  0.2299  0.1347 -0.2595
47482W        W50702  10.846   1.130   5.154  0.1281 -0.0999  0.2953
47483W        W50703  17.635  17.426   1.614 -0.0859 -0.0186 -0.1636
47484W        W50704  14.642   5.508  17.357 -0.5755 -0.0955  0.0898
47485W        W50705  17.818   2.008   3.487 -0.4550 -0.1014 -0.3089
47486W        W50706  16.242   0.419  16.793 -0.0338 -0.1881 -0.0472
47487W        W50707  17.472  13.950   1.706  0.2769 -0.2021 -0.2249
47488W        W50708   1.533   2.716   7.946 -0.0171 -0.3237  0.0530
47489W        W50709   9.989   0.467  17.619  0.0282 -0.2831  0.1136
47490W        W50710  16.279   1.072   9.378  0.1074 -0.1889 -0.0077
47491W        W50711  10.044  15.289   7.657 -0.0826 -0.1577 -0.0917
47492W        W50712  17.667   6.563   2.422 -0.1330  0.1657  0.0120
47493W        W50713   2.234   1.146   0.340  0.3655 -0.1035  0.3020
47494W        W50714  13.109   7.740  11.720 -0.0049  0.1584  0.1153
47495W        W50715  16.783   0.077  18.253  0.0527  0.1592  0.0697
47496W        W50716  13.346  18.074   0.263  0.0349  0.2607  0.3258
47497W        W50717  11.689  13.329  12.805  0.1997 -0.2525  0.0720
47498W        W50718  15.804  15.352   1.781  0.2066 -0.1104 -0.1030
47499W        W50719  17.435  11.592   7.994 -0.1301  0.1399 -0.2759
47500W        W50720  17.092  14.056   4.810  0.0852  0.1919  0.0192
47501W        W50721  16.204  13.769   1.604  0.2756 -0.1052 -0.2240
47502W        W50722   1.811  14.557  17.366 -0.1522  0.0962 -0.0160
47503W        W50723   0.317   2.454   4.203  0.0364  0.2409 -0.0757
47504W        W50724  17.026   1.872   1.623 -0.0678  0.3519 -0.2648
47505W        W50725  16.541  16.064   2.758  0.2041 -0.1302 -0.0692
47506W        W50726   8.733  15.931   8.384  0.2088 -0.0596  0.0557
47507W        W50727  16.180   9.814   4.149  0.1205 -0.1374  0.3654
47508W        W50728   5.789   7.956  17.978 -0.3358 -0.1642 -0.0311
47509W        W50729  14.003   9.121   0.401 -0.2339  0.1120 -0.2904
47510W        W50730  17.105  14.297   0.182 -0.1229 -0.1406 -0.0278
47511W        W50731  17.900  16.923  14.894 -0.1507  0.0857  0.1471
47512W        W50732   6.900   1.251  18.062  0.0068 -0.0880 -0.0080
47513W        W50733  15.049   6.315   4.314 -0.1947 -0.3783  0.0540
47514W        W50734  15.940   5.543  16.098 -0.0568 -0.0052 -0.1909
47515W        W50735  18.004  18.168  17.212  0.0564  0.2773  0.0189
47516W        W50736  11.244   0.808   4.216 -0.0898 -0.3086  0.0738
47517W        W50737  15.709  13.228   2.365  0.1391 -0.1703 -0.0510
47518W        W50738   2.087  16.140   1.734  0.3825  0.0757 -0.0350
47519W        W50739  17.733   4.629  16.652 -0.2244  0.1987  0.1129
47520W        W50740  14.945   1.041   4.815 -0.1626 -0.1245 -0.4356
47521W        W50741  11.768  13.131  16.596 -0.2615  0.2607 -0.0411
47522W        W50742   1.741  17.015   4.518 -0.0409  0.1066  0.1650
47523W        W50743  15.515   8.386   4.649 -0.3601  0.2805 -0.0104
47524W        W50744   8.540   0.413  13.731 -0.3289  0.1724 -0.1498
47525W        W50745  14.575  14.720   3.594 -0.0417 -0.0494 -0.2537
47526W        W50746  15.971  13.613   4.520  0.0027  0.1004 -0.1194
47527W        W50747   1.852   2.740  16.622 -0.3486  0.0420 -0.0755
47528W        W50748  14.236   1.008  17.045 -0.3763  0.1970  0.3066
47529W        W50749  12.368  16.150  15.188  0.0089 -0.0986  0.2929
47530W        W50750  16.599  14.629   5.371  0.0135 -0.1573  0.2776
47531W        W50751   1.159  14.769  14.641  0.1345 -0.1523  0.2244
47532W        W50752  15.311  17.751   4.523  0.0456 -0.0350 -0.2795
47533W        W50753  12.766  12.246   4.497  0.3429 -0.0396 -0.4418
47534W        W50754  17.546   2.782   5.753  0.0198 -0.0729  0.0178
47535W        W50755  15.417  15.116   5.198  0.2529  0.3608 -0.1962
47536W        W50756  18.197  10.667  14.745  0.0690  0.1026 -0.0379
47537W        W50757  16.915  16.907  11.851  0.2261  0.1936  0.1802
47538W        W50758  12.279  15.991  17.915 -0.3000 -0.1675 -0.2119
47539W        W50759  13.284  12.969   0.627 -0.0059 -0.0161  0.2593
47540W        W50760  12.993  15.371  15.852 -0.0687  0.1326  0.0786
47541W        W50761   1.970  15.635  12.471 -0.0419  0.5153  0.2169
47542W        W50762  17.346  18.145  17.433 -0.0420  0.2792 -0.0532
47543W        W50763   1.051  15.055  17.713 -0.0328  0.0196 -0.1942
47544W        W50764  15.097  16.230   2.982 -0.1652  0.0331 -0.0114
47545W        W50765   1.534  17.555  14.735  0.1043  0.2048  0.2276
47546W        W50766  11.741  14.111  14.566 -0.0548  0.0114  0.1594
47547W        W50767   2.684   4.422   2.243  0.1968  0.2088 -0.0339
47548W        W50768   0.446  16.618   3.412 -0.0207  0.0842  0.0517
47549W        W50769  10.153   1.499  16.820  0.0145 -0.0695 -0.1042
47550W        W50770   7.658   2.254   0.365  0.2151 -0.0613  0.0231
47551W        W50771  14.155  15.378  17.397 -0.0139 -0.0030  0.0345
47552W        W50772   5.390  17.769   5.797 -0.5184 -0.1288 -0.1608
47553W        W50773   0.130  12.269  17.011 -0.3413 -0.0545  0.0070
47554W        W50774   9.424  17.464   2.671  0.0710 -0.1318  0.0730
47555W        W50775  12.542  13.257  10.424 -0.0688  0.0959  0.0613
47556W        W50776  14.616   0.936   4.353 -0.0721  0.1596 -0.2388
47557W        W50777  10.897  14.590   5.614  0.1060  0.1322 -0.4754
47558W        W50778   0.179  13.836   2.017 -0.1258  0.0982  0.1441
47559W        W50779  18.069   3.769  18.132 -0.1499 -0.0561  0.1075
47560W        W50780  12.586  14.844   3.960  0.0197  0.2255 -0.0050
47561W        W50781  15.101  18.138  13.348  0.3061  0.0473  0.2342
47562W        W50782  17.478   2.185   0.665 -0.1242 -0.1547  0.0555
47563W        W50783  15.099  17.269  17.300  0.0820 -0.3041  0.0676
47564W        W50784  13.774  15.214   1.135 -0.1228 -0.1339  0.1035
47565W        W50785  16.448  15.252   1.036  0.0548  0.2769 -0.0429
47566W        W50786   3.232   3.123  17.226 -0.0229  0.1474  0.0535
47567W        W50787  14.605   2.790   0.599 -0.0934  0.2178  0.1383
47568W        W50788   6.315  14.683  11.278 -0.0714  0.2692  0.0434
47569W        W50789  16.318  14.291  13.684 -0.2111 -0.0637 -0.0571
47570W        W50790  17.322   2.877  16.928 -0.1345  0.2048  0.0783
47571W        W50791   4.507  15.263   2.822  0.0378  0.2727 -0.2362
47572W        W50792   8.553   1.878   0.935 -0.1102  0.0331 -0.3382
47573W        W50793  17.653  16.202  15.813 -0.2968  0.0598  0.0180
47574W        W50794  12.365   9.951   1.525 -0.2795 -0.1966 -0.2280
47575W        W50795  17.973  11.766  10.417 -0.1576  0.0736  0.0026
47576W        W50796  13.333  16.860  17.748  0.2031 -0.1423  0.3784
47577W        W50797  16.121  14.369   2.555 -0.0881 -0.3239  0.0253
47578W        W50798   3.908  15.198   0.936  0.1469  0.0275 -0.1933
47579W        W50799   1.406  15.628   3.197 -0.1440  0.1564  0.0095
47580W        W50800   0.558  16.687   0.315 -0.1202 -0.0032 -0.1011
47581W        W50801   5.936  16.580  16.282  0.4604  0.1387  0.2065
47582W        W50802  15.189  15.315   3.348  0.0392  0.0426  0.0385
47583W        W50803   2.622  11.638   9.882  0.4073 -0.1803 -0.0615
47584W        W50804  15.137  15.097   7.755 -0.0018 -0.2623 -0.3312
47585W        W50805   8.926  11.740   3.599 -0.0484 -0.1314 -0.1539
47586W        W50806   1.090  11.105   8.196  0.0186  0.1264 -0.3919
47587W        W50807   2.154   0.566  15.656  0.0871 -0.0337  0.0997
47588W        W50808  17.868   3.113   9.818  0.0202  0.1814  0.3322
47589W        W50809  15.679  16.482  14.365  0.3475 -0.2194  0.0588
47590W        W50810   7.645  13.327   9.225 -0.1462 -0.0294  0.2808
47591W        W50811   0.669   7.762   5.103  0.0804  0.1744  0.1285
47592W        W50812  10.019  17.873   6.620 -0.1397  0.0088 -0.2233
47593W        W50813  13.512  14.369   6.967 -0.0973 -0.2751  0.0332
47594W        W50814   9.504  15.669  10.250 -0.2625  0.2624 -0.1525
47595W        W50815   8.956  17.946  15.757  0.0066  0.0427  0.0830
47596W        W50816  10.908   3.811   4.478  0.0352  0.2154  0.2042
47597W        W50817   3.169   3.838  12.777  0.0760 -0.2041  0.0769
47598W        W50818   0.273   1.626  17.193  0.1102 -0.0879  0.3767
47599W        W50819  11.118  16.912  10.342  0.1408 -0.0989  0.1077
47600W        W50820   4.641  13.060  17.651  0.0689  0.2915  0.3811
47601W        W50821  16.360   4.093  17.446  0.1865 -0.3287  0.0100
47602W        W50822  15.342  15.411   5.606 -0.0595 -0.0207 -0.1683
47603W        W50823   8.488  17.228  11.567 -0.2837  0.0995 -0.0615
47604W        W50824  17.292   3.652  18.078  0.0609 -0.0536 -0.0418
47605W        W50825   4.878   0.913  17.407 -0.3321 -0.2471  0.0470
47606W        W50826  11.290  14.458   1.857 -0.0577 -0.0283  0.1852
47607W        W50827   2.202  13.618   6.129  0.0791  0.0209 -0.3272
47608W        W50828  10.869   3.510  16.415 -0.1930  0.0901  0.1610
47609W        W50829  11.900  18.157   1.598  0.1252 -0.3264  0.4509
47610W        W50830  15.073   0.594   3.937 -0.0252 -0.0980  0.0581
47611W        W50831  13.602   0.073   6.440  0.1965 -0.1466 -0.0844
47612W        W50832  16.693  17.683   2.075  0.0470  0.0234 -0.0596
47613W        W50833  16.695  15.009  15.586  0.0045  0.3307  0.0390
47614W        W50834  14.467   5.491   9.668  0.0343 -0.1603 -0.0369
47615W        W50835   9.654   2.351   7.812  0.1955 -0.4218  0.0846
47616W        W50836  16.794   1.873   8.343 -0.2584  0.2425 -0.1481
47617W        W50837   7.626   1.735   6.023 -0.0383 -0.0004 -0.3139
47618W        W50838   1.515   1.980   3.198 -0.0156 -0.1306 -0.3928
47619W        W50839   0.366   0.428   2.845 -0.2760  0.1359 -0.0376
47620W        W50840  15.521   0.361   7.560 -0.0999  0.1418  0.0537
47621W        W50841  18.086   1.754   4.457  0.0814 -0.1722 -0.1895
47622W        W50842  17.857   8.392  15.890 -0.2389 -0.0028  0.1114
47623W        W50843  13.334  14.847   8.918  0.1384  0.0557  0.2853
47624W        W50844   0.222   9.841   4.066  0.0728 -0.1675 -0.0916
47625W        W50845  13.999  15.973   8.433 -0.3269 -0.1112  0.0452
47626W        W50846   2.586   1.310   4.307  0.2004  0.0513 -0.5157
47627W        W50847   0.772   0.431   5.198  0.0574  0.2648 -0.0654
47628W        W50848   1.465  13.602   7.190 -0.0905 -0.3156 -0.0797
47629W        W50849  12.241   2.918  15.239 -0.1098  0.2289  0.3487
47630W        W50850   1.261  14.875   5.625 -0.0157  0.1325 -0.1442
47631W        W50851   7.287  12.735   4.409 -0.3616  0.0965  0.0502
47632W        W50852  13.344   0.192   3.768  0.1464  0.0771  0.2793
47633W        W50853   1.739   7.581   7.002  0.0010  0.2730 -0.3037
47634W        W50854   2.230  16.858   7.985 -0.1771 -0.1257  0.0863
47635W        W50855  15.762  12.407  16.710  0.0201  0.3144  0.0977
47636W        W50856  15.971  13.210   2.791 -0.0734  0.0224 -0.3432
47637W        W50857   2.566  11.199   2.022 -0.0169  0.3674  0.0706
47638W        W50858   0.736  10.532   4.676 -0.0859  0.0516 -0.2733
47639W        W50859   8.451  17.283   4.661  0.0692 -0.0444  0.2826
47640W        W50860   1.204  12.244   7.341 -0.0498  0.0106 -0.1482
47641W        W50861   4.938  15.816   8.530  0.0117  0.4830  0.1691
47642W        W50862  14.659   1.319  11.436 -0.0012  0.1376 -0.0237
47643W        W50863  14.822  16.875   2.142 -0.0983 -0.0246 -0.0239
47644W        W50864  13.604   9.261   8.054 -0.3351 -0.2370 -0.0621
47645W        W50865  13.566  17.149  12.691  0.0781  0.0055  0.0173
47646W        W50866  15.286   2.217   1.875 -0.0662 -0.2094 -0.1671
47647W        W50867  16.683   3.292  16.980  0.0017  0.1061  0.0973
47648W        W50868   1.648   8.683   5.339  0.3290  0.0051  0.0115
47649W        W50869  13.218  14.070   4.090  0.2822 -0.2322 -0.0300
47650W        W50870  17.975  15.876   0.794 -0.1700  0.3549  0.0877
47651W        W50871   7.729  14.172   8.736 -0.0170  0.0032 -0.0155
47652W        W50872   4.610  14.534   6.657  0.0001  0.0469 -0.1320
47653W        W50873  17.033   0.399  17.416  0.2351  0.0663 -0.0616
47654W        W50874   6.943  16.121   5.514 -0.2607 -0.0996  0.2641
47655W        W50875  14.120  15.498   8.601  0.0528  0.0951  0.2147
47656W        W50876   1.835  14.970   7.593  0.2349  0.0916 -0.0335
47657W        W50877  17.673   1.873  15.978 -0.0131 -0.0155  0.2253
47658W        W50878   1.055  13.473   6.347  0.1641  0.2689  0.4015
47659W        W50879  16.764  18.139   4.953 -0.0871 -0.3820  0.3333
47660W        W50880  14.280  16.244   2.922  0.3201  0.3877 -0.1184
47661W        W50881  12.868  17.327  10.013 -0.2028  0.2084 -0.2027
47662W        W50882   7.855  12.360   7.377 -0.2417  0.0997  0.1790
47663W        W50883  15.270  13.367   3.631  0.0434  0.0231  0.1159
47664W        W50884  11.839  14.701   3.839 -0.0635 -0.0626 -0.0140
47665W        W50885   5.211  12.578  10.525 -0.2379 -0.2917  0.1016
47666W        W50886   0.251   4.280   5.009 -0.1567 -0.4829 -0.0968
47667W        W50887   1.077   1.110   2.440 -0.3642 -0.1774  0.0930
47668W        W50888  17.214  16.509   1.163  0.1974 -0.0252  0.1625
47669W        W50889  12.685  14.034   5.358  0.3940 -0.3115 -0.0536
47670W        W50890  14.767  17.216   7.274  0.1948  0.0356 -0.2109
47671W        W50891  14.508  12.937   4.910 -0.1891  0.2507  0.2128
47672W        W50892  17.746  14.918  10.560  0.1391 -0.1486 -0.2460
47673W        W50893   2.289  13.925   7.153 -0.3570 -0.1104  0.1472
47674W        W50894   0.334   0.149   0.221  0.1257  0.2287 -0.0781
47675W        W50895   2.595  16.829   6.689 -0.0653  0.0967 -0.2250
47676W        W50896  13.747  16.560  11.029 -0.2042 -0.1800 -0.0627
47677W        W50897  13.174  13.021   0.110  0.3458  0.0525  0.1251
47678W        W50898   0.214  13.025  10.745  0.4430 -0.2042  0.1478
47679W        W50899  14.996  14.153   5.575  0.0698 -0.1915  0.0367
47680W        W50900   0.501   6.852   3.256 -0.1353  0.0586 -0.0361
47681W        W50901  12.980   0.678   6.758  0.1066 -0.2925  0.0180
47682W        W50902  13.308  17.017  18.220  0.3373 -0.1048  0.1974
47683W        W50903  13.546  18.253  16.891  0.0042 -0.1937  0.0378
47684W        W50904  14.062  16.386   2.473 -0.2136  0.1251 -0.0340
47685W        W50905   5.109  10.088   5.595  0.3357 -0.2497 -0.0532
47686W        W50906  13.576   3.309  12.471 -0.0467  0.2207 -0.1903
47687W        W50907   6.033   0.286   2.003 -0.0142 -0.3007 -0.1414
47688W        W50908  16.555  14.910   7.561 -0.0580  0.1251 -0.1559
47689W        W50909  13.043   2.147  13.662 -0.2024 -0.0220  0.0464
47690W        W50910  12.534  13.256  10.953 -0.0549  0.1173  0.0540
47691W        W50911  14.565  17.113   2.483  0.0809  0.1119 -0.0151
47692W        W50912  15.776  14.368  10.442 -0.0068 -0.2189 -0.2142
47693W        W50913  18.066   0.662   6.726  0.1722  0.0634  0.1325
47694W        W50914  15.171  16.516   9.869  0.0898 -0.1922 -0.0441
47695W        W50915   3.706  17.385  15.737  0.1713  0.1967  0.1619
47696W        W50916   4.453   3.107  17.348  0.1500 -0.0207  0.1498
47697W        W50917  15.672  14.227   0.161 -0.1012 -0.5120  0.0141
47698W        W50918  12.269   1.475  15.321 -0.1422 -0.1686  0.3485
47699W        W50919  17.330   1.702   4.609  0.1355 -0.3789 -0.1369
47700W        W50920   0.521   0.488   5.817  0.0731  0.0917 -0.1337
47701W        W50921  14.531  13.856  12.962 -0.1242  0.0306  0.0112
47702W        W50922  16.501  16.462   9.612 -0.1382 -0.5171  0.1369
47703W        W50923  17.310  13.718   0.405  0.0128  0.4106  0.2170
47704W        W50924  15.901  13.604   8.124  0.0629 -0.0789 -0.0747
47705W        W50925  14.355   0.537  11.182  0.0862 -0.0273 -0.0369
47706W        W50926   1.580   2.843   3.772 -0.1056  0.1946  0.2062
47707W        W50927   8.060   6.092   4.924  0.2008  0.1787  0.1443
47708W        W50928  16.659   1.071   1.165  0.3497  0.0989 -0.1370
47709W        W50929  14.353  10.795  15.708  0.0395 -0.0092  0.0230
47710W        W50930   1.672   0.274   2.407  0.0229  0.0577  0.3276
47711W        W50931  14.809  13.658   4.403 -0.1646  0.2979 -0.1608
47712W        W50932  15.112   1.072   1.113  0.1860 -0.0961  0.0580
47713W        W50933   6.068   4.268   7.443 -0.0242 -0.2263  0.1167
47714W        W50934   0.980   1.205  13.562  0.3366  0.1054 -0.0805
47715W        W50935   2.572  10.537   8.675 -0.1525  0.1593  0.0965
47716W        W50936  12.607  17.777   2.680  0.1039 -0.0518 -0.0985
47717W        W50937   8.744   8.128   3.843  0.0130 -0.0959  0.3095
47718W        W50938  13.695  16.265   0.816  0.1649  0.3118  0.2243
47719W        W50939  14.661  13.248   9.408  0.1442 -0.2154 -0.1460
47720W        W50940  15.573  17.961   6.963 -0.1859  0.1050  0.0532
47721W        W50941   0.345  13.334   7.734  0.1079  0.4295 -0.2833
47722W        W50942  12.889  11.804   7.712 -0.4576 -0.0521 -0.2156
47723W        W50943  12.601  13.522   4.537  0.1769 -0.2984 -0.1288
47724W        W50944  10.021  16.104   8.393  0.2511  0.0310  0.2674
47725W        W50945  16.212   3.396  18.152 -0.1577  0.0095  0.0035
47726W        W50946   5.699   2.632   6.686  0.0780 -0.1186  0.4225
47727W        W50947  17.180  13.479   2.618 -0.0425 -0.1080 -0.1187
47728W        W50948   2.168   4.714   1.566 -0.1246  0.0127  0.0801
47729W        W50949   1.053   1.824   1.968 -0.0538  0.2917  0.2224
47730W        W50950   0.220  10.166   5.756  0.0331  0.3023  0.3359
47731W        W50951  15.875   1.536   4.532 -0.0194 -0.2751  0.0819
47732W        W50952  17.213  10.045  15.834  0.1792  0.4901 -0.0300
47733W        W50953   0.251   5.461   0.873  0.1556  0.1062  0.2047
47734W        W50954  15.307  16.837   0.633 -0.0609 -0.3518  0.1603
47735W        W50955  12.087   9.995   3.755 -0.0704  0.0805  0.0908
47736W        W50956   2.242   0.658  10.903  0.2938 -0.1754 -0.2100
47737W        W50957  16.646  16.342  12.942  0.0955  0.2249 -0.1134
47738W        W50958  12.027  17.073   8.105  0.2224 -0.2878  0.1565
47739W        W50959  11.441  12.601   6.194 -0.1012 -0.2363  0.4133
47740W        W50960  15.636  14.925   1.974 -0.3221  0.0221  0.1636
47741W        W50961  12.174  10.769   7.513  0.0155 -0.1956 -0.0271
47742W        W50962  15.308  16.316   7.833  0.3465 -0.0252 -0.1115
47743W        W50963  14.090   1.123   5.057  0.0493  0.3008 -0.1143
47744W        W50964  16.307   2.582  15.896  0.2765  0.1772 -0.1684
47745W        W50965   6.035   9.946   9.615 -0.4645  0.3616 -0.1445
47746W        W50966  14.194  17.174  12.024  0.0302  0.0631 -0.0611
47747W        W50967   9.924   7.266  14.275 -0.1345  0.3003  0.0752
47748W        W50968   3.213  17.983   0.931  0.1525  0.1432  0.2878
47749W        W50969  17.317   0.063  16.935  0.0967 -0.0579  0.3358
47750W        W50970  16.843   4.903  10.057  0.3102 -0.0303  0.1217
47751W        W50971  17.453   0.362  14.062  0.1140  0.0144 -0.1386
47752W        W50972  16.742  15.588   9.947  0.0378 -0.1273  0.1513
47753W        W50973  11.865   6.181   9.468 -0.2188  0.2560 -0.0841
47754W        W50974   9.058  16.082   5.801 -0.0079 -0.0914  0.1210
47755W        W50975  16.821  16.835   5.080  0.2638 -0.2407 -0.0308
47756W        W50976   2.048  15.299   3.540 -0.0312 -0.1186  0.3009
47757W        W50977  11.412   1.523   1.714  0.1797 -0.0329 -0.0818
47758W        W50978  12.555  16.325   7.593 -0.2664  0.0130 -0.1379
47759W        W50979  15.471  16.684   8.165  0.2677  0.1812 -0.0300
47760W        W50980   0.313   8.812   2.080  0.3184  0.0034 -0.1477
47761W        W50981   8.609  14.254   7.802  0.0603 -0.2785  0.0904
47762W        W50982  14.609   1.367   5.022 -0.0278 -0.0550 -0.1480
47763W        W50983  17.881   6.304   3.090  0.0372  0.2537  0.0907
47764W        W50984  16.885  15.374   0.902 -0.1212  0.0789  0.0768
47765W        W50985  10.090   1.648   0.809  0.0351  0.1035 -0.1382
47766W        W50986  10.446  17.146   7.230  0.0877 -0.1776 -0.0563
47767W        W50987   0.648  12.944   6.046 -0.0822  0.2023 -0.0117
47768W        W50988  18.025   1.569  16.308 -0.0886  0.3061  0.2520
47769W        W50989  16.432  17.137  14.065 -0.3837 -0.0038  0.2686
47770W        W50990  16.643   0.654  14.458  0.0172 -0.0049 -0.3331
47771W        W50991  10.197   2.640   2.589 -0.1778 -0.3863 -0.0755
47772W        W50992  11.859  16.432   2.513  0.1033  0.1704  0.0663
47773W        W50993   3.219  10.674   3.883 -0.1702  0.2531  0.0482
47774W        W50994  15.552   5.822   5.737  0.0915  0.4468 -0.4179
47775W        W50995  13.614  16.023  10.942  0.3612  0.1513  0.0149
47776W        W50996  16.500  18.152  10.766 -0.1819  0.0040 -0.0018
47777W        W50997  14.932   1.376   7.653  0.0001 -0.1556 -0.2892
47778W        W50998  16.396  14.529   3.559 -0.0513 -0.1392 -0.1333
47779W        W50999  15.910   0.910  17.936  0.0598 -0.0048 -0.0368
47780W        W51000   3.571  15.471   1.916 -0.2738 -0.0560 -0.0147
47781W        W51001  18.001  14.507  11.488 -0.1815 -0.1846 -0.3640
47782W        W51002  17.970  13.359   6.885  0.0364  0.2039  0.1071
47783W        W51003  14.591   0.255   5.025 -0.1750  0.2007 -0.1601
47784W        W51004  15.632  13.900   6.247  0.0190  0.0345 -0.1459
47785W        W51005  16.108  14.911   6.473 -0.0133  0.0753  0.2884
47786W        W51006  11.834  13.618   5.512  0.0152 -0.0181 -0.1242
47787W        W51007   0.061   1.137  17.642  0.1792  0.0512 -0.0914
47788W        W51008  14.371  13.237   0.888  0.0023 -0.0095  0.2852
47789W        W51009  13.391   0.681   5.855 -0.0120 -0.1024  0.0732
47790W        W51010   3.955   1.058   3.665  0.1233 -0.2040 -0.1372
47791W        W51011  15.222  16.938   7.212 -0.0473  0.0759 -0.2126
47792W        W51012   9.107   4.913   0.741 -0.0044 -0.3835 -0.1761
47793W        W51013   2.313  15.791  14.716  0.2485  0.1721  0.0910
47794W        W51014  11.777   0.285   5.813 -0.1336 -0.2959  0.3756
47795W        W51015   0.924   4.539   6.438  0.2202  0.0241  0.3377
47796W        W51016  14.245  15.512   5.737 -0.1540 -0.1189 -0.0150
47797W        W51017   2.695  10.524   4.645 -0.2871 -0.0265 -0.0848
47798W        W51018   2.221  16.849   7.428 -0.0524 -0.2180 -0.1300
47799W        W51019  15.897  17.803   9.760  0.3322 -0.1475  0.0810
47800W        W51020   6.222  14.156   7.349 -0.1097 -0.2188 -0.0826
47801W        W51021   2.742  11.415   2.889 -0.0592 -0.2143  0.0460
47802W        W51022  14.047  12.455   8.611 -0.1010 -0.1294 -0.2035
47803W        W51023  13.922  13.892   8.205  0.1342  0.0641 -0.3098
47804W        W51024  17.336  16.875   3.391  0.2666 -0.1542 -0.2617
47805W        W51025  13.971   1.334   5.745  0.1603  0.0306  0.3560
47806W        W51026   8.949  13.642  17.736 -0.0305  0.0632 -0.0375
47807W        W51027   5.052  13.133   3.032 -0.2674 -0.2819  0.1923
47808W        W51028   8.530  17.194   6.599  0.0165  0.1427  0.5030
47809W        W51029  16.779  15.670  16.808  0.2701 -0.1197 -0.0300
47810W        W51030  14.960   0.173   0.242  0.0556 -0.1282  0.0578
47811W        W51031  12.729   0.970   4.638  0.2244 -0.0407  0.1891
47812W        W51032  13.052  13.850   9.889  0.0207 -0.0007  0.2922
47813W        W51033  10.315  10.871  16.469 -0.0482  0.1630  0.3855
47814W        W51034  15.246  13.457   5.025 -0.1772 -0.0974 -0.3035
47815W        W51035   2.389   5.081  12.290  0.0120  0.0449  0.3508
47816W        W51036   1.999  15.983   0.692  0.0068  0.4256  0.0410
47817W        W51037   3.098  16.666   3.898 -0.1356 -0.1603 -0.0620
47818W        W51038  16.937  15.027   9.896  0.1664 -0.0598  0.0088
47819W        W51039   3.780  10.211  17.630 -0.0994 -0.1219  0.1206
47820W        W51040  14.847   1.442   6.883  0.3621  0.1805  0.1477
47821W        W51041  17.983   7.260   2.851 -0.1352  0.3678 -0.0771
47822W        W51042  17.438  16.979   1.848  0.0751 -0.1982  0.0088
47823W        W51043   3.000   6.497  17.935  0.0427 -0.0537  0.2048
47824W        W51044  16.695  15.182  17.897  0.3310  0.2384 -0.1328
47825W        W51045  13.771   0.396   7.377  0.2055  0.0830  0.0121
47826W        W51046  11.537  13.565   3.709  0.1981  0.0138 -0.2485
47827W        W51047   7.073   7.434   4.597  0.0887 -0.0622 -0.0156
47828W        W51048  16.145   3.216  13.387  0.1930 -0.2574 -0.2304
47829W        W51049  18.032  13.447   5.872  0.0372 -0.1620  0.2068
47830W        W51050  13.119   8.711  17.290 -0.2332 -0.1393 -0.0211
47831W        W51051  14.888   3.197   5.235 -0.0071 -0.1831  0.2131
47832W        W51052  16.441   4.092  14.518 -0.1077  0.1246  0.1038
47833W        W51053  11.642  16.204   9.159  0.0708 -0.2925 -0.3013
47834W        W51054   1.253  16.305   1.133  0.0719 -0.0866  0.1658
47835W        W51055  16.798  17.023   1.593  0.1351  0.0666  0.0587
47836W        W51056  15.513  17.065   6.588  0.1654  0.1373  0.3333
47837W        W51057  15.313  15.914   9.839 -0.2797  0.1620 -0.0215
47838W        W51058   8.910  15.743   2.528  0.0123 -0.1495 -0.3106
47839W        W51059  12.840  13.077   0.425  0.3106  0.3317 -0.0061
47840W        W51060  16.668   8.556   0.267  0.1186  0.2579  0.1641
47841W        W51061   0.303   3.396   3.871  0.1370 -0.1668  0.4950
47842W        W51062   5.442   2.128  10.296  0.2473 -0.1860 -0.0525
47843W        W51063   2.595   6.093   3.690  0.0369 -0.0584 -0.1052
47844W        W51064  15.281  15.018  10.325  0.2757 -0.2371 -0.1221
47845W        W51065   5.164  15.403   7.799  0.4385 -0.0793 -0.1360
47846W        W51066  12.753  15.717   3.097 -0.3087 -0.3898  0.0218
47847W        W51067  10.411   7.583   5.113 -0.1581  0.1484 -0.0086
47848W        W51068  12.844  17.112   6.372  0.0675  0.0679 -0.3161
47849W        W51069  15.715   0.279   6.568 -0.0064 -0.1378  0.0096
47850W        W51070   2.134   0.647   6.557  0.0511 -0.1426  0.0873
47851W        W51071  11.578  13.161  10.646 -0.1817  0.0054 -0.2196
47852W        W51072   0.998   2.643  13.015 -0.0186 -0.0432  0.1171
47853W        W51073   2.334  16.575   2.687 -0.2441  0.2688  0.3021
47854W        W51074  14.618  16.621   1.704  0.3413 -0.1715  0.0571
47855W        W51075  17.357   3.104   6.855  0.0423 -0.5644  0.0750
47856W        W51076   5.028  12.227   7.206 -0.0219  0.2697  0.2222
47857W        W51077  16.003  18.045  17.334 -0.1382 -0.0402  0.2468
47858W        W51078   8.297  13.962  17.709 -0.0680  0.1066  0.0338
47859W        W51079  16.694   5.392  17.811  0.1037  0.0317  0.0674
47860W        W51080  13.964   1.395  11.051 -0.3884 -0.3497 -0.2427
47861W        W51081   2.586  17.708   7.845 -0.3663  0.2602 -0.0196
47862W        W51082  13.830  14.903   2.517 -0.0554  0.0225  0.0416
47863W        W51083  13.206   9.580   3.696  0.2313 -0.3747 -0.2638
47864W        W51084   0.253   5.551  17.404 -0.0808 -0.0238 -0.0231
47865W        W51085   1.049   4.740   8.723  0.0427  0.4137 -0.1808
47866W        W51086  16.215  15.246   7.282 -0.1543 -0.2059 -0.2518
47867W        W51087   1.144  12.743  12.929  0.2068  0.0515  0.0696
47868W        W51088   8.579   5.008   3.193  0.3903  0.5290  0.0259
47869W        W51089  15.040   0.447  17.785  0.3182  0.1237 -0.2581
47870W        W51090   3.209   1.421  14.929 -0.3814 -0.1744  0.0839
47871W        W51091  12.854  16.080   5.628  0.0598  0.0451  0.0734
47872W        W51092   2.944  13.236   9.972  0.0562  0.3693  0.0880
47873W        W51093  12.432  11.826   0.804 -0.1368 -0.0175 -0.3620
47874W        W51094  16.854   4.321  12.695  0.0876  0.2650  0.1240
47875W        W51095   9.537  14.875   8.674 -0.0514  0.0740  0.3495
47876W        W51096  14.161   2.284  10.533  0.2187 -0.0987 -0.1344
47877W        W51097  11.654   0.331  11.827  0.0425  0.0001 -0.1948
47878W        W51098  17.869  13.902   5.766  0.2741  0.0378 -0.2152
47879W        W51099  16.092  13.815   3.387  0.1792  0.1491 -0.2067
47880W        W51100  17.508  18.008   0.416  0.0060  0.0074  0.0579
47881W        W51101  12.895   0.885   8.564 -0.0886  0.3655 -0.0686
47882W        W51102   3.639  14.520   1.528  0.2784  0.0264 -0.2081
47883W        W51103  13.036   2.717   6.829  0.0205  0.2189 -0.1838
47884W        W51104  14.517   0.292   1.220 -0.0404 -0.0771 -0.0217
47885W        W51105  17.616  12.665   9.585  0.0703  0.0240  0.1845
47886W        W51106   0.218  11.425   8.010 -0.0502 -0.2110 -0.2458
47887W        W51107   2.996   3.816   2.462  0.1389  0.0663  0.2175
47888W        W51108  16.621   5.168   5.618  0.2099  0.3066  0.0170
47889W        W51109   0.126  11.493   3.624  0.4036  0.0090  0.0306
47890W        W51110  14.486  16.907  12.430  0.5018 -0.1511 -0.3600
47891W        W51111   8.346   0.004   6.016 -0.0037 -0.0540  0.0693
47892W        W51112  12.153  11.188  10.355 -0.0126  0.0676  0.0499
47893W        W51113  12.062   7.860   2.750 -0.0673  0.0950 -0.2033
47894W        W51114   2.050   1.277  17.320 -0.0112  0.0697 -0.0589
47895W        W51115   1.126   2.718  14.931  0.2379  0.1805 -0.1397
47896W        W51116  14.894   0.192   8.038 -0.1178 -0.0828 -0.1789
47897W        W51117  10.631  13.915   7.150  0.2972 -0.0365 -0.1629
47898W        W51118   3.229  16.353   2.713  0.0632 -0.0476  0.1619
47899W        W51119  14.061  17.681   0.978  0.0806  0.0304  0.1971
47900W        W51120   9.457  12.821   4.703 -0.1357 -0.2487  0.2003
47901W        W51121  12.725   5.450   4.758  0.2061 -0.2472 -0.1222
47902W        W51122  17.520  14.240   0.500 -0.3224  0.0893 -0.2099
47903W        W51123   2.558   3.064   7.004 -0.1118  0.1655  0.0205
47904W        W51124  16.068  15.674  17.184  0.1143 -0.2483 -0.2178
47905W        W51125  15.785   3.042   3.458  0.1833  0.1176  0.4023
47906W        W51126   3.942  11.399   7.049 -0.0947  0.2813  0.1701
47907W        W51127   2.949  12.447   2.710 -0.1095 -0.1073 -0.1020
47908W        W51128  13.591  13.649   5.703 -0.1436 -0.0088  0.1630
47909W        W51129  16.116   0.678   2.486  0.0217 -0.3516 -0.2823
47910W        W51130   7.326  18.254   7.312 -0.0004 -0.1443  0.3742
47911W        W51131  11.162   2.911   8.769 -0.3147 -0.0353 -0.1103
47912W        W51132  12.468   8.034  17.524  0.2758 -0.1084 -0.2182
47913W        W51133  12.003  11.822   6.512  0.0138 -0.0436  0.1678
47914W        W51134  10.641   0.350   8.668 -0.0821 -0.0498  0.4263
47915W        W51135  16.421  14.043   6.166 -0.0031  0.0630 -0.4814
47916W        W51136   0.056   2.144   3.567 -0.1009  0.0621 -0.2303
47917W        W51137  13.805  17.938   2.082  0.0501 -0.1789 -0.0818
47918W        W51138  12.949  10.077   3.669  0.1487 -0.1113 -0.3704
47919W        W51139  12.173  11.160  11.292 -0.3378 -0.0144 -0.0678
47920W        W51140   0.999  11.313   8.655 -0.2080 -0.1132 -0.0157
47921W        W51141  10.935  12.285   8.794 -0.0475 -0.1096 -0.1206
47922W        W51142   3.582  13.824   8.816  0.0328  0.0300 -0.0061
47923W        W51143  17.100  17.305   7.950  0.0774  0.0564  0.1376
47924W        W51144  10.050  14.379   6.150 -0.0720  0.1086 -0.0263
47925W        W51145   1.360   7.339   5.475 -0.3172  0.1929  0.0354
47926W        W51146  14.580  16.393   8.978 -0.2356  0.2611 -0.1818
47927W        W51147   2.272  14.274   9.589  0.1836  0.1473  0.2475
47928W        W51148  15.867   0.388   6.108  0.0309  0.0216  0.2433
47929W        W51149  17.792   0.113   9.243 -0.0953 -0.1271 -0.0309
47930W        W51150  11.454  13.716   8.203  0.2057  0.0201  0.2192
47931W        W51151  15.409   0.449   5.369 -0.1020 -0.0693  0.0919
47932W        W51152   4.888   0.636   6.524 -0.0842 -0.1245 -0.1431
47933W        W51153  12.468   2.906   6.046 -0.1794  0.1182  0.2145
47934W        W51154  15.272  15.040   2.371  0.0514  0.0255  0.0665
47935W        W51155  13.441   9.966   9.237 -0.1905 -0.3480 -0.0281
47936W        W51156   0.758  14.343  14.458  0.1149 -0.1515  0.1888
47937W        W51157   3.214  15.704   8.735  0.1882 -0.0173  0.2175
47938W        W51158  16.346   0.487   2.881  0.0139  0.0217 -0.1271
47939W        W51159  14.887   7.048   6.869 -0.0051  0.2268  0.2633
47940W        W51160  13.175  13.677   7.803 -0.4943 -0.1944  0.2024
47941W        W51161  14.725  11.135   2.475 -0.0832  0.2467  0.1393
47942W        W51162  16.900  11.591   4.710 -0.1778 -0.0370  0.2154
47943W        W51163  11.889  16.926   0.719  0.0447 -0.2239  0.0973
47944W        W51164   2.311   0.218   1.584  0.4990  0.0384  0.0931
47945W        W51165   0.943  13.635   4.438  0.0119 -0.1056 -0.0300
47946W        W51166  16.158  15.804   5.908 -0.3076 -0.0284  0.0160
47947W        W51167  16.505  12.116   4.465  0.0462 -0.0088  0.3462
47948W        W51168  16.414  15.214   8.920 -0.0571  0.2880 -0.2780
47949W        W51169  14.017   0.287  12.023 -0.0608 -0.0813  0.1050
47950W        W51170   3.365  11.005   9.978 -0.2229  0.1480 -0.1315
47951W        W51171  16.801   5.405  12.694  0.0777 -0.1632 -0.2695
47952W        W51172  17.995  18.197   3.924 -0.0437 -0.2391  0.0126
47953W        W51173   6.285   9.368   6.105 -0.0284 -0.0350  0.0168
47954W        W51174   0.395  11.758   8.596  0.2154  0.1036  0.1275
47955W        W51175  17.378  16.051   9.190 -0.0398  0.0971 -0.0248
47956W        W51176  17.424  10.951   7.682 -0.2674  0.0123  0.0096
47957W        W51177   6.855   3.324  17.225  0.0189 -0.0794  0.1588
47958W        W51178  10.370   7.227   9.244  0.1399 -0.0595  0.2025
47959W        W51179  11.718  12.191   2.632  0.3198  0.0167 -0.3413
47960W        W51180  14.428   7.650  17.138 -0.3277 -0.0895  0.0814
47961W        W51181   9.808  11.354   2.321 -0.1344 -0.0234  0.0314
47962W        W51182  11.465  16.498   8.212  0.0953  0.0493  0.1707
47963W        W51183  14.834  13.979   9.545 -0.1202  0.1069 -0.0300
47964W        W51184  13.572   0.413   2.941  0.0857 -0.4260 -0.3083
47965W        W51185  14.336   7.185   0.955 -0.0621 -0.3049  0.0895
47966W        W51186  17.609   6.532   7.230 -0.3514  0.2308 -0.0192
47967W        W51187   2.948  15.411  11.693  0.3012 -0.1282  0.0815
47968W        W51188  16.564  10.449   1.601  0.0640 -0.1205  0.0197
47969W        W51189   0.831  12.319   3.016 -0.2344 -0.1995 -0.0675
47970W        W51190  15.359  13.169   1.512  0.2650  0.2223  0.0327
47971W        W51191   7.563  13.654   9.590 -0.1299 -0.1095 -0.0765
47972W        W51192  14.016   0.091   5.463 -0.3594 -0.2115 -0.2151
47973W        W51193  16.104   3.514  10.227 -0.0537  0.0125 -0.1457
47974W        W51194   2.742  14.995   0.398  0.4125  0.1044 -0.0686
47975W        W51195  17.394   4.087   3.456  0.1940 -0.2448  0.0139
47976W        W51196   5.652  17.573   6.244  0.1744 -0.1180  0.0446
47977W        W51197  13.303  12.371   1.445  0.0959  0.2784  0.0441
47978W        W51198  16.946  14.257  15.148  0.0145 -0.1380  0.1023
47979W        W51199   3.554   2.139   8.598  0.5932 -0.1266 -0.3414
47980W        W51200  17.998  15.609   4.472 -0.1940  0.0435  0.2292
47981W        W51201   4.089  13.078  11.742 -0.1142  0.2003  0.0433
47982W        W51202  15.312  17.638   2.740  0.3613  0.0613 -0.1065
47983W        W51203  12.821   1.017   8.001  0.1957 -0.0920 -0.1956
47984W        W51204  16.655  11.908   0.209  0.2768 -0.0593 -0.1322
47985W        W51205   0.345  16.911   2.384  0.2034 -0.0383  0.0560
47986W        W51206   2.306   0.183  11.730  0.2852 -0.0445 -0.0687
47987W        W51207   5.764  13.691   1.550 -0.0445  0.0759 -0.1107
47988W        W51208   1.175   3.199  15.849 -0.1011  0.0157 -0.1584
47989W        W51209   8.516  17.444   3.535  0.1125 -0.0655 -0.3799
47990W        W51210  15.221  15.915   5.547  0.0440  0.0424 -0.1040
47991W        W51211   3.775   3.126  12.987 -0.1592  0.0048 -0.3616
47992W        W51212   1.168   2.606  14.362 -0.0047 -0.1070 -0.2435
47993W        W51213  17.511   4.091   4.899 -0.3022 -0.1004 -0.0533
47994W        W51214  17.347  15.716   2.882 -0.0370  0.0647  0.1502
47995W        W51215  16.493  10.100   8.746  0.1906  0.3092  0.0961
47996W        W51216  13.653  12.458   7.271  0.0592  0.0040  0.1454
47997W        W51217  13.081   2.068   6.066 -0.0322 -0.2047 -0.0894
47998W        W51218  18.173   5.594  10.898  0.1831  0.0003  0.0289
47999W        W51219  14.501  11.128   7.052  0.1107  0.1972  0.2556
48000W        W51220   7.766  16.313   0.158 -0.4210 -0.1498 -0.1383
48001W        W51221   9.502  13.983   3.285 -0.0386  0.0106  0.0928
48002W        W51222  13.513  18.077   1.488  0.1907  0.2041  0.0418
48003W        W51223  17.786   2.618   1.887  0.1494 -0.1967  0.0358
48004W        W51224  17.239   5.552  12.012  0.1207 -0.0434  0.1566
48005W        W51225   0.734   1.902   6.107 -0.1229 -0.2153  0.0034
48006W        W51226  14.728  16.858   5.416  0.3219 -0.1143  0.1927
48007W        W51227  16.065   6.812  10.008 -0.1433 -0.1744 -0.1989
48008W        W51228  17.501  14.854   9.762  0.2024 -0.0964  0.0110
48009W        W51229  15.696  14.252   2.892 -0.0876  0.1722 -0.1041
48010W        W51230  15.922   4.741  12.296 -0.1980 -0.1720 -0.3112
48011W        W51231  14.801  16.045  17.639  0.1298  0.0184 -0.2827
48012W        W51232   2.341  15.157   9.815  0.0629 -0.2068  0.0902
48013W        W51233  13.792  17.573   2.953  0.0235  0.2242 -0.3558
48014W        W51234  16.126   3.883   5.836 -0.1906  0.0593  0.1637
48015W        W51235  13.798  15.833   7.851  0.1113  0.0028 -0.1084
48016W        W51236   4.530  16.257   6.877 -0.0199 -0.2444  0.4382
48017W        W51237   0.191  17.098   6.833 -0.0122 -0.1626 -0.0704
48018W        W51238  16.227  13.823   6.694  0.1228 -0.2075  0.1658
48019W        W51239  14.731   2.881  11.822  0.2224  0.2421 -0.0040
48020W        W51240  18.030  16.978   8.712 -0.2579 -0.1070  0.1257
48021W        W51241  11.142   1.968   5.851  0.0814  0.1867  0.0505
48022W        W51242  17.567  12.214  13.327 -0.1801 -0.3957  0.3724
48023W        W51243  14.022  13.786   9.944 -0.2497  0.2538  0.0984
48024W        W51244  13.076  11.710  11.149 -0.0355  0.3783  0.2250
48025W        W51245   1.720  15.614   5.308 -0.0402  0.0000 -0.1370
48026W        W51246   0.717  16.906   3.709 -0.1366 -0.0667  0.1462
48027W        W51247   7.861  11.508   4.225 -0.5007 -0.1768 -0.0128
48028W        W51248  12.128  11.984   5.143  0.1593  0.0869 -0.0858
48029W        W51249   2.282   0.158  16.035 -0.0240  0.2161 -0.3745
48030W        W51250   9.655  14.487   9.644  0.0648  0.4059  0.0029
48031W        W51251  15.608   8.628   6.383 -0.1114 -0.0471  0.1649
48032W        W51252  18.010  12.484   6.421  0.2335 -0.1563 -0.2038
48033W        W51253  15.726  16.657  18.063  0.1447 -0.1716  0.0663
48034W        W51254  13.646  12.674   1.261 -0.2530  0.0741 -0.0339
48035W        W51255   9.896  17.608  15.787 -0.2094 -0.2219 -0.2378
48036W        W51256  14.275  10.892  12.151  0.2718  0.2129  0.1470
48037W        W51257   8.109  15.153   8.402  0.1029 -0.2707 -0.0781
48038W        W51258   1.596   9.318   7.322  0.0290 -0.2429  0.1328
48039W        W51259   8.232  13.894   8.481  0.1918 -0.1041  0.2078
48040W        W51260  11.060  11.806   1.235  0.0301 -0.1013  0.0025
48041W        W51261  16.985  15.222   7.513  0.2289 -0.1240 -0.0543
48042W        W51262  13.351  10.745   8.947  0.0085  0.0911 -0.1247
48043W        W51263  17.324  14.282   8.929 -0.2361 -0.0770 -0.0112
48044W        W51264   3.915   0.062   5.983  0.1423 -0.1945  0.1121
48045W        W51265  13.283  16.861   7.341 -0.1665 -0.4013  0.0911
48046W        W51266   2.297   9.427   8.112  0.0175 -0.0354  0.1415
48047W        W51267  12.834   0.529  11.549 -0.0759  0.1339 -0.0477
48048W        W51268   1.524  13.954   9.003 -0.1525 -0.2841 -0.0072
48049W        W51269  12.531   0.341   3.346  0.0098 -0.1815  0.0809
48050W        W51270  15.362  17.956  13.849 -0.2696  0.1868  0.1129
48051W        W51271  16.449  11.870   2.239 -0.0616 -0.0720 -0.1768
48052W        W51272   5.043  15.040  11.163 -0.2526  0.1214  0.1500
48053W        W51273  16.396   2.702   4.388  0.0620  0.0191 -0.1993
48054W        W51274   0.190   1.541  11.249  0.0586  0.2570 -0.0034
48055W        W51275   2.309   1.118  10.623  0.0276  0.0852  0.2005
48056W        W51276   3.311   2.136  10.330 -0.0368  0.0293  0.0912
48057W        W51277  15.867   1.377   7.439  0.2301 -0.2722  0.1262
48058W        W51278  16.111   4.892   7.756 -0.0910 -0.0659  0.1072
48059W        W51279  10.064  16.810   3.144 -0.0232  0.3597 -0.2537
48060W        W51280  14.028   1.456   8.166  0.0604 -0.1811 -0.0236
48061W        W51281  14.146  15.131  17.847 -0.0007 -0.1799 -0.0503
48062W        W51282   3.086  10.271  13.556  0.0234  0.0908  0.1755
48063W        W51283  16.736   5.679   7.419  0.0280  0.0697 -0.2299
48064W        W51284  15.509  11.505  14.741  0.1556 -0.0185 -0.2008
48065W        W51285  16.167   1.172  16.184  0.0063  0.0153  0.2899
48066W        W51286   3.367   1.479   5.647  0.0459 -0.4207 -0.1843
48067W        W51287  16.354  16.889   5.419 -0.1496 -0.3421 -0.1627
48068W        W51288  12.609   1.163   0.938  0.0058  0.0376  0.0572
48069W        W51289  15.463   1.907   9.972 -0.0119 -0.4035 -0.3764
48070W        W51290  11.985  17.643   9.991  0.0718  0.2219  0.0905
48071W        W51291  17.573   1.774  13.119  0.1338  0.1225 -0.2535
48072W        W51292   1.504  17.969   8.513  0.0647 -0.0273  0.1684
48073W        W51293   3.556  13.002  11.483 -0.2845  0.0862  0.1063
48074W        W51294  17.285   5.191   9.727  0.3597 -0.1862 -0.3446
48075W        W51295  14.021  12.635   9.479  0.1641 -0.3361  0.1079
48076W        W51296   1.867  18.171   7.315  0.1799  0.0418 -0.1234
48077W        W51297  15.998  11.712   7.562 -0.2316 -0.2235  0.1462
48078W        W51298  16.199   3.904  14.044 -0.2240  0.1594  0.1982
48079W        W51299   2.480  17.569   5.551 -0.0080  0.0354  0.3657
48080W        W51300   2.012   0.220  14.938  0.0155  0.1275  0.2053
48081W        W51301  18.247   4.940   9.460 -0.0971  0.0640 -0.1461
48082W        W51302   2.303  17.626  10.659 -0.0788 -0.1262  0.4907
48083W        W51303  16.968   0.052  10.628  0.0255  0.3613 -0.0388
48084W        W51304  10.364  17.203  11.373  0.1620  0.0232  0.0010
48085W        W51305  17.393  16.607  11.394 -0.0077  0.0210 -0.1531
48086W        W51306  10.169  14.634   9.667  0.2738  0.2412  0.0705
48087W        W51307   5.162   1.516  12.145  0.0828 -0.0696  0.1001
48088W        W51308  18.015  16.970   0.964 -0.0493 -0.0018 -0.1260
48089W        W51309  16.365   0.687  14.880  0.0420 -0.3892 -0.1474
48090W        W51310  12.123  16.546  14.398 -0.3067  0.1043  0.0808
48091W        W51311  14.906  16.366   9.407  0.2517 -0.2480  0.1344
48092W        W51312   5.890  11.092   6.020  0.0289 -0.0536 -0.3477
48093W        W51313  14.899  15.880  10.700  0.0961 -0.0619  0.1305
48094W        W51314  12.131   4.774  13.068  0.1298  0.0454 -0.3056
48095W        W51315  14.982  16.117  12.681 -0.0251  0.0284 -0.1736
48096W        W51316  17.215  14.791   8.950 -0.0401 -0.1899  0.1408
48097W        W51317  14.564  10.541  12.061  0.1641  0.1205 -0.0603
48098W        W51318  13.843  15.737   6.956 -0.2408  0.1124 -0.0712
48099W        W51319  11.402  17.117   9.446 -0.1317 -0.1957  0.0442
48100W        W51320  13.299  13.668   3.256  0.3314 -0.3079 -0.0233
48101W        W51321  16.096  11.290  16.436  0.1553  0.1836 -0.2760
48102W        W51322  18.109   3.192   8.827  0.2585 -0.1123 -0.1887
48103W        W51323   1.918   3.039  12.085 -0.1186  0.0423 -0.0331
48104W        W51324  17.391  14.211   7.668 -0.5158 -0.3808 -0.0735
48105W        W51325   1.901  17.144   9.855  0.0878 -0.1689 -0.0548
48106W        W51326  17.081  17.370   5.258 -0.2267  0.2209 -0.0588
48107W        W51327  15.397   1.880  11.284 -0.0301  0.0491 -0.1248
48108W        W51328  14.157  17.209   2.925 -0.0544  0.0369 -0.0871
48109W        W51329   6.490  16.048   8.871  0.0320 -0.1060  0.0573
48110W        W51330  12.755  14.155   6.443  0.0176 -0.1492  0.0297
48111W        W51331  17.237   1.828   9.198  0.0561  0.1282 -0.1561
48112W        W51332  11.728  14.220   6.801  0.0213 -0.0714 -0.0244
48113W        W51333   1.368  14.598   2.799 -0.2639  0.1380  0.3720
48114W        W51334  15.696   1.295   0.945 -0.3397 -0.0318  0.0012
48115W        W51335   7.002  12.465   9.775  0.0690 -0.0417  0.2890
48116W        W51336  15.767   5.441   0.255  0.1379  0.0750 -0.0940
48117W        W51337  17.979  14.441   0.342  0.0067  0.1916 -0.5631
48118W        W51338  14.694  12.296  13.234 -0.1600  0.0106  0.1280
48119W        W51339   6.972  11.590   9.693 -0.0143 -0.1568  0.0860
48120W        W51340  15.457   0.921   9.536  0.4275 -0.1087  0.1819
48121W        W51341   6.722  17.072  11.780  0.1627 -0.2988 -0.2206
48122W        W51342  16.108  17.286   7.866 -0.0755  0.2098 -0.0967
48123W        W51343  18.168  14.656  12.594 -0.1708  0.1555  0.1897
48124W        W51344  15.467  13.757  11.510 -0.0640 -0.2273  0.2310
48125W        W51345  15.870  12.440  10.677  0.1937  0.0482  0.0693
48126W        W51346  10.003  16.990   4.224  0.0753  0.0919 -0.5226
48127W        W51347  17.302  16.020  11.781 -0.3844 -0.0956 -0.0705
48128W        W51348  17.707  15.520   8.449  0.1502  0.1525 -0.0146
48129W        W51349   4.197  10.453   7.631 -0.1610 -0.2717 -0.0396
48130W        W51350   0.304  17.996  15.390 -0.0221  0.2046 -0.1967
48131W        W51351   1.951  14.111  13.323 -0.0433 -0.1924  0.0745
48132W        W51352   1.879  12.536   1.699 -0.2200  0.0805  0.2622
48133W        W51353   4.434   8.128  14.129  0.0380  0.0850 -0.0690
48134W        W51354   2.532  12.992  10.236  0.0639 -0.2249 -0.1922
48135W        W51355  17.153  17.105   9.445 -0.2367  0.2274  0.3000
48136W        W51356   2.488  13.478  10.111 -0.1044 -0.2265  0.0167
48137W        W51357  16.366  13.146  10.283  0.0949  0.3367  0.0736
48138W        W51358  17.392   1.621   7.678 -0.1537 -0.2655 -0.0642
48139W        W51359  13.638  16.841   8.430 -0.2169 -0.1614  0.0486
48140W        W51360   5.730  13.743   7.995  0.1788  0.1651 -0.0794
48141W        W51361   5.457  11.317   8.757  0.2609  0.1115 -0.0702
48142W        W51362  15.593   0.387   3.818  0.0473  0.0899 -0.0929
48143W        W51363  16.244  16.265   4.595 -0.1268 -0.1258 -0.0400
48144W        W51364   1.201  10.228  12.925 -0.1906 -0.1525  0.2922
48145W        W51365  16.561   5.575  13.295 -0.0779  0.2057  0.2002
48146W        W51366  13.815  18.260   3.743 -0.0896  0.0762 -0.0719
48147W        W51367   5.063  17.176   1.163 -0.1028 -0.0824  0.1724
48148W        W51368  11.760  11.925   9.461  0.0700  0.0385 -0.0334
48149W        W51369  16.021  16.551   4.906 -0.4265 -0.4484 -0.0133
48150W        W51370  12.660  14.291  12.209 -0.2070  0.0034 -0.5545
48151W        W51371   0.952  11.916   7.822  0.0832 -0.1403  0.1019
48152W        W51372  14.972  17.546  10.023 -0.1269 -0.2590 -0.0234
48153W        W51373  15.712   9.220  11.384 -0.1479  0.1947 -0.1821
48154W        W51374  15.687  13.803   7.041  0.0305 -0.1917  0.0120
48155W        W51375   4.259  17.233  16.311  0.0152 -0.0201 -0.2095
48156W        W51376   7.587  11.097   7.096  0.1729 -0.0615 -0.2191
48157W        W51377   4.310   2.954  13.031  0.1523 -0.1905 -0.0417
48158W        W51378   7.068   9.297   6.968 -0.0864  0.2217  0.3023
48159W        W51379  14.058  12.934   5.488 -0.1982 -0.0568 -0.2766
48160W        W51380   3.392  15.968  12.772 -0.1734 -0.0146  0.1710
48161W        W51381   6.273  17.374   5.533  0.0665  0.0440  0.0510
48162W        W51382   2.503  14.153  17.872  0.1360  0.0554  0.3438
48163W        W51383   3.175  15.983   3.009 -0.0385 -0.1535 -0.1380
48164W        W51384  17.584  14.524  18.235  0.2199  0.4357 -0.2784
48165W        W51385   0.937   7.826   7.924  0.1169 -0.1028 -0.1108
48166W        W51386  15.800  16.830   6.222 -0.0172 -0.0756  0.0108
48167W        W51387   7.843  17.958   8.627  0.4599  0.1650  0.0290
48168W        W51388  16.482  13.829   4.224 -0.0327 -0.3447 -0.1622
48169W        W51389  15.045  13.321  14.718 -0.3591 -0.3462 -0.0404
48170W        W51390  13.765   2.518  13.026 -0.0383  0.2670  0.1315
48171W        W51391  15.664   0.627   8.567 -0.0075 -0.1162 -0.2181
48172W        W51392  16.763  18.268  15.552  0.0793 -0.1799  0.2335
48173W        W51393  18.210  14.916   5.834 -0.1455  0.1072 -0.2309
48174W        W51394  10.689   1.239  13.157 -0.0278 -0.0910 -0.0530
48175W        W51395   3.536   1.993  16.427  0.1003 -0.1201  0.0642
48176W        W51396  16.099  14.402  14.650 -0.0365  0.1353  0.0548
48177W        W51397   3.281  12.366   9.937 -0.0720  0.0137 -0.2559
48178W        W51398  17.631  17.615  11.640 -0.1101 -0.0319 -0.2821
48179W        W51399  13.732  11.847   7.310 -0.2571 -0.1954 -0.1290
48180W        W51400   7.087   0.184   4.252  0.0536 -0.1670  0.0344
48181W        W51401  13.078  10.653  14.676 -0.1356 -0.1340 -0.0487
48182W        W51402   0.534   4.624   8.587  0.0914  0.0394  0.1561
48183W        W51403   0.132  13.096  11.750  0.4701 -0.2438 -0.0774
48184W        W51404  16.164  16.601  11.980  0.1796  0.2899 -0.1165
48185W        W51405   1.039   0.745   1.253  0.0041 -0.1204 -0.0152
48186W        W51406  16.645   0.093   6.943  0.0875 -0.0687 -0.0297
48187W        W51407  12.666  17.641   9.553  0.0649  0.1411 -0.1094
48188W        W51408  14.631   6.558  14.432 -0.3341  0.1502  0.2679
48189W        W51409  12.239  17.895  11.596 -0.1119 -0.0259 -0.0790
48190W        W51410  17.352   0.459   7.002  0.0946 -0.2170 -0.2337
48191W        W51411  11.283   1.098   5.400  0.3781 -0.3214 -0.0541
48192W        W51412  13.736  12.294  12.910  0.1870  0.1058  0.0934
48193W        W51413  15.112  12.198   3.299  0.2531 -0.3079 -0.1068
48194W        W51414  17.898   0.568  11.775  0.0513  0.2036  0.1174
48195W        W51415  16.868   5.248   2.255 -0.2713 -0.2181 -0.0633
48196W        W51416  10.245  14.017   4.675  0.0179 -0.0399 -0.1291
48197W        W51417  15.874   0.905   5.341  0.0441  0.0580  0.1634
48198W        W51418  13.681   7.352   8.310  0.3441 -0.0877 -0.3481
48199W        W51419   1.968  17.632   6.493  0.0156 -0.0182  0.1196
48200W        W51420   4.367  14.736   5.607  0.5332 -0.1070 -0.0735
48201W        W51421  17.930  13.981   4.143 -0.1974  0.1462 -0.0283
48202W        W51422  13.310   0.386  11.637  0.1668 -0.0241 -0.2582
48203W        W51423  13.559  15.857   8.311  0.1905  0.2295  0.0752
48204W        W51424  14.794  13.778   7.678 -0.0115  0.0084 -0.1816
48205W        W51425   1.063  16.087  10.206  0.2856 -0.2827  0.0255
48206W        W51426   5.520  16.734   9.416 -0.0369 -0.2246 -0.1067
48207W        W51427  13.689   4.975  15.912  0.2411 -0.1801 -0.1585
48208W        W51428  10.349  15.747   4.327 -0.1114  0.2416  0.1035
48209W        W51429  17.236  14.276   6.392 -0.0415  0.1233  0.0848
48210W        W51430  10.548  15.006   9.698 -0.1191  0.3351  0.1188
48211W        W51431   1.842  17.138   7.766  0.1556  0.0215  0.0700
48212W        W51432   6.126   5.849  10.811 -0.2702 -0.0208 -0.0854
48213W        W51433   2.438   0.710  12.717  0.1262  0.1703 -0.2693
48214W        W51434  16.176   2.314   9.534  0.0614 -0.1653 -0.0772
48215W        W51435  12.602   5.452   9.740 -0.1165  0.2413  0.1061
48216W        W51436  11.478  16.346  10.057  0.0302  0.3053 -0.3108
48217W        W51437  16.846  15.218   7.978  0.1447  0.2246  0.1775
48218W        W51438   5.604  11.081   6.445  0.1037  0.1468  0.1927
48219W        W51439   8.541   1.334   6.683 -0.1707  0.0999 -0.1253
48220W        W51440  15.821  15.923   9.903 -0.0189  0.1185  0.2524
48221W        W51441  11.403   5.612  14.131 -0.2207  0.1769  0.0331
48222W        W51442  13.951  11.435  14.134  0.1193 -0.6768 -0.1596
48223W        W51443   8.362   2.514   1.625 -0.1821  0.2537 -0.1802
48224W        W51444  10.874  13.907  13.725 -0.1796  0.0376  0.2396
48225W        W51445  13.875  14.022  13.413 -0.0544  0.1922  0.2343
48226W        W51446  12.186  12.495  10.788 -0.0326 -0.0240 -0.1887
48227W        W51447   5.412   1.556  11.150 -0.1019  0.2403 -0.2335
48228W        W51448   2.057  15.775   4.424 -0.1348 -0.1352 -0.0441
48229W        W51449  16.831   0.044  11.771  0.0624 -0.0372  0.1947
48230W        W51450   0.161  15.575  10.324 -0.5735 -0.0844  0.0625
48231W        W51451   9.802   1.352  11.115  0.4828 -0.4887 -0.0624
48232W        W51452   0.772   1.724  10.276  0.2078  0.1917  0.3207
48233W        W51453  16.629  17.047   4.069  0.0284  0.1525  0.0039
48234W        W51454  17.619  13.552   5.465  0.0375 -0.0189 -0.0167
48235W        W51455  16.516  17.833   7.042 -0.0163 -0.5524 -0.1495
48236W        W51456   1.751   2.838   3.273 -0.0678 -0.0835 -0.1220
48237W        W51457  15.172  17.071   7.959  0.1742  0.1374 -0.2358
48238W        W51458  16.762  10.479  11.112  0.0558  0.1751 -0.1010
48239W        W51459   6.490  12.335   8.201  0.2970  0.3689  0.2106
48240W        W51460   1.250  16.549  10.678  0.0823 -0.1104 -0.3057
48241W        W51461  16.739   0.652  12.978 -0.1582  0.1728 -0.2065
48242W        W51462   9.864   4.523  12.803  0.0861  0.0954 -0.3343
48243W        W51463  11.347  15.443   7.581  0.2574  0.0926  0.0450
48244W        W51464  13.450  14.102   4.854  0.2265 -0.0157  0.0635
48245W        W51465   2.251   9.209   5.446  0.2062 -0.0227 -0.0131
48246W        W51466  17.018  14.145   2.096 -0.2234  0.0632 -0.0342
48247W        W51467  17.131  10.882   8.866 -0.0233 -0.0023  0.1427
48248W        W51468   1.153  13.579   5.731  0.1447 -0.0713  0.1328
48249W        W51469   8.543   8.072  10.417 -0.0087 -0.3746  0.1139
48250W        W51470   5.503  10.100   4.583  0.0915 -0.0313 -0.0048
48251W        W51471  10.767  10.313   9.302  0.2073  0.2124 -0.0587
48252W        W51472  17.000   3.873  10.087  0.0393 -0.2768  0.0817
48253W        W51473  14.910   5.633   8.725  0.1088  0.0321  0.1261
48254W        W51474  13.531  16.148   9.595 -0.0303 -0.0474  0.2274
48255W        W51475  14.364   8.745   5.942  0.0145 -0.0146  0.0933
48256W        W51476  11.771  13.592  11.626 -0.0434 -0.1804  0.0184
48257W        W51477  15.166  14.723  10.760 -0.0313 -0.0520 -0.1139
48258W        W51478  15.690  14.153   3.590 -0.1019  0.0794 -0.0128
48259W        W51479   9.355  14.871   6.222 -0.0928  0.0298 -0.1929
48260W        W51480  17.301  17.692  10.025 -0.0752  0.0767  0.1723
48261W        W51481  17.167  11.446   9.201  0.3193 -0.1198  0.0324
48262W        W51482  14.979  15.942   8.545  0.1974 -0.1225 -0.0316
48263W        W51483  16.246   7.429   6.298  0.1878 -0.1475  0.1334
48264W        W51484   4.078  18.141   8.992  0.2819  0.0704 -0.2042
48265W        W51485  15.771  11.432   4.534 -0.0345 -0.0323 -0.1622
48266W        W51486  15.749  14.409   9.028  0.1162 -0.1078  0.0839
48267W        W51487  15.934  10.901  12.988  0.2192 -0.1446 -0.0067
48268W        W51488  14.716  16.427   5.062 -0.4590  0.2861  0.2436
48269W        W51489  16.345  11.299  10.736  0.3844 -0.0112 -0.0426
48270W        W51490  17.072  16.343  13.199 -0.0572 -0.2887  0.1808
48271W        W51491  10.940   2.654   0.274  0.0750  0.1442 -0.0239
48272W        W51492  15.451   2.603   1.392 -0.0026  0.3331  0.2851
48273W        W51493   1.271   6.945   3.043 -0.0130  0.0738 -0.1426
48274W        W51494  13.058  14.424  13.206  0.0723  0.1095 -0.0813
48275W        W51495  14.286  10.940  10.095 -0.0971  0.0681 -0.1623
48276W        W51496  16.545   3.105   9.701 -0.0405 -0.0193 -0.0174
48277W        W51497  15.427   1.730  11.757 -0.2385  0.0217  0.1704
48278W        W51498  12.559  10.153   8.816  0.1239 -0.4092 -0.2637
48279W        W51499   7.953  11.935   5.900 -0.1858  0.1816  0.0608
48280W        W51500  14.749  12.960   6.961 -0.0415  0.2084  0.0985
48281W        W51501   4.844   8.105   6.404 -0.1804  0.0335 -0.1202
48282W        W51502  17.797   5.931  10.488  0.0163  0.0295  0.0931
48283W        W51503   8.165  11.131  10.708 -0.1489  0.1027  0.1146
48284W        W51504  13.527  17.735   7.373  0.0313  0.1058  0.0835
48285W        W51505  12.420   7.331   7.567 -0.0257  0.0993 -0.2164
48286W        W51506  15.816  17.450   6.735  0.0085 -0.3410 -0.0918
48287W        W51507   0.014  13.661  10.110  0.2255 -0.2234  0.0327
48288W        W51508  16.987   0.496  14.021 -0.0021  0.0754 -0.2005
48289W        W51509   3.839  15.259   8.321  0.3291  0.3074 -0.0560
48290W        W51510   2.960  12.325   8.790  0.5610  0.1915 -0.2674
48291W        W51511  17.406   6.814   6.826  0.2958  0.1401  0.3429
48292W        W51512  16.513  15.449   7.614 -0.0609  0.0965 -0.0182
48293W        W51513  14.390  13.815   2.310  0.2985 -0.0182 -0.1846
48294W        W51514  14.001   3.663  12.805 -0.1132 -0.0464  0.0081
48295W        W51515  11.365   2.441  11.095 -0.2315  0.0983 -0.1349
48296W        W51516   3.769   9.403   6.335  0.0871  0.4067  0.1363
48297W        W51517  13.706  15.841  13.169  0.0788 -0.0410 -0.1800
48298W        W51518  11.095   1.940  10.116  0.1990  0.0753  0.3627
48299W        W51519   8.458  16.522   9.790  0.1035  0.2374 -0.1454
48300W        W51520   0.562  15.171   5.043  0.0955  0.0315  0.0889
48301W        W51521   2.367  12.765   5.133 -0.4154 -0.2771 -0.0099
48302W        W51522  14.036  14.769   6.927  0.1384 -0.1107  0.1808
48303W        W51523  13.601  12.923   6.421 -0.2122  0.0691  0.0692
48304W        W51524   2.397  10.252   6.413  0.4489  0.4050 -0.0461
48305W        W51525  14.354  17.510   7.527  0.2741  0.4243 -0.0267
48306W        W51526  16.420  16.127   0.230 -0.2117 -0.0624 -0.1784
48307W        W51527  15.987  17.770   7.144  0.0308  0.0993  0.3482
48308W        W51528   2.063  12.346  12.341 -0.1716  0.2383  0.0257
48309W        W51529  16.569   2.940  10.700  0.1435 -0.0728  0.1721
48310W        W51530  14.970  17.214  10.502  0.1335  0.3050 -0.3593
48311W        W51531  11.291  15.037   6.340 -0.1912 -0.1180  0.0928
48312W        W51532  11.624  17.264   2.673 -0.3771  0.2518  0.1897
48313W        W51533  14.570  17.448  11.692 -0.0952 -0.0247 -0.0514
48314W        W51534  12.139   8.235   7.498 -0.1007 -0.0941 -0.0189
48315W        W51535  15.160  16.140   5.071  0.2165  0.1911 -0.0638
48316W        W51536   5.694  14.184   6.717 -0.0549  0.0660 -0.1160
48317W        W51537  13.911  15.014  14.433  0.1311  0.1286 -0.2160
48318W        W51538  15.547  15.913  17.179 -0.1372 -0.2459  0.0840
48319W        W51539  16.038  11.470  14.581  0.0041  0.3319 -0.1684
48320W        W51540   0.401  15.544   6.848 -0.2381 -0.3591  0.1217
48321W        W51541  10.229   0.348   6.023 -0.2091 -0.1890  0.2576
48322W        W51542  10.836   2.552  10.917 -0.1350 -0.0610  0.2640
48323W        W51543  10.453  17.797  10.735  0.1576 -0.0752 -0.2083
48324W        W51544  11.795   0.880  14.083 -0.0156 -0.1588  0.0640
48325W        W51545  17.364   5.080   3.865 -0.1376  0.0861  0.0353
48326W        W51546  15.149   0.380  14.364 -0.1120  0.0041  0.5085
48327W        W51547   9.890   0.566   8.519 -0.1960 -0.2178 -0.0166
48328W        W51548   1.398  12.244   4.147  0.1493  0.1783  0.1896
48329W        W51549   7.153  17.416   9.976 -0.1794  0.0120 -0.0875
48330W        W51550  10.588  14.843   6.908  0.0232 -0.1560 -0.1954
48331W        W51551   4.778  12.547   7.725  0.4664  0.3117 -0.0305
48332W        W51552  15.647  15.143   6.509  0.1271 -0.1279 -0.2345
48333W        W51553  16.307  13.814  10.538 -0.1810 -0.1690  0.0248
48334W        W51554   9.191  14.877  10.560  0.0716 -0.1520  0.2977
48335W        W51555  11.565   9.953   8.336 -0.1974 -0.1139  0.0620
48336W        W51556   1.871  16.752   6.392 -0.2121 -0.0030  0.0897
48337W        W51557  14.852   4.440   3.933  0.4406  0.0588  0.0395
48338W        W51558  16.726  12.113  10.445 -0.0051  0.0497 -0.1094
48339W        W51559  16.382   0.577   9.135 -0.1003 -0.1054 -0.0150
48340W        W51560  14.827  15.616   5.698 -0.0196  0.2012  0.0344
48341W        W51561   9.113   3.143   5.098  0.2473 -0.1591  0.1181
48342W        W51562  14.110  14.604   4.020 -0.2232  0.2432  0.1281
48343W        W51563   2.314  15.736   3.552 -0.2512 -0.1803  0.1601
48344W        W51564  13.226   1.394  14.874  0.0434 -0.0310  0.3038
48345W        W51565   0.669   4.182  15.830  0.3826 -0.1750 -0.1962
48346W        W51566  15.499  15.185   8.707 -0.2356 -0.0005 -0.0403
48347W        W51567  13.120   2.201   6.683  0.1242  0.2055 -0.0870
48348W        W51568   9.593   1.984   6.895 -0.0062 -0.4756  0.1073
48349W        W51569   3.565   0.003   9.220  0.0589 -0.0768 -0.2607
48350W        W51570  16.069  16.708   8.886  0.3305 -0.3448 -0.0341
48351W        W51571  14.969  18.056   9.999 -0.2867  0.1174  0.1251
48352W        W51572   2.068   0.056   3.516  0.1302  0.3497  0.1816
48353W        W51573  16.859  14.029   7.722 -0.1912  0.2085  0.1575
48354W        W51574  13.701  17.480  12.177 -0.0997  0.0739  0.2938
48355W        W51575   5.575   1.372  12.440 -0.2005 -0.0013 -0.1402
48356W        W51576  15.709  15.418  10.599 -0.1854 -0.0476 -0.1763
48357W        W51577   5.164   9.721   5.084  0.0746  0.0568  0.4180
48358W        W51578  13.107  18.095   9.468 -0.1094 -0.0697  0.1591
48359W        W51579  13.384  15.027   7.548 -0.3210  0.0516 -0.0809
48360W        W51580   1.209  13.214   9.543  0.5166  0.0458  0.1158
48361W        W51581  13.277  17.580   7.801  0.0578  0.0543  0.2284
48362W        W51582  13.019  12.655   9.155 -0.2132  0.2551 -0.0072
48363W        W51583  14.905   0.895   7.594  0.0684 -0.3689 -0.0124
48364W        W51584   4.172  18.035   6.879  0.0860 -0.1165  0.1727
48365W        W51585   2.198  16.092  15.113  0.1551 -0.1357  0.0702
48366W        W51586  16.814  11.760  12.913  0.1010  0.0795 -0.0407
48367W        W51587   0.539  17.464   2.238  0.1320  0.2400 -0.2142
48368W        W51588  13.507   6.964  12.081 -0.0964  0.0126  0.1521
48369W        W51589  13.957   7.436  15.815  0.1629 -0.0956  0.2486
48370W        W51590  14.584  17.341  17.021 -0.2125 -0.2019 -0.1215
48371W        W51591  11.456  13.815   4.325 -0.2246 -0.2246 -0.0926
48372W        W51592  12.702  16.909   9.569  0.1286 -0.0226 -0.1398
48373W        W51593  10.990  11.992  10.447 -0.2912  0.0338  0.2137
48374W        W51594   0.708  13.160   9.765  0.0195 -0.0087 -0.3121
48375W        W51595  16.135  14.837   4.645 -0.2577 -0.2269  0.0860
48376W        W51596  17.382   1.347   6.847  0.1048  0.2296  0.0650
48377W        W51597   3.124  12.777   3.832  0.1671 -0.0100 -0.1032
48378W        W51598  12.743   0.226  10.943 -0.0591 -0.1141 -0.0007
48379W        W51599  15.243   2.135   7.449 -0.1236 -0.0717  0.1798
48380W        W51600   2.289  12.619   9.969  0.2365  0.3281  0.0702
48381W        W51601  10.866   0.104   8.291 -0.0972  0.1330 -0.0006
48382W        W51602  15.417   7.591   9.047 -0.0001 -0.0995  0.1992
48383W        W51603   4.667  12.747   5.064  0.1895  0.0512  0.3742
48384W        W51604  14.175  12.544   7.425 -0.0810  0.1770  0.0531
48385W        W51605   5.807  11.618   9.891 -0.0505  0.1412 -0.3916
48386W        W51606  17.963   5.163  17.322 -0.1358  0.1578 -0.0708
48387W        W51607  10.093  13.432  15.259 -0.0853  0.0941 -0.3288
48388W        W51608   4.226  12.712   9.402  0.1134 -0.4218 -0.1685
48389W        W51609  14.170  15.639   2.134  0.1842 -0.1092 -0.3125
48390W        W51610  11.647  14.103  11.056  0.0493  0.3568  0.1831
48391W        W51611  10.331  10.112  11.910  0.0583 -0.2044 -0.0477
48392W        W51612  13.484   7.350  15.978  0.2236 -0.1660 -0.2444
48393W        W51613   1.065  17.774   9.872 -0.0141  0.3324 -0.1714
48394W        W51614  13.366  17.143  13.661  0.3385  0.2144  0.7227
48395W        W51615  17.918  16.105  13.588  0.1331 -0.2024 -0.1519
48396W        W51616   0.303  16.033   6.818 -0.0828 -0.2942  0.0029
48397W        W51617  10.871  17.767  14.753 -0.1393 -0.1985  0.2100
48398W        W51618   7.319  17.574   2.767 -0.2623  0.0041 -0.0811
48399W        W51619  12.297   3.224   6.799 -0.0977 -0.1332 -0.4394
48400W        W51620  13.579   1.220  12.249 -0.0948 -0.1325  0.1768
48401W        W51621   6.941   7.264  10.538  0.0104 -0.3041  0.2196
48402W        W51622  10.222  15.632  14.654 -0.1100 -0.0636  0.0899
48403W        W51623  17.110  13.593  17.148 -0.1070 -0.3481 -0.0704
48404W        W51624  12.739  14.939  15.633  0.0052  0.1834  0.1469
48405W        W51625   1.073  13.890   7.231  0.1271 -0.1455  0.1055
48406W        W51626  16.546  11.081   3.018 -0.0556 -0.2773  0.0528
48407W        W51627  10.411  16.902  12.153  0.0831  0.1792 -0.0174
48408W        W51628  12.707   0.017   4.473 -0.0129  0.4455 -0.1116
48409W        W51629  13.988   3.249  13.573 -0.0862 -0.2040  0.0997
48410W        W51630  10.003  14.148   3.389  0.2463  0.0244 -0.1196
48411W        W51631  14.507  14.624   8.220 -0.1215 -0.2876 -0.2894
48412W        W51632  12.210  17.384  11.415  0.0906 -0.0909 -0.1036
48413W        W51633   3.910  15.189   9.259  0.0132  0.0595 -0.1092
48414W        W51634  13.305  12.155  12.584  0.1061 -0.2062 -0.2868
48415W        W51635  15.763  15.785  15.182 -0.0117 -0.1189  0.0054
48416W        W51636   9.538  14.545   3.288  0.1306  0.1240 -0.0899
48417W        W51637   0.863  15.304  14.721 -0.0762 -0.0802  0.2785
48418W        W51638  18.255  17.923  14.945 -0.1160 -0.3580 -0.1190
48419W        W51639   1.756  12.679  12.544 -0.1649 -0.1785 -0.0427
48420W        W51640  15.227  12.957  12.661 -0.1296 -0.2901  0.0548
48421W        W51641  13.087   2.522   9.844  0.0264  0.0337 -0.0958
48422W        W51642  11.797   0.329   8.529 -0.1745  0.1534  0.2152
48423W        W51643  14.404  16.105   2.134  0.3639  0.0372  0.1017
48424W        W51644  17.190   4.075   0.491 -0.0208  0.2499 -0.0668
48425W        W51645  13.002  11.737   2.526 -0.2131 -0.1128  0.2166
48426W        W51646   9.137   6.621  15.663 -0.1900 -0.2362  0.1601
48427W        W51647  15.303   2.989  11.821 -0.1555 -0.1239 -0.0163
48428W        W51648  10.086   7.392  17.094  0.0083  0.1476 -0.1524
48429W        W51649   8.175  17.007  11.887 -0.2231 -0.0016  0.0042
48430W        W51650  13.134   5.787  14.560  0.1837  0.0952  0.2341
48431W        W51651  12.949   1.326  13.240  0.1492 -0.1360  0.0932
48432W        W51652  16.407  14.380  14.184 -0.2405  0.2452  0.4725
48433W        W51653  13.503  16.060  12.765 -0.0189 -0.1769  0.2076
48434W        W51654   2.483  17.879   8.320 -0.2057  0.1735  0.1389
48435W        W51655   7.949  17.406  15.169 -0.1055 -0.1846 -0.2089
48436W        W51656  11.832  18.262  13.995  0.1398  0.2316  0.0057
48437W        W51657  15.978   1.136   6.113 -0.0206  0.1007  0.0441
48438W        W51658  17.168  17.384   1.447 -0.2542 -0.0594  0.1157
48439W        W51659  16.044  15.878  16.154 -0.1555 -0.0391 -0.1432
48440W        W51660  15.918   0.909  10.387  0.1296  0.3026  0.1106
48441W        W51661   9.650   9.291  13.487  0.3086  0.0298 -0.1199
48442W        W51662  13.547  17.646  12.639  0.3130 -0.0295  0.1992
48443W        W51663  14.086   4.429  12.146 -0.0072 -0.0665 -0.2135
48444W        W51664  14.319   1.657  13.690  0.2312  0.0303  0.2848
48445W        W51665  15.260  15.677   9.333  0.0469  0.0754  0.4512
48446W        W51666   0.198   2.370   5.802  0.3309 -0.2811 -0.1872
48447W        W51667  14.359  15.267  16.120  0.0466 -0.0165  0.1154
48448W        W51668   8.084   2.062  12.329 -0.1001 -0.2654  0.1136
48449W        W51669   8.836  13.251   9.659 -0.3883  0.1489 -0.2021
48450W        W51670  15.895  15.983  10.436  0.1212  0.1957  0.0046
48451W        W51671  15.485  12.134  12.254 -0.2869  0.1849  0.1391
48452W        W51672  17.914  16.990   9.887 -0.0256 -0.0184 -0.0583
48453W        W51673  17.642  13.790  15.772 -0.0186 -0.1378 -0.1123
48454W        W51674  16.961   4.398  14.892 -0.1482  0.2122  0.3262
48455W        W51675   3.941   1.741  15.161 -0.0491  0.0060 -0.1161
48456W        W51676  13.160  14.739   8.048 -0.0561 -0.1843 -0.1284
48457W        W51677  15.632   3.113  10.822 -0.0054  0.2311  0.3479
48458W        W51678  12.505  14.031  13.238  0.1119 -0.1296  0.3613
48459W        W51679  15.913  14.132   8.119 -0.1316 -0.1570 -0.1490
48460W        W51680  13.820   1.481  10.022  0.0197 -0.0358  0.0677
48461W        W51681  16.333   3.329  16.579  0.0457 -0.2261  0.0721
48462W        W51682  13.282  14.496  10.948  0.0599  0.2672 -0.2797
48463W        W51683  16.422  15.836   7.059  0.2758 -0.2062  0.2471
48464W        W51684  11.807  15.210  12.993  0.2043 -0.2161 -0.1509
48465W        W51685  13.103   9.475   9.886  0.1478 -0.1051 -0.1615
48466W        W51686  18.167  17.224  15.609 -0.0511 -0.1399 -0.3146
48467W        W51687  18.118  10.557   3.745 -0.1694 -0.2197  0.0512
48468W        W51688  17.115  13.977   6.793  0.0443 -0.3079 -0.0299
48469W        W51689  13.715   9.265   5.244  0.0713 -0.1003 -0.1447
48470W        W51690  14.170   2.492  14.908 -0.0246  0.1944 -0.0439
48471W        W51691   3.451   2.784  12.224  0.1427 -0.1216  0.1321
48472W        W51692  13.055   5.572  15.399 -0.1505  0.1256 -0.0952
48473W        W51693   9.242  16.986  15.091  0.2335 -0.3067 -0.2631
48474W        W51694  16.874  17.041   5.654 -0.0033 -0.0535  0.2207
48475W        W51695  11.380   0.823  12.131  0.1271  0.1892  0.0883
48476W        W51696  12.606  13.106  16.193 -0.1723  0.0953 -0.0670
48477W        W51697   5.760   5.963  16.830  0.0155  0.0185 -0.0157
48478W        W51698  16.153   1.305  13.078  0.0590  0.0187 -0.1499
48479W        W51699  13.189  11.552   9.025  0.0565  0.1386  0.4322
48480W        W51700  16.925   1.560  10.447 -0.0474 -0.0028  0.0422
48481W        W51701   3.135   6.740   7.934  0.0836 -0.1954  0.4349
48482W        W51702   4.024   3.899  14.150  0.1984 -0.1150 -0.0040
48483W        W51703  14.747  11.825  11.107 -0.2071 -0.0189  0.4810
48484W        W51704  10.216  15.609  15.524 -0.2412  0.0445  0.1334
48485W        W51705  15.449  18.213   9.857  0.1142  0.3036  0.1515
48486W        W51706   0.208  17.934  12.815  0.2229  0.0605  0.0548
48487W        W51707  13.300   2.357   7.223 -0.1139 -0.1235 -0.2005
48488W        W51708   0.526   0.191   9.366 -0.2928 -0.1700  0.2582
48489W        W51709  11.999  13.904  15.090  0.0469  0.2174 -0.1063
48490W        W51710  12.905  14.499  17.416 -0.2286 -0.1397  0.0379
48491W        W51711   1.934  11.087  15.710  0.1406  0.3719  0.1073
48492W        W51712  15.637  16.695   9.788  0.0852 -0.0138 -0.3340
48493W        W51713  17.321   9.180  14.291  0.1332 -0.0638 -0.0983
48494W        W51714  14.786  14.432   8.732 -0.1940  0.0157 -0.0175
48495W        W51715  14.328  15.695  15.472  0.2701  0.0538 -0.0476
48496W        W51716   1.547  17.950  15.726  0.1370  0.1164 -0.2474
48497W        W51717  13.022  15.035  14.421 -0.1335  0.0160 -0.0004
48498W        W51718   0.125   3.174   0.481 -0.1187 -0.0498 -0.1314
48499W        W51719  12.086  13.438  11.170 -0.2311 -0.2390 -0.1590
48500W        W51720  15.336  16.081  13.058  0.0008 -0.2777  0.2086
48501W        W51721  17.102  12.754  13.776  0.3920  0.2104  0.1979
48502W        W51722  16.978   4.312   1.460  0.0791  0.1488 -0.0790
48503W        W51723   2.606  11.782   5.215  0.1018 -0.3656  0.2135
48504W        W51724  12.358  14.996  10.106 -0.0893 -0.1131  0.1030
48505W        W51725  15.030   0.241  16.419  0.0139 -0.2226 -0.4666
48506W        W51726  13.493  12.546  11.146  0.3493  0.2714 -0.1683
48507W        W51727  10.646  15.075  10.436  0.0605  0.0612 -0.1298
48508W        W51728   3.857  17.715   1.469 -0.5046  0.1543  0.3435
48509W        W51729  16.697   3.296  12.883 -0.2043  0.0966  0.3351
48510W        W51730  17.810  13.560  12.280  0.0166  0.0131  0.2207
48511W        W51731  10.244  14.024   5.723 -0.2666  0.0316  0.0375
48512W        W51732  16.023   4.060  15.085 -0.1016  0.1386 -0.0245
48513W        W51733  15.190  15.742  11.058  0.1018 -0.1506  0.2056
48514W        W51734  14.182   0.470   0.683  0.0730 -0.2065  0.1371
48515W        W51735   9.388  13.722  15.823 -0.1426  0.0918 -0.1926
48516W        W51736   5.568   6.035  15.335  0.1595 -0.1296 -0.2065
48517W        W51737  15.343  17.732  17.498 -0.2343 -0.0179  0.2093
48518W        W51738  15.462   1.297  14.209  0.0270 -0.0350 -0.0883
48519W        W51739  18.179  17.466  17.270 -0.0337  0.1712  0.2908
48520W        W51740  11.016  17.865   6.811  0.1488 -0.0644 -0.0060
48521W        W51741   2.167   5.862   2.814 -0.0559 -0.0286  0.2838
48522W        W51742   3.439  13.318   8.388  0.1281  0.0319 -0.3672
48523W        W51743  13.970   1.017  10.674  0.0462 -0.0789 -0.2536
48524W        W51744   6.571  12.310   6.468 -0.1215 -0.0740  0.2819
48525W        W51745   7.171  14.810   5.818  0.1846 -0.0836 -0.1343
48526W        W51746  15.753   8.442   5.148 -0.0622 -0.0501  0.0560
48527W        W51747  16.328  13.904  14.988  0.0326  0.2639 -0.2265
48528W        W51748  17.469  12.832   9.141 -0.3564  0.0551  0.1042
48529W        W51749  17.812  12.454   9.056 -0.1107 -0.3614 -0.2543
48530W        W51750  17.532  17.036   0.817 -0.2115 -0.3391 -0.0277
48531W        W51751  13.910  12.709  13.331 -0.2355  0.1779  0.2262
48532W        W51752  17.832  17.233  11.051 -0.2244  0.1744  0.0139
48533W        W51753   0.981  16.692  11.590  0.3721  0.4132  0.1174
48534W        W51754   0.051  17.867  17.496 -0.0622 -0.4140 -0.0994
48535W        W51755   2.647  10.837  16.609 -0.0266 -0.0737  0.0221
48536W        W51756  14.903  15.843   1.383  0.2078  0.0234  0.0311
48537W        W51757   0.161   3.474  15.794 -0.1055  0.4205  0.0526
48538W        W51758   2.635  17.216  13.754 -0.0518 -0.0051 -0.1111
48539W        W51759  10.384  18.028  11.743 -0.0227 -0.1895 -0.1738
48540W        W51760   0.186  12.427  16.097 -0.0846 -0.0224  0.0043
48541W        W51761  14.002   8.800  11.592  0.3511 -0.0824 -0.0157
48542W        W51762  17.485  14.496  10.738 -0.2887  0.0605  0.1869
48543W        W51763  14.314   0.041  12.725 -0.2772 -0.1005  0.1237
48544W        W51764  16.621  16.832  13.219 -0.0511 -0.1007  0.0087
48545W        W51765   7.240   8.502   4.214 -0.1137 -0.0641  0.2560
48546W        W51766  14.411  13.230  13.789 -0.1279 -0.0021  0.1788
48547W        W51767  13.449   5.830  14.075  0.0341 -0.2483 -0.1438
48548W        W51768  10.012   2.024  14.081  0.0304 -0.1629  0.2077
48549W        W51769  14.654   2.303  11.596 -0.1114  0.0265  0.5012
48550W        W51770  13.820  15.041  12.479  0.0744  0.3531 -0.1542
48551W        W51771  11.713   0.469  13.820 -0.0010  0.2205 -0.1672
48552W        W51772  16.590   2.022  16.658 -0.2768  0.0271  0.2688
48553W        W51773  13.477   3.503  18.258 -0.3108 -0.1825 -0.0953
48554W        W51774  17.873  10.187  13.718  0.0233 -0.1944 -0.2517
48555W        W51775  17.497  15.040   9.266 -0.2176 -0.3398  0.0957
48556W        W51776  13.228  16.358   0.656  0.2129 -0.0924 -0.3839
48557W        W51777  12.076   2.961  13.685  0.0303 -0.0270 -0.0812
48558W        W51778  18.159   1.017  16.614 -0.0536 -0.5356 -0.0498
48559W        W51779  17.182   5.646  17.346 -0.4097  0.1933  0.0887
48560W        W51780   2.545  17.054  16.110  0.3207  0.3086  0.0416
48561W        W51781  13.697  16.361   3.702 -0.0663  0.1275  0.2267
48562W        W51782  11.008  11.986  12.367  0.0738 -0.3704 -0.0757
48563W        W51783   6.130  17.373  15.079 -0.6229 -0.1072 -0.0735
48564W        W51784  12.803  14.683  18.176  0.1302 -0.1042 -0.0638
48565W        W51785   1.279   4.647  10.953  0.1031  0.0016  0.0149
48566W        W51786   0.752   9.017  14.707  0.0176 -0.2578  0.1297
48567W        W51787   7.804  16.086   6.481  0.3495  0.0791  0.0726
48568W        W51788  16.872   0.550   7.977 -0.1857 -0.1569 -0.1032
48569W        W51789  16.187  12.348  14.187 -0.0227 -0.0464  0.1524
48570W        W51790  13.166   2.041   1.118  0.0199  0.3362 -0.1240
48571W        W51791   2.551  14.877   8.870 -0.1221  0.0307 -0.3311
48572W        W51792   9.992  15.821   7.652  0.4235  0.1996  0.2923
48573W        W51793   9.402   8.889  13.737  0.0493 -0.0349 -0.2420
48574W        W51794  15.362  10.344   2.082  0.2109  0.1053  0.1487
48575W        W51795  11.143   2.896  12.005  0.0101  0.1451  0.0694
48576W        W51796  14.421   7.534  10.515 -0.3405 -0.1219  0.0111
48577W        W51797  13.856  15.289  10.411 -0.3429 -0.3241 -0.0349
48578W        W51798  13.018   0.858  10.650  0.0088 -0.0812  0.0114
48579W        W51799  13.873  12.747   9.975  0.2004 -0.0630  0.1720
48580W        W51800   2.347  14.686  12.635  0.2132  0.1184 -0.0594
48581W        W51801  12.768   2.104  17.366 -0.2570  0.0354 -0.4969
48582W        W51802   3.081   5.295  11.715  0.1646  0.2526  0.1690
48583W        W51803   9.702  13.759   4.479  0.0597 -0.2459 -0.1967
48584W        W51804  17.843  17.796   7.560 -0.3010 -0.2277  0.1957
48585W        W51805  11.292  14.562   7.975 -0.1776  0.0404 -0.1116
48586W        W51806  16.126  15.986  12.806 -0.2084  0.0185  0.0732
48587W        W51807   7.998  12.753   9.615  0.0513 -0.0951  0.2488
48588W        W51808  11.936   9.908  16.536  0.0606  0.1662  0.0695
48589W        W51809  13.351  16.153  11.933  0.2500  0.0609 -0.0330
48590W        W51810   7.097   0.733  11.616  0.3218 -0.6064  0.1613
48591W        W51811  10.128   0.666   6.365  0.1610  0.1068 -0.0176
48592W        W51812   1.965   0.637  16.161 -0.0949 -0.0899 -0.1649
48593W        W51813  14.052  14.249  10.115  0.0462  0.2120  0.0923
48594W        W51814  10.650  14.639   0.073 -0.1280 -0.2649 -0.2762
48595W        W51815  14.895   1.820   0.707 -0.3015 -0.1363 -0.3957
48596W        W51816   0.553  11.994   8.121 -0.0975  0.5754 -0.0991
48597W        W51817  12.213   1.126  16.924  0.1439  0.1968  0.3461
48598W        W51818  10.443   6.303  11.161 -0.0183 -0.0449  0.3825
48599W        W51819   0.590  17.062   9.604 -0.0346  0.2503  0.1411
48600W        W51820  16.185   1.683  16.554 -0.0444 -0.0039  0.1817
48601W        W51821   9.520   1.262   1.894 -0.0098 -0.0008  0.0616
48602W        W51822  13.721  17.014  14.228 -0.1402  0.3633 -0.2379
48603W        W51823  12.759  16.901  13.520 -0.1843 -0.0364  0.0364
48604W        W51824  17.984   2.214  16.902 -0.4546  0.2177 -0.0496
48605W        W51825   0.435   0.624   9.603  0.0360  0.1888  0.1054
48606W        W51826   6.829   0.906  14.500  0.1321  0.0369 -0.3546
48607W        W51827   0.870  11.074   9.397 -0.1851 -0.0326  0.0464
48608W        W51828   0.395  17.586  13.114 -0.1798 -0.3046  0.0245
48609W        W51829  14.853  16.768   7.641  0.1332 -0.0601  0.1814
48610W        W51830   1.262   2.134   1.439 -0.1193 -0.3632 -0.2872
48611W        W51831   8.153  12.427   4.553  0.0489 -0.2024 -0.1704
48612W        W51832  14.209   1.203  12.455  0.1288 -0.0103 -0.0987
48613W        W51833  11.012  17.835   8.167 -0.1187  0.1375 -0.0045
48614W        W51834  11.457   8.453  10.341  0.2214  0.2101  0.0688
48615W        W51835   2.126  13.815  14.408  0.1903 -0.0154  0.1462
48616W        W51836  17.464  15.670  12.157 -0.2251 -0.3060  0.2236
48617W        W51837  11.109  11.218   7.953  0.0881 -0.3452 -0.5067
48618W        W51838  13.634   1.734   8.301 -0.0340  0.0753  0.0419
48619W        W51839  11.477  17.862   2.783 -0.2879  0.0818 -0.1168
48620W        W51840  12.425   1.632   6.418  0.1198  0.1564 -0.0843
48621W        W51841   2.753   4.746   9.551  0.3066  0.1578 -0.0117
48622W        W51842   1.135   0.621   2.812 -0.1091 -0.0569 -0.0501
48623W        W51843  17.217   0.847  12.298  0.0051 -0.3580  0.1282
48624W        W51844  11.514  17.668   8.747  0.4271 -0.0343  0.1609
48625W        W51845   1.393  17.354  16.388 -0.0135  0.3415 -0.1869
48626W        W51846  16.132   1.159  15.116 -0.0749  0.4569 -0.4306
48627W        W51847  13.558  14.022   9.222  0.4404  0.2583  0.1477
48628W        W51848  15.310   3.233   1.995  0.0573  0.0416 -0.0402
48629W        W51849   7.480   2.555  16.788 -0.0164  0.1150 -0.0732
48630W        W51850   8.719  16.974  13.569  0.1610  0.2740 -0.1271
48631W        W51851  12.912  13.817  11.938  0.1074 -0.2955  0.0203
48632W        W51852  11.489   3.819  10.904  0.2810 -0.1423 -0.0655
48633W        W51853   5.487  16.382   6.242 -0.2120 -0.0150  0.0510
48634W        W51854  15.046  13.234  10.671  0.0100  0.0310 -0.0771
48635W        W51855   0.685  13.197  10.888 -0.0086  0.4498  0.0394
48636W        W51856  17.542  17.804   2.630  0.2433  0.0157  0.2048
48637W        W51857  17.599   6.919  13.934 -0.1073  0.3592  0.1192
48638W        W51858  13.184  13.782  11.240 -0.1724 -0.2666  0.2920
48639W        W51859   8.491  13.499  12.542  0.1943  0.1266  0.0018
48640W        W51860   1.152  18.029   0.633  0.0456  0.0126  0.0640
48641W        W51861  14.117  14.187  11.900 -0.1604 -0.1638 -0.1952
48642W        W51862   0.719   1.249   7.847  0.4325 -0.1670  0.0111
48643W        W51863  15.120   6.620  10.686 -0.0080 -0.0684  0.0538
48644W        W51864   2.355  16.842  13.952 -0.0349 -0.0367 -0.1135
48645W        W51865  16.787   2.861  12.212 -0.0176  0.0950  0.2124
48646W        W51866  17.922  17.740   8.047 -0.2476  0.3031  0.4482
48647W        W51867   0.261   0.080  14.739 -0.3451  0.1712 -0.1816
48648W        W51868   0.997  16.916  15.007  0.0986 -0.1068  0.0458
48649W        W51869   4.635  12.205  14.803 -0.1568  0.0850 -0.1422
48650W        W51870  15.231  13.630  12.054  0.2443  0.1303 -0.2563
48651W        W51871  14.768  15.057  15.908  0.0853 -0.2454 -0.3368
48652W        W51872   8.781  15.020   7.767 -0.0028 -0.0637 -0.0969
48653W        W51873  14.501  14.154  12.618 -0.0729 -0.1612 -0.2521
48654W        W51874  18.070   0.907  10.940 -0.1528  0.1445 -0.4130
48655W        W51875  16.025   0.250   8.664 -0.0956 -0.0928  0.0471
48656W        W51876   6.961  16.576  13.050 -0.1094 -0.2387 -0.0087
48657W        W51877   3.277  16.286  15.893 -0.0943 -0.2445  0.4712
48658W        W51878   8.070  15.810   6.085 -0.2871 -0.3008  0.1374
48659W        W51879  10.521  16.429   2.495  0.4054  0.0615 -0.0058
48660W        W51880   4.262   2.894  16.990 -0.1501 -0.0678  0.1583
48661W        W51881  14.504  15.194  13.720 -0.1954  0.1788  0.0037
48662W        W51882   2.073  13.810  13.762  0.0701 -0.2354  0.1073
48663W        W51883  11.369  17.037  12.373 -0.2748 -0.2049 -0.0326
48664W        W51884   5.709   2.647  13.146 -0.1410 -0.2108 -0.2332
48665W        W51885   9.763  14.790   5.978  0.0271 -0.0216 -0.2462
48666W        W51886   7.612  15.136  15.689  0.1322  0.3581  0.2583
48667W        W51887   1.604  14.265   6.430  0.0974 -0.2391  0.1029
48668W        W51888  15.218   4.414  10.856  0.0665 -0.1135 -0.1194
48669W        W51889  15.978   3.538  15.219  0.2104 -0.0435 -0.0714
48670W        W51890  11.253   5.830  13.545 -0.0560  0.2251  0.1640
48671W        W51891   3.014  14.760   0.741 -0.0356  0.0314  0.1916
48672W        W51892  14.412  12.810   8.632 -0.0754  0.0931 -0.2089
48673W        W51893  17.776  18.134   4.819 -0.0369  0.0616 -0.1533
48674W        W51894  16.079   8.029  10.610  0.3632 -0.1420  0.2430
48675W        W51895   5.222   6.640  10.977  0.0901  0.1481  0.0991
48676W        W51896  14.607   1.220   8.040 -0.0664 -0.0151  0.1091
48677W        W51897   6.237   8.762  17.260 -0.0988 -0.0857  0.0166
48678W        W51898  16.696  12.332   9.521  0.1358 -0.1739  0.0994
48679W        W51899  18.224   0.471   9.564  0.4860 -0.1542  0.0139
48680W        W51900  10.304  16.623  10.616 -0.0773 -0.1229  0.1052
48681W        W51901   1.338  13.237  13.223  0.1012  0.0183  0.0034
48682W        W51902  16.353   0.070  17.142 -0.0073 -0.0917  0.1843
48683W        W51903   0.192   2.935  16.669  0.1572  0.0636 -0.1270
48684W        W51904   0.843  15.916  14.679  0.1069  0.0888 -0.3406
48685W        W51905  14.719   0.370   4.158 -0.0937 -0.1139  0.0743
48686W        W51906  10.237  10.564  15.222  0.0543  0.0744 -0.2494
48687W        W51907   0.549   0.292  13.476  0.2909  0.1416  0.1316
48688W        W51908   9.408   0.541   8.442  0.0628  0.3049  0.1873
48689W        W51909  16.573  15.515  11.198  0.1756 -0.0715 -0.1130
48690W        W51910  13.411  13.845  11.813  0.2101 -0.0451  0.1597
48691W        W51911  13.781   0.947  12.712 -0.1915 -0.0131  0.0714
48692W        W51912  14.350  15.060  16.671  0.0430  0.3350 -0.0444
48693W        W51913   6.517   2.092  11.520 -0.1875  0.1359  0.2511
48694W        W51914   7.219  11.980  15.792 -0.6128 -0.1138  0.5804
48695W        W51915   2.460  11.250   6.353  0.0215 -0.2453 -0.1621
48696W        W51916  13.968  17.431   2.143 -0.0698 -0.1118 -0.1636
48697W        W51917  17.871  11.765  13.279 -0.2232 -0.1750  0.0457
48698W        W51918   4.056  15.267  16.605 -0.1041 -0.1130  0.0528
48699W        W51919  11.735  17.808  11.401  0.0862 -0.0998  0.1973
48700W        W51920  16.761   0.657   9.462 -0.0369 -0.1672 -0.1692
48701W        W51921  14.672  17.893  12.070 -0.0015 -0.2160 -0.1809
48702W        W51922  13.581   0.610  18.269 -0.2550 -0.2250 -0.1136
48703W        W51923   8.099   1.491   9.095  0.3234 -0.1543  0.3270
48704W        W51924   0.647  13.781   7.976  0.0855 -0.2049  0.0722
48705W        W51925  12.088   4.163  14.788  0.0644 -0.4855 -0.1327
48706W        W51926   2.462  14.894   1.910 -0.1023  0.0780  0.1723
48707W        W51927  17.429  16.054  10.619 -0.0632 -0.1920  0.1429
48708W        W51928  11.430  15.776  14.404 -0.1173 -0.0756  0.0648
48709W        W51929  14.490  12.074   7.898 -0.1593  0.1096 -0.2665
48710W        W51930   7.320  17.979  15.736  0.2121 -0.0759  0.0569
48711W        W51931   7.990  15.304  14.366 -0.0572  0.0057  0.0395
48712W        W51932  13.089  13.687  13.774  0.1967 -0.1371 -0.1030
48713W        W51933   0.726  10.444   6.911 -0.1945  0.2353 -0.1425
48714W        W51934  17.767  14.133  13.691 -0.0680 -0.0808 -0.1745
48715W        W51935   1.127   0.849  14.012  0.2714  0.0992 -0.3395
48716W        W51936  14.833  14.606   5.622 -0.1142 -0.1598 -0.1193
48717W        W51937   6.141   5.940   7.086  0.1365  0.0203 -0.4903
48718W        W51938  11.002   1.506   5.548  0.1825  0.0296 -0.1276
48719W        W51939  15.272   7.008  13.823  0.2858 -0.0727  0.2770
48720W        W51940  12.615   9.689   6.515 -0.1220  0.4137 -0.2138
48721W        W51941   0.599   0.757   6.418  0.2104 -0.2892  0.6067
48722W        W51942  13.687   0.083  10.192  0.1895  0.2877  0.0878
48723W        W51943  17.075   0.497   6.332 -0.1906 -0.1912  0.1385
48724W        W51944  14.022   0.547  13.571 -0.2211 -0.1210 -0.0268
48725W        W51945  15.482  18.264   9.272  0.0857 -0.1878 -0.0265
48726W        W51946  12.449  16.267  11.969  0.0138  0.0762 -0.1234
48727W        W51947  15.584  16.915  12.162  0.1825 -0.3544 -0.1993
48728W        W51948  12.600  15.118  11.690 -0.1913  0.0025  0.3090
48729W        W51949  10.251  13.741  13.089 -0.4424  0.1769 -0.1751
48730W        W51950  14.276  12.275  11.104 -0.3038 -0.2799  0.0694
48731W        W51951  18.054   0.089  11.038  0.2467  0.1399  0.1602
48732W        W51952   9.539  13.461  12.354 -0.1874  0.2404  0.2084
48733W        W51953  14.244  16.780   9.924  0.2487  0.1198  0.0369
48734W        W51954  11.754   0.392  10.383  0.1566  0.0095  0.2364
48735W        W51955  14.434  16.070  12.053  0.0322 -0.0965 -0.1678
48736W        W51956   7.912  16.488   9.835  0.1864  0.4167 -0.1848
48737W        W51957   1.191   1.421  17.152 -0.2055 -0.0482 -0.0319
48738W        W51958   8.365   1.832  12.715  0.1613  0.1911 -0.0531
48739W        W51959   0.966  11.381   2.719 -0.0580  0.1814 -0.0864
48740W        W51960  14.986  14.227  14.166  0.1548 -0.1103 -0.1920
48741W        W51961  18.222  16.497   0.872  0.0982 -0.0857 -0.0149
48742W        W51962  10.225  11.548  13.300  0.0192 -0.0325 -0.0881
48743W        W51963  14.201   0.787  10.315 -0.1745 -0.2522  0.2468
48744W        W51964  16.655   3.297  13.458  0.4147  0.0481 -0.0093
48745W        W51965   5.065   0.919  13.190 -0.0543  0.2036 -0.1988
48746W        W51966  14.975   2.335  10.527 -0.0518 -0.3633  0.1388
48747W        W51967  16.349   2.191  11.031 -0.0624  0.0753  0.2438
48748W        W51968  13.389   0.526  14.067 -0.0490 -0.0104  0.2023
48749W        W51969  16.716   1.388   8.441  0.0622 -0.1160  0.1464
48750W        W51970  17.013  14.613  15.543  0.0054  0.2124  0.0520
48751W        W51971  10.826  14.430   7.095 -0.2241 -0.0590 -0.1467
48752W        W51972   8.196  14.151  15.123  0.4511  0.1144 -0.2152
48753W        W51973   0.573  17.366  10.693  0.1933 -0.2548  0.3808
48754W        W51974  14.118  15.737  10.356  0.1168 -0.2620 -0.0375
48755W        W51975   3.221   3.443  16.058  0.2237 -0.0889  0.3249
48756W        W51976  16.790   2.621   1.921 -0.0643 -0.0962 -0.0031
48757W        W51977  15.087  15.185  13.343 -0.0981  0.0147  0.0000
48758W        W51978  13.351   7.164   8.628  0.0925 -0.2398 -0.0512
48759W        W51979   7.114  16.900  17.433 -0.1118  0.1087  0.1005
48760W        W51980  16.738  17.236  12.675  0.1916  0.0177  0.0437
48761W        W51981  15.060  13.212   2.114 -0.1463 -0.1291 -0.0326
48762W        W51982  17.945   3.062   1.657  0.2895 -0.1419 -0.1726
48763W        W51983  18.066   7.249   8.587 -0.1123 -0.0900 -0.0460
48764W        W51984  13.149  16.973  11.651 -0.0988 -0.1219 -0.2098
48765W        W51985  15.678   3.957   4.869 -0.0589  0.2573  0.3424
48766W        W51986   1.470  15.515   9.784  0.0503 -0.2020  0.1052
48767W        W51987   1.602   8.540   1.626 -0.0234 -0.0254  0.0202
48768W        W51988   9.770   0.815  13.096 -0.1296 -0.0456 -0.0593
48769W        W51989   9.156   2.155   5.851  0.1061 -0.0976  0.1871
48770W        W51990   0.039   6.073  15.533 -0.0762 -0.1054  0.2687
48771W        W51991  17.141  16.322  15.661 -0.2449  0.2433  0.0926
48772W        W51992  18.109   7.708   5.522 -0.1330 -0.4596 -0.1275
48773W        W51993  17.075  18.243   3.275 -0.0092  0.3392  0.3155
48774W        W51994  17.603   4.770   7.554 -0.0438 -0.4152 -0.1355
48775W        W51995   0.221  12.158   7.203 -0.1891  0.3043 -0.0075
48776W        W51996  16.679   5.485  10.267 -0.1090 -0.0603 -0.1419
48777W        W51997   0.007   2.237  12.918 -0.0634  0.0215 -0.2270
48778W        W51998   2.115  16.330  16.687  0.1360  0.0969 -0.1374
48779W        W51999   0.020  16.571  11.323  0.1169  0.0202  0.0879
48780W        W52000  13.786  15.197   8.798 -0.0555  0.0281  0.0364
48781W        W52001   3.519  16.699  12.720  0.0282 -0.2404  0.1057
48782W        W52002   0.986   4.775  12.383  0.0334 -0.0513  0.1351
48783W        W52003   7.731  16.374  13.004 -0.0263  0.1678 -0.3779
48784W        W52004  13.398  10.511  15.474 -0.1892  0.1772 -0.1211
48785W        W52005   9.006  16.881  17.786 -0.0474 -0.1254  0.1138
48786W        W52006   0.638  16.951  16.932  0.0219  0.0408  0.1536
48787W        W52007  14.405  11.296  12.420 -0.0876  0.0120 -0.2891
48788W        W52008  16.016  17.083  11.238 -0.2013  0.0272  0.1728
48789W        W52009  13.640  16.541  15.387 -0.2575 -0.1020 -0.2211
48790W        W52010  11.088  17.182  16.950  0.1916 -0.3865  0.2977
48791W        W52011   0.812  15.461   1.266 -0.1710 -0.1678 -0.1987
48792W        W52012   2.310  17.531  16.136 -0.1159  0.4266 -0.0583
48793W        W52013   7.493  15.810   9.845  0.0670 -0.1014  0.0456
48794W        W52014  14.654   0.077  11.912 -0.0267 -0.0882 -0.0773
48795W        W52015  17.262  14.446  13.958 -0.1952 -0.0485 -0.2162
48796W        W52016   9.299  16.051  14.551 -0.0814  0.0217  0.0167
48797W        W52017  17.997   2.948   5.551  0.0053 -0.2652 -0.0146
48798W        W52018  16.644  14.232   8.246 -0.0461 -0.0918 -0.0165
48799W        W52019  11.271   6.604  13.206 -0.1508 -0.2822  0.1543
48800W        W52020  14.694  12.697  13.923 -0.0206  0.3429  0.2755
48801W        W52021  16.747  15.234  11.656 -0.0082  0.0535 -0.2061
48802W        W52022  12.091  14.051  17.529 -0.1795  0.2750 -0.3379
48803W        W52023  15.199  15.017  11.876 -0.1789  0.0638  0.1791
48804W        W52024  10.964  18.209  14.960 -0.2549 -0.0337  0.1236
48805W        W52025  12.933   1.976  14.119  0.1719  0.1779 -0.0081
48806W        W52026   9.406  15.720  11.478  0.0554  0.0093  0.0761
48807W        W52027  14.323  18.074  11.207  0.0866 -0.0320 -0.1856
48808W        W52028  13.001   4.736   9.491 -0.1323 -0.1596 -0.0071
48809W        W52029  12.122  15.931  16.074 -0.0856 -0.1044 -0.1529
48810W        W52030  15.471  17.029  18.249  0.0281  0.0377  0.3628
48811W        W52031   2.751   2.826  16.539  0.1239 -0.2024  0.1248
48812W        W52032   3.988  12.097  16.883  0.0965  0.0198 -0.4150
48813W        W52033  14.485  16.253   8.449 -0.0131 -0.2135 -0.0082
48814W        W52034  17.485   9.312   6.566 -0.0086  0.0768 -0.3739
48815W        W52035  16.114   4.442   5.735  0.1253 -0.0455 -0.1827
48816W        W52036   0.065   7.812  14.403 -0.3045 -0.0426 -0.0389
48817W        W52037  10.798  17.719   0.931  0.0029  0.2511 -0.0681
48818W        W52038  18.151  17.294   0.324  0.0170 -0.0985  0.1240
48819W        W52039   9.676  16.823  14.981  0.3056 -0.1361  0.1228
48820W        W52040   1.060   0.578   0.658  0.0923  0.2370  0.2380
48821W        W52041  14.463   1.403   0.372  0.1228  0.2805 -0.1712
48822W        W52042   2.191  15.513   1.591 -0.1094 -0.0106 -0.1600
48823W        W52043  14.923   9.549   6.570  0.1570 -0.1419  0.0068
48824W        W52044   0.759   0.495  13.951  0.0526 -0.2893  0.0566
48825W        W52045  17.754   0.304  17.579 -0.0438 -0.4351 -0.0617
48826W        W52046   2.877   3.748  15.800 -0.1565  0.3063 -0.2881
48827W        W52047  15.888  13.509  13.226 -0.0001  0.0667 -0.0116
48828W        W52048  12.821   4.409   1.147 -0.0371 -0.1672 -0.2023
48829W        W52049  17.968  17.384   3.488 -0.0735  0.1445  0.3025
48830W        W52050  15.973  17.400  16.310 -0.1372 -0.0271  0.2858
48831W        W52051  17.925  17.830   5.239  0.1962 -0.0970 -0.1738
48832W        W52052  12.071  18.177  14.883  0.2939  0.0964  0.2187
48833W        W52053  17.185   1.771  16.110 -0.0053  0.0564 -0.0160
48834W        W52054  17.828  18.047  15.253  0.3367 -0.2120  0.1357
48835W        W52055  13.875   2.828  15.920 -0.0079  0.0043 -0.0737
48836W        W52056  11.923  12.071   1.788  0.0025 -0.0469  0.0614
48837W        W52057  18.054   3.095  15.815  0.0907 -0.0496 -0.0103
48838W        W52058  16.226  13.716  12.503 -0.2231  0.0804 -0.0999
48839W        W52059   2.538  17.400   0.685 -0.1512  0.1197 -0.1346
48840W        W52060  15.374  16.720   3.491 -0.2007  0.1110  0.3392
48841W        W52061   3.820   0.284   3.229  0.0463  0.0255  0.0834
48842W        W52062  14.266  14.767  14.181  0.3487  0.0857  0.1800
48843W        W52063  12.872  18.226   2.336  0.0942  0.3473  0.1282
48844W        W52064  17.056  16.147   0.184  0.2290  0.0899 -0.3250
48845W        W52065  16.903   1.482  15.324  0.0902 -0.1006 -0.1087
48846W        W52066   0.590   4.602  13.042 -0.2922  0.0612  0.1923
48847W        W52067   2.665  12.548  14.955 -0.1178  0.0812 -0.1434
48848W        W52068  12.504   2.914  17.632 -0.5013 -0.0433  0.1396
48849W        W52069   2.082   2.778  17.223 -0.1714  0.1180 -0.1228
48850W        W52070  14.256  14.817  13.240 -0.3673 -0.1235  0.0504
48851W        W52071  18.072   3.546  15.228 -0.1554 -0.1047  0.3160
48852W        W52072   7.362  16.477  17.369 -0.2836  0.0663 -0.1061
48853W        W52073   1.703   4.196  13.827  0.2456  0.2313 -0.3918
48854W        W52074  14.485  17.856  14.552  0.1557  0.2353 -0.3157
48855W        W52075   1.786  17.146  15.547  0.0760 -0.0298 -0.0250
48856W        W52076   2.885   0.818  13.483  0.1827 -0.0087  0.3577
48857W        W52077  12.386  17.661  12.098 -0.1303 -0.0684  0.2494
48858W        W52078  18.178   2.154  17.748 -0.4892 -0.0798  0.2559
48859W        W52079   4.031   5.827   9.397  0.0920  0.0506 -0.0421
48860W        W52080  10.867   9.516  15.940  0.2780 -0.0765  0.2399
48861W        W52081  17.421   4.711  14.955 -0.1426  0.1945 -0.0064
48862W        W52082  15.214  16.144  14.577  0.0763  0.0131  0.0810
48863W        W52083  15.542  13.075  17.552 -0.0160 -0.0346 -0.2006
48864W        W52084   0.811   7.188   0.328 -0.2584 -0.0649  0.2086
48865W        W52085   5.283  15.248   2.340  0.2519 -0.3320  0.2421
48866W        W52086  15.722   4.685  16.896  0.0681 -0.0322  0.0606
48867W        W52087   4.528   3.775  10.593 -0.2140  0.0537 -0.1410
48868W        W52088   1.509   0.209   0.701 -0.0511  0.1599 -0.2924
48869W        W52089   1.090   9.040   0.376  0.1224  0.0798 -0.3334
48870W        W52090   3.426   3.060  11.231 -0.3438  0.1465  0.0106
48871W        W52091  13.274   1.521   4.824 -0.0099 -0.0464 -0.1582
48872W        W52092  14.875  16.292   0.056 -0.0250  0.0908 -0.2897
48873W        W52093   9.703  16.105  16.040 -0.1077 -0.0133 -0.0589
48874W        W52094  14.071  17.342   4.708  0.2399 -0.0874  0.2562
48875W        W52095  10.829   0.746  12.323 -0.2116 -0.1207 -0.1040
48876W        W52096  18.071   4.257  16.377 -0.2048  0.1470  0.0205
48877W        W52097   9.796  17.474   0.224  0.0586  0.0632 -0.0228
48878W        W52098   1.783  14.387  15.315 -0.1129 -0.3270 -0.0572
48879W        W52099  13.092   1.123  15.697  0.3014 -0.2925  0.0086
48880W        W52100  15.062  15.506   5.232  0.1433  0.2661  0.2012
48881W        W52101  13.600  17.506  16.192 -0.1847 -0.1634 -0.1455
48882W        W52102  17.858  11.353  11.177 -0.1161 -0.3650 -0.1101
48883W        W52103  11.316  15.821  13.487 -0.1646  0.1901  0.0845
48884W        W52104   7.929   0.332  18.226 -0.1353  0.0947 -0.0300
48885W        W52105  14.404  14.821   2.034 -0.2674  0.3804 -0.1086
48886W        W52106  14.237   5.042  15.067  0.2470  0.1800 -0.0770
48887W        W52107  12.127  17.765   5.007  0.1618 -0.0329 -0.0196
48888W        W52108   9.258   0.840   9.505  0.1987 -0.0879 -0.3101
48889W        W52109   0.655   1.782   6.616 -0.0142  0.3988  0.0829
48890W        W52110   7.116  16.345  12.164  0.0546 -0.1715 -0.3481
48891W        W52111  16.795  15.923  13.577  0.0166 -0.1843  0.0601
48892W        W52112  17.371  11.677   4.526 -0.2799  0.0670 -0.1174
48893W        W52113  14.766   2.254  16.511 -0.1631  0.3235 -0.0743
48894W        W52114   9.386   0.441  13.962  0.0030  0.1930  0.1191
48895W        W52115   0.538  18.188  16.739 -0.2030  0.3936  0.2655
48896W        W52116  14.929   8.223   1.006  0.0258  0.0562  0.1840
48897W        W52117  18.233  16.333   1.722 -0.0356  0.0427  0.0768
48898W        W52118  15.729  12.588  14.248 -0.1443  0.4275 -0.0666
48899W        W52119  11.462   6.130  18.255 -0.2713 -0.2419 -0.2510
48900W        W52120  16.461   3.802  16.914  0.1314 -0.3105  0.0565
48901W        W52121   0.396  14.611  12.563  0.0362  0.1222 -0.2556
48902W        W52122  17.624  16.724  12.261  0.0831 -0.2401 -0.2540
48903W        W52123  12.677  15.555  14.224  0.1726 -0.0744 -0.0478
48904W        W52124  11.525   1.776   7.480 -0.0092 -0.5616 -0.4499
48905W        W52125  13.705   9.804  13.085 -0.1103  0.0598 -0.2970
48906W        W52126  10.927   7.911  10.876  0.0115 -0.1902  0.2799
48907W        W52127  15.966   3.728  16.598  0.1156  0.0599  0.2677
48908W        W52128   0.440  17.964  11.820 -0.1197  0.4678  0.2900
48909W        W52129  16.594  14.599  15.280 -0.1169  0.0875  0.0798
48910W        W52130  14.317  18.046   6.794  0.0040 -0.1566 -0.1518
48911W        W52131  15.709  16.142  14.818  0.1728  0.1759 -0.0941
48912W        W52132   2.098  17.784   0.188 -0.0099  0.1263  0.0376
48913W        W52133   0.542  14.600   2.448  0.0982 -0.0166  0.0847
48914W        W52134  17.560   3.269   8.014 -0.0937 -0.0948  0.0376
48915W        W52135  14.830  14.564  15.924  0.0376 -0.0112 -0.2480
48916W        W52136   9.468  14.453  10.838 -0.1864  0.0930  0.0645
48917W        W52137  14.532   1.796   1.054  0.0968 -0.2090 -0.0805
48918W        W52138  13.516  17.000  15.998 -0.1821  0.1570  0.1662
48919W        W52139  12.906  12.870  11.769  0.2908 -0.3452 -0.1539
48920W        W52140  16.666  15.703   5.777  0.2175  0.0921 -0.1937
48921W        W52141  12.925  17.800  12.737 -0.0364 -0.1424 -0.1220
48922W        W52142   0.710  16.542   8.892  0.1123  0.0178  0.0575
48923W        W52143   3.093   1.875   0.166  0.1349  0.2500 -0.1282
48924W        W52144   4.274   1.678  13.098 -0.0029  0.2183  0.2014
48925W        W52145  12.042  15.557  12.083  0.1741 -0.2479  0.1333
48926W        W52146   4.926  13.380   3.532  0.0513 -0.0444  0.0825
48927W        W52147   4.748   1.293  14.995 -0.1485 -0.0106 -0.1372
48928W        W52148  16.866   6.177  17.912  0.0634  0.0012  0.2403
48929W        W52149  18.031  16.622  17.731 -0.2772  0.3720 -0.2764
48930W        W52150  14.660   3.330  16.309  0.0034 -0.1052 -0.0152
48931W        W52151  16.493  17.942   0.830  0.3112 -0.2298  0.1033
48932W        W52152  11.570  16.000   4.074 -0.2947 -0.2460 -0.1430
48933W        W52153  17.838   3.571   1.458  0.1637  0.0273  0.0423
48934W        W52154  15.484   0.830   9.080  0.1340 -0.1121 -0.3273
48935W        W52155  15.840   3.092  16.745 -0.2604  0.1011 -0.2915
48936W        W52156  12.077   0.662  13.429  0.1254  0.1234  0.0586
48937W        W52157  18.159   7.277  15.558  0.4377 -0.2997 -0.0133
48938W        W52158  12.967  11.556   5.258 -0.0594 -0.2423  0.2022
48939W        W52159  14.970   0.888   6.239  0.1237 -0.0982  0.1736
48940W        W52160   2.100  11.531  12.793  0.0345  0.0005  0.5994
48941W        W52161  17.912  14.985   7.091 -0.0530 -0.4003 -0.2597
48942W        W52162  13.040  13.078   5.032 -0.3946 -0.1084 -0.0041
48943W        W52163  17.807   4.077  17.306 -0.2656 -0.3088  0.0464
48944W        W52164  18.034  13.573   2.216  0.2272 -0.0480 -0.0934
48945W        W52165  15.236   2.032  16.415  0.1335  0.2335 -0.1737
48946W        W52166  14.711   1.888   1.812  0.0013 -0.0427  0.0478
48947W        W52167  17.146  14.608  10.029  0.0865 -0.1190  0.1359
48948W        W52168  14.721  16.625  13.867  0.0721  0.3234 -0.0207
48949W        W52169  16.266  17.681   2.314 -0.0670 -0.0183 -0.1483
48950W        W52170   1.867   5.466  14.697  0.0522 -0.2466 -0.3406
48951W        W52171   0.484   1.152  17.301  0.0376 -0.1537  0.0872
48952W        W52172  15.158  17.539  13.932 -0.1380 -0.0788  0.1074
48953W        W52173  14.622  12.640  17.909 -0.0479 -0.0186 -0.1876
48954W        W52174   3.784  16.523  11.383 -0.1692  0.0207  0.1333
48955W        W52175   2.723   2.858   0.824  0.2346  0.3432 -0.1125
48956W        W52176  15.474   1.701   0.616 -0.2922 -0.0575  0.0187
48957W        W52177  13.650  17.049  15.395  0.2068  0.1891 -0.3922
48958W        W52178   1.896   9.087  13.305 -0.0941  0.0772 -0.0107
48959W        W52179  16.848   3.611   1.156  0.0629 -0.2695 -0.0408
48960W        W52180  13.269   1.006  16.179  0.1587  0.1000 -0.3192
48961W        W52181  14.749   5.275   1.803  0.1586  0.1233 -0.0013
48962W        W52182  15.812  16.226  15.781  0.0471 -0.1747 -0.2087
48963W        W52183  15.140  16.481   7.289 -0.1381  0.1142  0.1418
48964W        W52184  11.756  15.715  11.648  0.0893  0.0308 -0.3344
48965W        W52185  17.443  14.794  16.724 -0.0087 -0.2424 -0.1428
48966W        W52186  17.442  17.807  12.930 -0.0754 -0.1165  0.1400
48967W        W52187  13.488  12.505   0.583 -0.1495 -0.0431 -0.0912
48968W        W52188  14.268  16.982   4.371 -0.2788  0.2463 -0.1094
48969W        W52189  15.978  15.877   0.539 -0.2930 -0.1065 -0.1755
48970W        W52190  17.999  10.577   8.607 -0.1690  0.0639  0.0229
48971W        W52191  13.710  16.762  18.045  0.2425 -0.0602 -0.2210
48972W        W52192   4.723  13.814   5.094  0.0253 -0.1437  0.4394
48973W        W52193  12.200  13.214   4.505  0.3521 -0.0274  0.0468
48974W        W52194   9.709   4.239  14.157  0.1797 -0.0663  0.0731
48975W        W52195   1.163  13.147   7.410 -0.1322  0.1763  0.1076
48976W        W52196   0.512   1.133  15.613 -0.0007  0.1116 -0.0367
48977W        W52197  16.017   4.890   1.773  0.1631 -0.0161 -0.3376
48978W        W52198   0.674  16.441   1.613  0.0996 -0.0254 -0.0079
48979W        W52199   9.152   1.785   3.872  0.0202 -0.3328  0.0146
48980W        W52200  14.885  15.615  15.154 -0.1530 -0.0366  0.3446
48981W        W52201   2.314  15.484  12.932 -0.3049 -0.0287  0.3126
48982W        W52202   3.403   8.298  13.002  0.1770  0.2951 -0.2310
48983W        W52203   3.254   1.087   3.016  0.0108  0.0832  0.2037
48984W        W52204  14.193  12.362   1.932 -0.2060  0.4324 -0.1405
48985W        W52205  17.219   2.416  13.642  0.5116 -0.1688  0.0919
48986W        W52206  11.131   7.593   1.247 -0.0505 -0.1122  0.2064
48987W        W52207  11.524  13.371  17.048  0.0142 -0.0889  0.0903
48988W        W52208   1.949  17.579  11.986  0.3775  0.1446 -0.0604
48989W        W52209   9.985   0.299  12.997  0.1220  0.3320 -0.0346
48990W        W52210   7.140  10.441   1.713  0.0872 -0.1306 -0.0932
48991W        W52211  15.304   8.474   1.495  0.1071  0.0808 -0.3579
48992W        W52212  11.203  16.586  17.904  0.2419  0.0353 -0.2515
48993W        W52213  13.170  13.779  10.457 -0.4545 -0.0401  0.1796
48994W        W52214  14.774  12.184  16.601  0.0474  0.1755  0.0805
48995W        W52215  10.487  15.369   6.286  0.0516  0.0803  0.0444
48996W        W52216  12.817   6.037   0.144  0.2350 -0.1024  0.3393
48997W        W52217   0.779  16.168  15.754  0.0178 -0.0266 -0.0134
48998W        W52218  12.189   4.599   0.146 -0.1135 -0.0736  0.1445
48999W        W52219   3.310   1.284  14.131 -0.0588 -0.0994  0.3930
49000W        W52220  16.385  15.289   4.027 -0.0702 -0.0540 -0.2864
49001W        W52221  14.915  17.789  13.002 -0.2268  0.3773 -0.1447
49002W        W52222  15.817  14.015  12.674  0.0019  0.2028 -0.0804
49003W        W52223  15.267  14.769  14.188 -0.2466  0.1494 -0.1632
49004W        W52224  17.447   2.002   2.856 -0.0058 -0.0368  0.0582
49005W        W52225   9.948  16.456  17.730  0.1062 -0.0254  0.0355
49006W        W52226  12.736  13.666  18.187 -0.0991  0.0157  0.1806
49007W        W52227  10.514  11.961  15.426 -0.3022  0.1830  0.1769
49008W        W52228   0.864   2.292   8.422 -0.0138 -0.3967  0.1545
49009W        W52229  12.784  18.212  17.557  0.0927  0.0142  0.0516
49010W        W52230   4.993   0.036  16.854 -0.1791  0.2388 -0.0728
49011W        W52231  17.118  14.100  15.634  0.2027  0.0370  0.1456
49012W        W52232  13.240  17.145  15.076  0.0826 -0.1189  0.3169
49013W        W52233  15.361   1.553   6.805 -0.0036  0.0579  0.0433
49014W        W52234   1.594  15.048   0.799  0.1598  0.0120  0.0697
49015W        W52235   1.311   0.746  10.365 -0.0330 -0.0690  0.0791
49016W        W52236  14.534   1.388  16.758  0.2048  0.2584 -0.4121
49017W        W52237  15.494   0.160   3.358 -0.3208  0.1118 -0.1268
49018W        W52238  14.248   0.083  15.353 -0.2366 -0.0024 -0.0621
49019W        W52239  18.253  10.709   0.300  0.2593 -0.3060  0.1831
49020W        W52240  16.761  14.301   3.084  0.0868 -0.0057 -0.1688
49021W        W52241  11.471   5.232  14.543 -0.3969  0.0107 -0.1760
49022W        W52242   1.858   2.264   0.570 -0.0659 -0.0790 -0.1339
49023W        W52243   1.010   7.298  16.516  0.1654  0.0502  0.2219
49024W        W52244   2.013   1.489  10.471  0.0404 -0.2776  0.0463
49025W        W52245  13.973  13.722   3.838 -0.0184  0.1750 -0.2269
49026W        W52246   5.417  17.431  17.631  0.0354 -0.3602  0.0596
49027W        W52247   1.997  12.664  13.819  0.2775 -0.2146 -0.0186
49028W        W52248   0.737  13.917  13.553 -0.0728  0.1893  0.0386
49029W        W52249   5.485   8.503  13.892 -0.1715 -0.1393  0.2178
49030W        W52250  18.015  14.068   0.673  0.0020 -0.0621  0.5196
49031W        W52251  12.656   6.447   0.560 -0.1908  0.1082  0.1529
49032W        W52252  16.260  11.726  13.137  0.2252  0.0034 -0.0926
49033W        W52253  17.219   2.649  15.877  0.0432  0.0420 -0.0839
49034W        W52254  15.755   2.287   0.611  0.2835  0.0185 -0.0262
49035W        W52255  16.413  15.869  17.851  0.1423 -0.2805 -0.2178
49036W        W52256   2.355   3.031  13.753  0.3609 -0.1769  0.0229
49037W        W52257  16.759  13.912   3.819  0.2088 -0.2216  0.0270
49038W        W52258  11.117   6.124   4.810  0.0447  0.1251 -0.1225
49039W        W52259  16.209   2.949  17.857  0.0646 -0.3650  0.2328
49040W        W52260  14.621  17.706   5.931  0.2005 -0.0008  0.1240
49041W        W52261  14.456   8.229   6.710  0.0958  0.0127 -0.0402
49042W        W52262   1.350  14.539   4.758  0.2395 -0.1419  0.0817
49043W        W52263   0.002  16.084  10.136  0.1214  0.0205 -0.0297
49044W        W52264  16.292  15.521  12.632 -0.0529  0.0369 -0.2799
49045W        W52265   3.506   2.829  17.713 -0.2559 -0.1315 -0.0900
49046W        W52266   0.783   5.180  14.854  0.1600 -0.2383  0.1536
49047W        W52267   2.716  18.215   4.160  0.0848  0.0216  0.0865
49048W        W52268   2.195   3.095   6.300  0.1018  0.0413 -0.2533
49049W        W52269  17.301  15.737   2.375 -0.0604  0.0104 -0.0929
49050W        W52270  17.490  17.624   2.162 -0.0003 -0.0289  0.3378
49051W        W52271  14.743   3.199  12.515  0.1124  0.1066 -0.0393
49052W        W52272  15.221  14.831  15.621  0.0937  0.0868 -0.3307
49053W        W52273  18.113  13.528  15.033  0.0393 -0.2733  0.1099
49054W        W52274  14.022   2.045  15.730  0.0260 -0.0095 -0.1529
49055W        W52275  17.418  18.113  14.969 -0.0458 -0.2281  0.2603
49056W        W52276   5.070   1.417   4.480 -0.1052 -0.0701  0.0445
49057W        W52277  17.004   6.851   3.226  0.0553  0.0570 -0.1553
49058W        W52278   1.430   5.619  15.759 -0.0075 -0.2414  0.1190
49059W        W52279   1.856  14.735  12.343  0.1249 -0.1950 -0.0838
49060W        W52280  12.477   0.813  14.525 -0.1394 -0.0667 -0.1062
49061W        W52281   0.629   3.921  17.020 -0.1602 -0.1492  0.0816
49062W        W52282   2.005   0.324  12.638 -0.0439 -0.1290 -0.1111
49063W        W52283   7.450   1.441  14.776  0.1501 -0.0689  0.2296
49064W        W52284   1.814  16.524   2.584 -0.2763 -0.1295  0.2891
49065W        W52285  12.360   4.121  16.238  0.1512  0.2681 -0.0067
49066W        W52286  15.600  13.543  16.950 -0.0301  0.2784 -0.1141
49067W        W52287  16.767   9.440   2.287 -0.1128  0.2711  0.1126
49068W        W52288   1.561  13.581   0.924  0.1088  0.2847 -0.0668
49069W        W52289  12.186  11.205   0.842 -0.0932 -0.3099 -0.0323
49070W        W52290   0.375  13.017   4.677  0.0149 -0.2798  0.1997
49071W        W52291   9.897  11.153  13.146  0.1136 -0.2385 -0.1575
49072W        W52292   6.045  14.570  16.287  0.0080  0.1826 -0.1822
49073W        W52293  12.910   3.968  14.953 -0.0932  0.1429 -0.1884
49074W        W52294  17.802   3.928  15.006  0.0743  0.0821 -0.0195
49075W        W52295  14.423   3.367   1.229 -0.0194  0.1559  0.0604
49076W        W52296   1.320  15.480  12.463 -0.0019 -0.2366  0.0804
49077W        W52297   5.469  18.142  12.925 -0.1745 -0.0676 -0.1955
49078W        W52298  12.186  16.640   1.039 -0.0030 -0.1186  0.0277
49079W        W52299   0.710   1.466  16.911  0.3103 -0.0738  0.0167
49080W        W52300  11.877  12.758  16.962 -0.1295  0.0541  0.1401
49081W        W52301  16.209   3.317  11.964  0.0458 -0.0471  0.1566
49082W        W52302   7.259   3.619  14.790  0.0331  0.0359 -0.2226
49083W        W52303  11.363   1.209  16.694  0.2046  0.0230 -0.1797
49084W        W52304  16.178   0.162  14.807 -0.2263 -0.2604 -0.1432
49085W        W52305  12.584   5.022   2.360 -0.2234 -0.4767 -0.0116
49086W        W52306  11.291  15.499  17.893 -0.2914  0.1480 -0.0500
49087W        W52307   3.442  16.337  15.430 -0.0374  0.0732 -0.2382
49088W        W52308  12.723  12.869  17.688 -0.0095  0.1339 -0.1959
49089W        W52309   0.552   9.835  10.696  0.2263  0.0853  0.1497
49090W        W52310  12.461   0.996  15.168 -0.1553 -0.1695  0.0439
49091W        W52311  17.814   9.935  16.043  0.0211 -0.0166 -0.1793
49092W        W52312  16.483  15.049  12.424 -0.2143 -0.1215  0.3474
49093W        W52313  14.432  11.530  13.481  0.0059  0.0283 -0.3703
49094W        W52314  15.429  14.631   6.799 -0.1521  0.0381  0.1388
49095W        W52315  10.607  16.120  13.380 -0.0555 -0.5117  0.2542
49096W        W52316   1.283   6.269   4.488  0.0180  0.0843  0.1244
49097W        W52317   5.030   2.312  17.230 -0.3136  0.0508  0.1386
49098W        W52318  14.489  12.674  15.477 -0.0984  0.2363  0.0319
49099W        W52319  15.879  17.694   4.200  0.1260 -0.0661  0.0781
49100W        W52320   2.353   1.948  13.063  0.2061 -0.2375  0.1645
49101W        W52321   8.311  12.043   7.487  0.0660  0.0055  0.0402
49102W        W52322   1.937   1.678   7.984 -0.3519  0.0845 -0.0325
49103W        W52323  15.090   9.829  13.312  0.1239  0.1667 -0.2864
49104W        W52324  14.612  18.073   1.078 -0.0304 -0.1760 -0.0133
49105W        W52325  15.780  10.613  16.501 -0.1190  0.2168 -0.0317
49106W        W52326   8.630  16.413   9.355 -0.1162  0.1375  0.0011
49107W        W52327  17.944  17.907  12.947 -0.3107  0.0689 -0.1178
49108W        W52328  14.775   5.839   1.072  0.1678  0.1393  0.0166
49109W        W52329  14.807   6.711  14.950  0.1294  0.1641  0.0356
49110W        W52330   0.793  14.787  11.576 -0.1214 -0.0961  0.2162
49111W        W52331  15.781   1.149  13.743  0.4497 -0.0426 -0.2734
49112W        W52332   3.380  15.746  10.276 -0.1278  0.0687 -0.1537
49113W        W52333   9.460  17.924  11.843  0.2963  0.1873 -0.0130
49114W        W52334  16.315   0.436  12.650 -0.5405  0.0330 -0.1682
49115W        W52335   0.558  18.000   1.824 -0.0854  0.2069  0.2707
49116W        W52336  13.820  13.445  12.703  0.0704  0.2130  0.1763
49117W        W52337  16.604   0.178  16.341 -0.2760  0.2422 -0.1101
49118W        W52338  17.322  18.145   5.757 -0.3036  0.0688 -0.1208
49119W        W52339   0.738   6.595   5.514  0.0374 -0.0574  0.0407
49120W        W52340   1.535  17.659  16.821  0.1721 -0.0299 -0.3379
49121W        W52341  17.794   1.894   4.022 -0.2295  0.3058  0.0076
49122W        W52342  14.084  12.675  11.936  0.0575 -0.2177  0.0326
49123W        W52343  15.910   1.693  17.228  0.0940 -0.0397 -0.0085
49124W        W52344  14.900  11.047  14.024  0.0210 -0.0109 -0.0289
49125W        W52345  11.429  17.614  16.765  0.0505 -0.0969 -0.0053
49126W        W52346  16.589  17.061   7.754  0.1587 -0.0639  0.0855
49127W        W52347   4.872   6.105   0.604 -0.0381  0.3054 -0.2854
49128W        W52348  12.858  17.359   7.644  0.1264  0.2338  0.1749
49129W        W52349   1.609   1.012  17.325  0.0713  0.1298  0.3258
49130W        W52350  16.950   1.280  17.762  0.0484  0.2548 -0.1245
49131W        W52351  13.106  16.898   9.068  0.0045  0.3688 -0.3139
49132W        W52352   4.325   1.455  11.783  0.4101 -0.0513 -0.2025
49133W        W52353  10.402   0.871   9.417 -0.1573  0.3082 -0.0935
49134W        W52354   1.316  15.410  16.746 -0.0887  0.1357 -0.0894
49135W        W52355  11.894  13.019   1.127 -0.2597  0.1514  0.1184
49136W        W52356   0.245   0.178  11.915  0.2201  0.1443 -0.0428
49137W        W52357  14.409   3.002  15.992 -0.2080 -0.1157 -0.3528
49138W        W52358  15.252  17.357  17.799  0.0746 -0.2247 -0.1136
49139W        W52359  13.959  17.562  15.190  0.3426 -0.2780 -0.4029
49140W        W52360  17.065  18.032  13.383  0.0513  0.4654 -0.0259
49141W        W52361   6.549   1.461  11.591 -0.0994  0.1607 -0.1480
49142W        W52362  14.549  18.002  17.729  0.1493 -0.0879  0.4112
49143W        W52363  13.721   1.673  15.353 -0.2500 -0.0596 -0.0036
49144W        W52364  12.730   1.576   9.421 -0.2457 -0.1460 -0.0512
49145W        W52365   0.047   5.134   2.276  0.2769 -0.2089 -0.2316
49146W        W52366   8.761   3.785  17.498  0.2714 -0.0633 -0.0419
49147W        W52367  16.237  15.050  11.907  0.0402  0.1667 -0.2425
49148W        W52368  10.980  15.670  12.044 -0.0953  0.3720 -0.1317
49149W        W52369  14.562   0.334  16.278  0.0212  0.2160 -0.0984
49150W        W52370   2.859   3.225  11.658  0.0301  0.0350  0.1824
49151W        W52371  11.043   5.568  17.964  0.0242 -0.0992 -0.1055
49152W        W52372   0.484  14.053  12.745 -0.0832  0.1221  0.0447
49153W        W52373  15.315  15.719  17.601  0.0651 -0.0932 -0.0323
49154W        W52374  15.822   1.367  14.637 -0.2617  0.0957 -0.2139
49155W        W52375  13.027  12.762   1.226  0.4291 -0.2621  0.0736
49156W        W52376   2.491   1.968  10.872 -0.1703 -0.1019 -0.1439
49157W        W52377   6.651  14.808   1.240  0.0648 -0.1072  0.0081
49158W        W52378  15.529   5.993  15.021 -0.0417 -0.1358 -0.4360
49159W        W52379  12.783   2.865  15.173  0.0989 -0.1123 -0.0832
49160W        W52380  15.540   1.887  16.838 -0.2882  0.0112  0.0571
49161W        W52381   0.706  13.699  11.230 -0.0111  0.2372 -0.2463
49162W        W52382   7.597  11.065  17.739  0.0087 -0.0919 -0.1223
49163W        W52383  10.371   0.182   0.551  0.1822 -0.2298 -0.0366
49164W        W52384  10.036  17.933  10.505 -0.3472 -0.3426  0.0492
49165W        W52385  14.617  16.063   2.596  0.1760  0.0043  0.1356
49166W        W52386   7.274  15.681  18.052  0.4347  0.0458  0.0096
49167W        W52387   1.545  17.870   1.394 -0.1216  0.0832  0.0646
49168W        W52388  12.676   9.958  14.744 -0.2421 -0.0700 -0.0911
49169W        W52389  14.747  17.831  14.034 -0.0888  0.3368 -0.1161
49170W        W52390  12.177   3.499  18.264  0.1381  0.1005  0.0498
49171W        W52391  14.667  16.329  16.139  0.1602 -0.1314  0.1072
49172W        W52392  15.877  16.282   0.881 -0.3349 -0.2819 -0.1097
49173W        W52393  17.804  17.291   7.629 -0.0019  0.1384 -0.3013
49174W        W52394  16.103  16.468  11.417  0.0939 -0.2056  0.2567
49175W        W52395   0.086  16.300  11.823  0.0274  0.1009 -0.0605
49176W        W52396  15.258   1.123   1.721  0.1148  0.0254 -0.0451
49177W        W52397   3.684  14.604  16.074  0.4461 -0.0302 -0.2722
49178W        W52398  17.304  15.866  13.407 -0.0701 -0.1114  0.0759
49179W        W52399  13.196   2.110  17.602 -0.0347 -0.1093 -0.1014
49180W        W52400  15.287  11.696  12.463 -0.1401 -0.0536 -0.0037
49181W        W52401  16.229  14.877  16.414  0.1102  0.0562  0.1737
49182W        W52402  17.959  15.727  17.656 -0.1426 -0.1249  0.0393
49183W        W52403   6.603   1.244  16.661 -0.0759 -0.3192  0.3349
49184W        W52404   6.897  17.529   0.154  0.1225  0.3256 -0.1843
49185W        W52405  17.676  17.801  15.680  0.2127  0.1124  0.1629
49186W        W52406  10.775   0.218   2.992 -0.1684  0.1946  0.2814
49187W        W52407   6.372  11.256  12.536 -0.1527 -0.0504  0.0233
49188W        W52408   2.337  18.258   1.981 -0.0462 -0.0659 -0.0911
49189W        W52409  10.406   2.105   5.163  0.1871 -0.0700 -0.0056
49190W        W52410  16.473  17.080   3.579 -0.1086 -0.1863  0.2550
49191W        W52411  17.641   6.658  15.564  0.1453 -0.0714 -0.1690
49192W        W52412  15.236   3.283  17.731 -0.1909  0.1965 -0.1020
49193W        W52413  13.391  15.412   3.741 -0.1879  0.1349  0.1781
49194W        W52414  17.588   3.913   1.690 -0.2930 -0.1967 -0.1140
49195W        W52415   0.752   0.784  15.286  0.4710 -0.1251 -0.0562
49196W        W52416  16.549   3.955  13.589  0.0539  0.0459 -0.0316
49197W        W52417  17.358  17.828   7.350 -0.2028 -0.0677  0.2756
49198W        W52418   0.156  17.230   2.790  0.0548 -0.1700 -0.1506
49199W        W52419   2.422   7.751   3.133 -0.0130  0.0861 -0.1081
49200W        W52420  13.760   0.082   3.271  0.1941 -0.2183  0.1239
49201W        W52421   0.814   0.888  16.976  0.1538 -0.0179 -0.1349
49202W        W52422   0.928   1.836  10.936 -0.1209 -0.1423  0.1583
49203W        W52423   5.907   0.000   8.298  0.0304  0.5858  0.0200
49204W        W52424  13.909  18.217   8.616 -0.1186  0.0817  0.0790
  18.27055  18.27055  18.27055
