t=50000.0 ps
400
    1W        W    1   1.253   0.419   3.498 -0.2576 -0.2173  0.0190
    2W        W    2   2.338   1.745   2.963 -0.2619  0.2243 -0.0028
    3W        W    3   1.725   3.625   1.044 -0.2667  0.1071  0.2492
    4W        W    4   0.098   1.278   0.671  0.0524  0.5035  0.1996
    5W        W    5   1.850   3.306   2.306 -0.0610  0.0562 -0.2630
    6W        W    6   1.106   3.342   1.052 -0.0265  0.3318  0.0369
    7W        W    7   3.559   2.345   0.433  0.0090  0.1854  0.0034
    8W        W    8   2.726   2.004   1.420 -0.3268  0.3275  0.0005
    9W        W    9   0.666   0.629   3.048 -0.0487  0.0755  0.1235
   10W        W   10   2.892   0.257   3.039  0.0708 -0.0527  0.0963
   11W        W   11   2.361   1.033   1.520  0.3709 -0.2390 -0.1623
   12W        W   12   3.550   1.201   2.447 -0.1305  0.0973 -0.1608
   13W        W   13   1.464   2.860   2.365  0.0337 -0.1129  0.1271
   14W        W   14   0.576   3.057   2.450 -0.2593 -0.0085  0.3231
   15W        W   15   3.567   3.554   2.370  0.1765  0.1210  0.0602
   16W        W   16   0.418   2.433   1.498  0.0870 -0.3903 -0.2308
   17W        W   17   1.910   2.780   0.774 -0.1303 -0.2326 -0.0086
   18W        W   18   1.252   0.480   2.987 -0.1380 -0.2274  0.3926
   19W        W   19   2.429   1.088   3.299 -0.3578  0.1445  0.2520
   20W        W   20   1.801   3.107   1.138  0.1341 -0.1678 -0.0964
   21W        W   21   3.278   0.193   2.230  0.3796  0.1801 -0.0249
   22W        W   22   2.219   0.151   3.554  0.2411 -0.1509  0.1266
   23W        W   23   0.958   1.684   0.282 -0.0905 -0.1990 -0.1932
   24W        W   24   2.610   1.597   2.055 -0.0235 -0.0763 -0.1791
   25W        W   25   3.352   0.422   1.685 -0.0166 -0.5967  0.3055
   26W        W   26   0.983   3.590   0.175 -0.0905  0.0600  0.0100
   27W        W   27   0.551   1.011   0.828  0.2123  0.2430 -0.1443
   28W        W   28   1.788   3.339   0.280 -0.2581 -0.1150  0.4232
   29W        W   29   1.460   3.372   2.597  0.2179 -0.0654  0.0598
   30W        W   30   0.301   3.265   3.506 -0.1650 -0.0404  0.1571
   31W        W   31   3.212   3.555   1.380  0.1071  0.0560  0.1491
   32W        W   32   2.337   1.332   1.035 -0.2645  0.2121  0.3743
   33W        W   33   0.784   1.466   2.532 -0.0029  0.2983 -0.3120
   34W        W   34   2.165   1.258   0.528  0.2023 -0.2652  0.0259
   35W        W   35   0.880   1.869   3.452 -0.1557 -0.2435 -0.1938
   36W        W   36   2.778   3.063   2.944 -0.1151 -0.4447  0.0434
   37W        W   37   1.234   1.912   1.026  0.0584  0.2436 -0.0314
   38W        W   38   0.987   0.547   0.732 -0.1285 -0.0479  0.2636
   39W        W   39   0.853   2.194   0.549  0.1137 -0.1480  0.2908
   40W        W   40   2.182   1.869   3.536  0.0023 -0.0227 -0.0396
   41W        W   41   1.381   3.203   3.724 -0.0127 -0.2655  0.1859
   42W        W   42   2.546   1.580   0.629 -0.1048 -0.2184 -0.2354
   43W        W   43   2.417   0.436   2.789 -0.1538 -0.1166  0.1897
   44W        W   44   0.461   0.661   2.401  0.1279  0.1011  0.1226
   45W        W   45   3.318   1.766   2.834  0.0586 -0.0642  0.4143
   46W        W   46   2.743   3.579   2.802  0.2274 -0.2221  0.2052
   47W        W   47   3.632   2.333   2.341  0.0998 -0.0678 -0.1639
   48W        W   48   0.847   0.983   2.637  0.1070 -0.1321 -0.2162
   49W        W   49   0.888   2.641   2.280  0.2305 -0.0036  0.2164
   50W        W   50   1.819   3.046   3.556  0.1370 -0.0841 -0.2230
   51W        W   51   0.161   0.408   3.176  0.0515  0.1378  0.2567
   52W        W   52   3.563   0.058   0.629  0.1397  0.0011  0.2885
   53W        W   53   0.388   2.364   2.028 -0.3113  0.1880 -0.0424
   54W        W   54   0.397   2.356   3.272  0.3629 -0.3433 -0.0317
   55W        W   55   1.365   0.270   0.806 -0.0828 -0.3195  0.1267
   56W        W   56   1.473   2.270   3.251  0.0549 -0.0795  0.2121
   57W        W   57   0.604   3.549   1.516  0.0900  0.3347  0.1241
   58W        W   58   1.910   2.776   3.089 -0.1717  0.0197 -0.0609
   59W        W   59   3.135   2.795   0.421  0.1074 -0.2115  0.2839
   60W        W   60   1.502   0.351   2.500  0.0462  0.0951  0.2000
   61W        W   61   2.713   0.227   1.463  0.0497  0.1813 -0.7276
   62W        W   62   3.045   2.281   2.565  0.0541  0.0173  0.1964
   63W        W   63   2.553   2.795   2.591  0.2284 -0.3221 -0.0042
   64W        W   64   0.955   1.099   0.276 -0.4604  0.0050 -0.1313
   65W        W   65   1.231   2.691   3.260 -0.0544 -0.1327 -0.1280
   66W        W   66   3.474   3.221   3.630 -0.0648 -0.0750  0.0481
   67W        W   67   3.452   1.935   0.690  0.0813 -0.0314  0.0103
   68W        W   68   3.601   2.562   1.367  0.4126 -0.1681  0.0378
   69W        W   69   2.268   2.983   0.050  0.0963  0.2189  0.2157
   70W        W   70   2.177   0.623   3.331  0.1162  0.3024  0.1216
   71W        W   71   0.575   0.731   0.400  0.3970  0.3418  0.0997
   72W        W   72   0.363   0.558   1.915  0.2255 -0.0826 -0.2209
   73W        W   73   1.739   1.295   2.254  0.0256  0.0308 -0.1836
   74W        W   74   3.222   0.488   2.623 -0.1062 -0.0959 -0.1352
   75W        W   75   0.833   2.639   0.350 -0.3067  0.0293 -0.0952
   76W        W   76   0.091   0.488   1.426  0.0022 -0.1639 -0.1055
   77W        W   77   2.488   3.493   1.527  0.0614 -0.2136  0.2662
   78W        W   78   3.493   3.058   1.606  0.1258  0.1146 -0.1600
   79W        W   79   3.653   1.331   2.913 -0.2260 -0.2744 -0.1361
   80W        W   80   0.672   1.352   2.977  0.2273  0.2003  0.0715
   81W        W   81   2.388   2.102   1.978  0.0714 -0.2244  0.1424
   82W        W   82   1.559   1.081   0.591 -0.2190 -0.0617  0.1264
   83W        W   83   0.105   2.267   0.856  0.0194 -0.1786 -0.0627
   84W        W   84   2.708   0.749   3.002 -0.3534  0.0365  0.1840
   85W        W   85   3.588   1.060   1.579  0.0768 -0.2372  0.0955
   86W        W   86   1.735   3.525   3.405 -0.1953 -0.2199  0.0481
   87W        W   87   3.119   1.911   1.821  0.0701  0.0766 -0.0069
   88W        W   88   3.199   3.236   1.973  0.0428  0.1106  0.0087
   89W        W   89   0.218   0.099   1.719 -0.0996 -0.1772  0.2374
   90W        W   90   0.021   2.212   3.646 -0.1880  0.4115 -0.0709
   91W        W   91   3.267   1.473   0.574  0.1761  0.3940  0.3128
   92W        W   92   3.573   1.823   1.636 -0.1630 -0.0521  0.0773
   93W        W   93   2.895   1.199   3.540  0.1102  0.3456 -0.2775
   94W        W   94   2.330   3.571   2.440  0.3038 -0.0982 -0.1185
   95W        W   95   1.493   2.967   2.902  0.1060 -0.0973  0.1905
   96W        W   96   3.097   0.891   1.632  0.3226  0.2329 -0.1071
   97W        W   97   1.715   1.810   1.365  0.1077  0.1465 -0.0782
   98W        W   98   3.417   0.320   3.108 -0.2828  0.2009 -0.0202
   99W        W   99   0.140   2.824   1.739 -0.0678 -0.3853 -0.1590
  100W        W  100   0.385   3.572   3.126 -0.1479 -0.3282  0.1089
  101W        W  101   1.689   2.194   2.323 -0.3021 -0.1098  0.3141
  102W        W  102   2.627   1.305   2.870  0.2898  0.0768 -0.0769
  103W        W  103   2.774   0.811   2.447  0.2084 -0.0624 -0.2364
  104W        W  104   2.209   0.787   0.836 -0.1140 -0.0902  0.2347
  105W        W  105   3.461   1.667   1.166 -0.0090 -0.0937 -0.0496
  106W        W  106   1.846   1.818   0.316 -0.0429  0.0211 -0.0438
  107W        W  107   0.792   2.553   3.566  0.3500 -0.0972  0.1116
  108W        W  108   1.482   2.070   1.862 -0.0638 -0.0582  0.3994
  109W        W  109   2.268   0.857   2.136  0.1721 -0.2910 -0.1017
  110W        W  110   2.340   3.046   0.488 -0.2038  0.2848 -0.5521
  111W        W  111   2.837   2.477   3.424  0.0828  0.1965 -0.1649
  112W        W  112   1.307   1.110   2.450 -0.0921 -0.2742 -0.2465
  113W        W  113   0.833   3.448   0.625 -0.0392 -0.1238 -0.0405
  114W        W  114   0.827   3.448   3.483  0.1365  0.1714  0.3256
  115W        W  115   0.311   2.527   0.328 -0.1963 -0.0506  0.0020
  116W        W  116   0.074   3.081   0.256 -0.3249 -0.0386 -0.2305
  117W        W  117   3.204   3.179   2.641  0.0072 -0.0184 -0.0587
  118W        W  118   3.242   0.006   2.727  0.1126  0.1139  0.0979
  119W        W  119   0.517   3.057   0.521 -0.0258 -0.3333  0.2471
  120W        W  120   0.055   1.355   3.369 -0.0682 -0.1033 -0.2616
  121W        W  121   1.930   0.284   0.850  0.3958  0.2057  0.0767
  122W        W  122   1.359   2.335   1.417  0.1046 -0.2414 -0.2911
  123W        W  123   0.320   2.728   3.576  0.2092 -0.0532 -0.1329
  124W        W  124   3.202   1.840   3.422 -0.2712 -0.0103 -0.0076
  125W        W  125   0.958   0.480   2.630 -0.1443 -0.1716  0.1891
  126W        W  126   2.764   1.776   3.688 -0.0920  0.1408  0.0314
  127W        W  127   0.308   0.919   1.603  0.1439  0.1306 -0.1289
  128W        W  128   1.990   1.764   2.137  0.1425 -0.0549 -0.0931
  129W        W  129   2.000   3.443   1.437  0.0317 -0.3322 -0.2262
  130W        W  130   0.435   1.277   0.253  0.0080 -0.0676  0.0444
  131W        W  131   1.510   1.555   0.060 -0.1841  0.0382 -0.2342
  132W        W  132   3.019   2.800   2.446 -0.1919  0.2860 -0.3762
  133W        W  133   1.583   0.262   1.497 -0.0960 -0.1010  0.2896
  134W        W  134   3.105   2.885   3.614 -0.2464 -0.1521 -0.2252
  135W        W  135   0.395   0.534   0.777  0.2581  0.2863 -0.0415
  136W        W  136   2.683   1.501   1.453 -0.0702 -0.0420 -0.0881
  137W        W  137   3.413   1.370   0.077  0.1592  0.1359 -0.2693
  138W        W  138   2.673   2.015   0.854  0.2849  0.1410  0.0018
  139W        W  139   0.341   2.058   0.459  0.1370 -0.2032 -0.3479
  140W        W  140   1.042   1.077   1.467  0.2401 -0.2693 -0.1524
  141W        W  141   0.497   2.609   0.873 -0.0824 -0.0330 -0.2475
  142W        W  142   0.761   0.197   0.508  0.1320 -0.1176  0.3923
  143W        W  143   1.900   2.334   1.662  0.0420  0.1787  0.0334
  144W        W  144   0.807   0.649   1.773  0.2684 -0.1535 -0.2142
  145W        W  145   3.674   0.520   2.242  0.2529  0.0158  0.4400
  146W        W  146   1.229   0.580   2.141  0.2898  0.0492 -0.1503
  147W        W  147   2.296   3.219   2.818 -0.0663 -0.1738  0.0498
  148W        W  148   3.398   2.519   0.918  0.0919 -0.1013 -0.1397
  149W        W  149   1.682   2.453   1.082 -0.3790 -0.5376  0.1268
  150W        W  150   2.680   0.339   0.916 -0.0844  0.2988 -0.1422
  151W        W  151   3.098   0.947   2.783  0.1040 -0.2072 -0.1995
  152W        W  152   3.153   0.137   0.997  0.1382  0.3720 -0.0029
  153W        W  153   3.070   1.458   2.425  0.3850  0.0158 -0.0389
  154W        W  154   0.008   3.233   2.024  0.0288  0.2599  0.0770
  155W        W  155   3.699   3.606   0.188  0.2220  0.1452  0.1185
  156W        W  156   2.233   3.500   0.167 -0.2240  0.1804  0.1463
  157W        W  157   1.640   1.070   1.481 -0.1682  0.1756  0.3093
  158W        W  158   3.119   1.994   1.018 -0.1005  0.0180  0.1716
  159W        W  159   2.724   2.728   0.166 -0.4156  0.6541 -0.0693
  160W        W  160   3.263   0.591   1.221 -0.2862 -0.2739 -0.3279
  161W        W  161   0.353   2.158   2.512 -0.0032 -0.0084 -0.1699
  162W        W  162   3.682   2.313   1.794  0.2576 -0.0446  0.0093
  163W        W  163   0.428   0.067   3.607 -0.2284  0.1304  0.0690
  164W        W  164   3.697   0.198   2.726 -0.0066  0.2353  0.3591
  165W        W  165   2.283   3.687   3.015 -0.3381  0.1015 -0.1968
  166W        W  166   1.418   2.025   2.714  0.0303  0.2479  0.1771
  167W        W  167   2.486   2.166   3.225  0.0723  0.0512 -0.1941
  168W        W  168   0.138   1.889   3.175 -0.0065  0.1813  0.1897
  169W        W  169   3.037   0.637   3.449  0.0185 -0.3736 -0.1528
  170W        W  170   0.320   1.123   2.626  0.1748  0.2484 -0.2374
  171W        W  171   2.187   2.683   1.268  0.2197  0.0948  0.3013
  172W        W  172   1.910   0.840   2.484  0.3941  0.1981  0.0166
  173W        W  173   3.557   0.360   0.010 -0.2634 -0.0096  0.0209
  174W        W  174   3.309   1.007   0.634 -0.1462  0.0402 -0.0949
  175W        W  175   0.292   0.127   2.304  0.3112 -0.0804  0.0697
  176W        W  176   1.649   2.844   1.596 -0.2264  0.1404  0.0842
  177W        W  177   3.226   2.845   1.267 -0.0925  0.2406 -0.0316
  178W        W  178   2.795   2.934   2.010 -0.0665  0.2061 -0.1555
  179W        W  179   0.964   1.479   1.195  0.1122  0.0202  0.0307
  180W        W  180   1.201   0.937   1.031  0.1133 -0.4404  0.0916
  181W        W  181   2.818   0.777   0.213 -0.1005  0.1291  0.2783
  182W        W  182   3.071   3.475   3.181  0.1477  0.3529 -0.3101
  183W        W  183   3.244   0.403   0.394 -0.4294 -0.0391 -0.1418
  184W        W  184   1.230   2.545   2.695  0.0574 -0.1230  0.0184
  185W        W  185   1.582   0.961   2.880  0.0559  0.3626 -0.1943
  186W        W  186   0.584   1.383   3.443  0.0741 -0.4049 -0.1851
  187W        W  187   1.396   3.248   1.453 -0.0417 -0.1301  0.4500
  188W        W  188   1.498   0.798   0.131  0.0027  0.0153 -0.0121
  189W        W  189   2.254   2.575   0.381  0.0591  0.1513 -0.3401
  190W        W  190   2.811   3.206   0.230 -0.0750  0.0296  0.2000
  191W        W  191   1.891   1.102   0.110 -0.1093 -0.0721 -0.1023
  192W        W  192   2.671   3.071   3.463 -0.4168 -0.1277  0.2389
  193W        W  193   2.433   3.007   1.602 -0.0014 -0.4841  0.4621
  194W        W  194   1.768   2.107   0.819 -0.0952  0.1168 -0.0032
  195W        W  195   3.184   0.775   2.190  0.0392 -0.5950  0.0270
  196W        W  196   0.729   0.447   3.716 -0.1550 -0.1698 -0.1994
  197W        W  197   3.697   3.046   2.602 -0.2238  0.1092  0.2862
  198W        W  198   2.278   0.288   0.472  0.1629  0.1325  0.0450
  199W        W  199   2.795   1.699   3.204 -0.0930  0.2236  0.1597
  200W        W  200   2.214   0.173   1.514 -0.3287 -0.1099 -0.2284
  201W        W  201   1.232   0.387   0.257  0.3362 -0.0771 -0.0105
  202W        W  202   2.393   1.841   2.466 -0.0181  0.0454 -0.1234
  203W        W  203   3.378   3.324   0.452  0.1016 -0.2704  0.2231
  204W        W  204   2.346   0.933   2.677 -0.2472 -0.0818 -0.1976
  205W        W  205   3.336   2.447   3.247 -0.0912  0.0967  0.2191
  206W        W  206   1.021   3.143   2.234  0.2334  0.1216  0.0315
  207W        W  207   3.558   1.418   1.985  0.2874  0.1758 -0.1668
  208W        W  208   2.702   2.489   2.174  0.2664 -0.3380  0.2968
  209W        W  209   2.251   2.438   2.376 -0.1818  0.0861  0.0723
  210W        W  210   3.633   2.179   2.843 -0.0208 -0.1940  0.1999
  211W        W  211   1.220   3.294   3.183 -0.0775 -0.0363  0.0851
  212W        W  212   0.527   3.373   1.970 -0.0625  0.0391  0.0929
  213W        W  213   2.793   2.436   1.125 -0.0747  0.0176 -0.1481
  214W        W  214   1.603   0.166   2.021  0.0733  0.2415  0.0303
  215W        W  215   1.778   2.354   0.311 -0.0513 -0.1299 -0.0732
  216W        W  216   2.728   0.930   0.692 -0.0678 -0.3799 -0.0945
  217W        W  217   2.960   3.170   0.749 -0.0134 -0.0180 -0.0719
  218W        W  218   1.389   1.575   0.617  0.0118  0.0653  0.1312
  219W        W  219   2.768   0.261   0.171  0.0434  0.0069 -0.0561
  220W        W  220   0.612   2.165   0.079  0.1478  0.0851  0.0059
  221W        W  221   0.645   0.692   1.304  0.3568 -0.0904  0.0169
  222W        W  222   2.070   3.627   2.004  0.3232 -0.0683  0.3299
  223W        W  223   3.203   2.767   1.820  0.0862 -0.1253  0.1629
  224W        W  224   0.312   3.715   0.827  0.2969 -0.1918  0.1567
  225W        W  225   0.101   1.830   2.125  0.0928  0.1544  0.3002
  226W        W  226   2.974   3.671   1.801  0.2099 -0.1414  0.0471
  227W        W  227   0.944   2.618   1.434  0.3199 -0.0688  0.0387
  228W        W  228   1.236   2.656   0.037 -0.0747  0.1306  0.2671
  229W        W  229   2.371   2.003   0.436  0.2697  0.0930  0.0720
  230W        W  230   2.195   3.244   3.317 -0.1427  0.1001 -0.1901
  231W        W  231   0.673   1.856   2.142  0.2609 -0.2129  0.0131
  232W        W  232   1.977   3.042   1.854 -0.3028  0.2229 -0.1879
  233W        W  233   1.079   3.714   1.373 -0.0179  0.0002  0.0187
  234W        W  234   2.307   0.365   1.955 -0.1509 -0.1300 -0.0385
  235W        W  235   0.522   0.277   2.802 -0.0483 -0.2792 -0.2270
  236W        W  236   3.287   1.230   3.202  0.1224 -0.2122  0.1409
  237W        W  237   0.068   0.841   0.419 -0.2987 -0.1868  0.1855
  238W        W  238   3.371   3.401   0.938 -0.0132  0.4190  0.0625
  239W        W  239   2.326   2.519   3.589 -0.0298 -0.0038 -0.1509
  240W        W  240   1.978   0.653   1.554  0.2819 -0.0066 -0.1775
  241W        W  241   1.178   1.101   1.931  0.1023  0.0843 -0.1697
  242W        W  242   2.695   3.577   3.500  0.0042  0.1557  0.0643
  243W        W  243   0.896   2.286   1.866  0.0540  0.0042  0.0431
  244W        W  244   0.474   2.933   1.390  0.0300  0.1733  0.2100
  245W        W  245   1.633   1.241   3.328  0.4444  0.1865 -0.0324
  246W        W  246   1.085   0.271   1.808 -0.2874  0.1393 -0.1904
  247W        W  247   0.706   2.782   1.827 -0.0217 -0.1472 -0.0690
  248W        W  248   2.308   0.064   1.084 -0.0726  0.0083  0.0616
  249W        W  249   2.908   2.593   2.928 -0.0794  0.0888 -0.3721
  250W        W  250   3.477   2.878   2.198  0.2953 -0.0629 -0.0496
  251W        W  251   0.623   0.254   1.566  0.0320 -0.2313  0.2514
  252W        W  252   3.182   2.331   1.523 -0.0651  0.5266  0.0382
  253W        W  253   2.427   1.213   0.092  0.2044  0.0678  0.2134
  254W        W  254   0.035   1.686   0.287  0.0187 -0.1980  0.2102
  255W        W  255   1.943   1.409   1.382 -0.0092 -0.1690  0.2622
  256W        W  256   3.703   0.011   1.192  0.0497 -0.2229  0.0084
  257W        W  257   1.126   2.144   0.071 -0.4626  0.0159 -0.4220
  258W        W  258   0.303   0.911   3.227  0.1219 -0.1442  0.1581
  259W        W  259   1.969   2.216   3.187  0.2582 -0.2771 -0.0122
  260W        W  260   1.022   1.806   2.863  0.0095  0.2597  0.0263
  261W        W  261   2.806   0.054   2.305 -0.3071 -0.3183  0.1466
  262W        W  262   0.691   1.686   0.830  0.0513  0.0625 -0.1646
  263W        W  263   0.889   2.918   0.795 -0.1492  0.0070 -0.0132
  264W        W  264   2.954   3.182   1.555  0.2924  0.4171 -0.1383
  265W        W  265   0.664   1.015   2.084  0.0541  0.2030  0.0746
  266W        W  266   1.698   0.060   0.504  0.0046 -0.2682  0.0358
  267W        W  267   0.052   2.992   1.179 -0.2876  0.1618  0.2245
  268W        W  268   2.294   3.162   1.092 -0.0351 -0.0786  0.0857
  269W        W  269   1.727   0.730   1.975  0.0431  0.0841 -0.2326
  270W        W  270   0.828   3.441   2.849  0.0894 -0.2046  0.0516
  271W        W  271   2.763   1.188   1.869 -0.2417 -0.0633 -0.3180
  272W        W  272   0.163   2.078   1.285 -0.1298 -0.1131 -0.0858
  273W        W  273   0.644   3.027   0.059  0.0386  0.0792  0.0084
  274W        W  274   1.276   1.639   2.405 -0.3412 -0.1531  0.3968
  275W        W  275   1.818   3.729   2.629 -0.0809  0.2312 -0.6245
  276W        W  276   1.075   2.394   0.986 -0.1230 -0.1972  0.1048
  277W        W  277   0.185   2.729   2.300  0.1244  0.1223  0.2670
  278W        W  278   3.038   2.139   3.033  0.0548  0.2419 -0.2805
  279W        W  279   0.357   3.476   2.554  0.0277 -0.0140 -0.3805
  280W        W  280   3.504   0.569   0.799 -0.0400 -0.0505 -0.1507
  281W        W  281   2.498   3.484   0.694 -0.1032 -0.0129 -0.1377
  282W        W  282   1.110   2.111   2.324 -0.4024  0.1486 -0.1889
  283W        W  283   1.885   0.310   3.114  0.2037 -0.2025  0.0956
  284W        W  284   0.141   0.896   1.067  0.0485  0.0505 -0.1022
  285W        W  285   1.095   1.406   3.231  0.0943  0.0192  0.1842
  286W        W  286   0.783   0.212   2.219 -0.0293  0.0895  0.0815
  287W        W  287   2.764   0.675   1.912 -0.0786  0.0480 -0.0261
  288W        W  288   0.502   1.713   1.250  0.0569  0.2198 -0.1880
  289W        W  289   1.405   1.444   2.819  0.2114 -0.1581 -0.0150
  290W        W  290   2.587   0.526   3.566  0.4969 -0.0225  0.1226
  291W        W  291   1.233   1.103   3.620  0.0422 -0.0921 -0.2011
  292W        W  292   2.675   2.463   1.675 -0.2694  0.0799  0.3284
  293W        W  293   0.122   1.041   2.050 -0.0446  0.3053  0.1222
  294W        W  294   0.376   1.800   3.665  0.1728  0.3449  0.0621
  295W        W  295   0.778   2.995   3.264 -0.0530  0.1866  0.2978
  296W        W  296   0.145   3.331   1.505 -0.3958 -0.1510  0.0937
  297W        W  297   0.280   0.632   3.628  0.2371 -0.3487  0.2511
  298W        W  298   2.724   2.215   0.144 -0.1512 -0.0535 -0.0570
  299W        W  299   3.604   2.707   0.060  0.1385  0.5058 -0.2303
  300W        W  300   1.227   3.670   2.221 -0.1310  0.1199  0.1229
  301W        W  301   1.314   2.854   1.046  0.0740 -0.1000 -0.1046
  302W        W  302   1.710   2.842   0.280 -0.2950 -0.0841  0.1316
  303W        W  303   1.834   1.521   0.819 -0.1761 -0.1824 -0.1273
  304W        W  304   0.866   2.108   1.369  0.0051  0.3251  0.2979
  305W        W  305   3.135   0.156   3.475  0.1050  0.0844 -0.0241
  306W        W  306   3.518   3.648   1.838 -0.1161  0.0447 -0.2618
  307W        W  307   1.151   3.021   0.378  0.0594  0.1947 -0.0314
  308W        W  308   0.237   0.294   0.402 -0.1748 -0.1342 -0.0161
  309W        W  309   1.080   0.422   1.258 -0.1929  0.0630  0.0975
  310W        W  310   1.433   1.388   1.056 -0.0271 -0.0167  0.0513
  311W        W  311   0.451   3.496   0.328  0.0665  0.0671  0.1642
  312W        W  312   1.358   0.709   1.665  0.0357  0.1044 -0.1705
  313W        W  313   3.565   3.630   3.403  0.3540  0.4169  0.0318
  314W        W  314   1.384   2.096   0.558  0.1742 -0.0409 -0.1686
  315W        W  315   1.920   1.775   2.693  0.2452  0.0935  0.0490
  316W        W  316   0.420   2.010   1.714  0.0818  0.1425  0.3534
  317W        W  317   0.327   3.128   2.936  0.2649 -0.1829 -0.3894
  318W        W  318   0.904   2.383   3.133 -0.1527  0.0603 -0.0741
  319W        W  319   1.918   0.468   0.045  0.0643 -0.3460 -0.3609
  320W        W  320   0.603   2.689   2.887  0.0902 -0.0785  0.3237
  321W        W  321   1.604   1.466   1.801 -0.3479 -0.0530 -0.0275
  322W        W  322   3.327   1.892   0.153  0.3777  0.2167  0.1994
  323W        W  323   2.685   2.697   0.697  0.2552 -0.0283  0.1934
  324W        W  324   3.358   1.871   2.341 -0.0900 -0.1877 -0.3310
  325W        W  325   0.592   3.293   1.015 -0.1775  0.1791 -0.0696
  326W        W  326   2.589   2.241   2.702  0.2458 -0.0662  0.2515
  327W        W  327   0.080   3.311   0.745 -0.1582 -0.2229 -0.2142
  328W        W  328   3.194   2.343   2.077 -0.2653  0.1215  0.2934
  329W        W  329   0.826   2.310   2.670 -0.1035  0.1242 -0.0074
  330W        W  330   3.231   2.982   3.108 -0.1409 -0.1287 -0.0702
  331W        W  331   3.195   1.422   1.628 -0.1734 -0.3411 -0.2946
  332W        W  332   3.411   2.623   2.734  0.2393  0.1429  0.1184
  333W        W  333   2.012   1.170   1.881 -0.0334  0.0088 -0.2293
  334W        W  334   0.535   1.189   1.310 -0.1923 -0.1051 -0.1250
  335W        W  335   2.259   0.817   0.305  0.0596 -0.3370  0.0161
  336W        W  336   1.725   1.737   3.333  0.1509  0.3122  0.1889
  337W        W  337   1.499   3.206   1.971 -0.0495 -0.0725 -0.2079
  338W        W  338   1.201   1.675   1.610 -0.1792  0.1035 -0.0162
  339W        W  339   3.543   3.375   2.939 -0.1791  0.0590  0.3487
  340W        W  340   1.825   3.327   2.960 -0.1237  0.2343  0.0937
  341W        W  341   1.504   3.260   0.679  0.1981  0.3586  0.1152
  342W        W  342   1.544   0.588   1.113 -0.2582  0.0487 -0.2624
  343W        W  343   2.030   1.188   2.991  0.2125  0.3210 -0.0847
  344W        W  344   1.079   0.914   3.201 -0.0395  0.1866 -0.1057
  345W        W  345   0.049   2.800   0.711  0.2267  0.0021 -0.2000
  346W        W  346   2.556   3.467   2.005 -0.2080  0.3369  0.0365
  347W        W  347   2.321   3.089   2.287  0.1867 -0.0006 -0.0003
  348W        W  348   3.095   3.616   0.107  0.0752  0.0635  0.0496
  349W        W  349   2.857   1.566   1.024  0.2654 -0.0471 -0.2799
  350W        W  350   1.235   3.674   3.473 -0.2789 -0.0260 -0.0837
  351W        W  351   1.242   2.691   1.856  0.0306  0.2772  0.2108
  352W        W  352   3.327   0.845   0.163  0.0976 -0.0062 -0.0449
  353W        W  353   3.197   2.401   0.007  0.2240  0.2971 -0.1107
  354W        W  354   2.793   1.993   2.208  0.1101 -0.2172 -0.0778
  355W        W  355   3.677   2.841   3.230  0.1452 -0.0437 -0.0883
  356W        W  356   0.877   0.158   3.173 -0.2224  0.1278 -0.4458
  357W        W  357   0.916   3.142   1.447 -0.4230 -0.1161  0.1949
  358W        W  358   1.850   1.039   1.089 -0.0376 -0.0013  0.0621
  359W        W  359   0.720   0.149   1.075 -0.4524 -0.1085  0.0127
  360W        W  360   2.226   1.805   0.997  0.1290 -0.2338  0.2737
  361W        W  361   1.432   3.684   3.007 -0.1069  0.0168 -0.0779
  362W        W  362   0.566   1.980   3.013  0.1097  0.0266  0.1223
  363W        W  363   1.667   0.725   3.395 -0.0141  0.0544  0.1399
  364W        W  364   2.288   2.227   1.343 -0.2455  0.1569 -0.1434
  365W        W  365   0.120   1.415   1.202  0.0340  0.3396 -0.0414
  366W        W  366   0.569   2.140   0.988 -0.3672 -0.0859  0.2129
  367W        W  367   2.928   0.021   0.545  0.0636  0.1566 -0.4423
  368W        W  368   2.263   1.786   1.550 -0.2374 -0.0170  0.1561
  369W        W  369   2.651   0.670   1.326 -0.0336  0.2429  0.4251
  370W        W  370   2.457   2.705   3.136  0.1308  0.1396  0.0281
  371W        W  371   0.971   2.977   2.724 -0.2283  0.2132  0.2394
  372W        W  372   0.145   2.605   2.824 -0.1717  0.0151 -0.1598
  373W        W  373   0.792   1.381   1.692  0.0611  0.2838  0.0974
  374W        W  374   0.990   3.500   1.833  0.0701 -0.1525  0.0710
  375W        W  375   2.870   1.358   0.277  0.3528 -0.1326  0.2293
  376W        W  376   2.233   1.384   2.450 -0.1453  0.1518 -0.2100
  377W        W  377   1.824   2.635   2.126  0.1109 -0.1231  0.2837
  378W        W  378   1.574   0.112   0.033 -0.0741 -0.1957 -0.1031
  379W        W  379   0.262   1.386   1.704  0.0708 -0.1378 -0.0794
  380W        W  380   0.706   0.928   3.547 -0.0464  0.1283 -0.2221
  381W        W  381   2.999   2.333   0.583 -0.0281 -0.0016 -0.1178
  382W        W  382   3.378   1.104   1.137 -0.1558 -0.2266  0.1021
  383W        W  383   2.834   1.806   2.681  0.2961 -0.2159 -0.1569
  384W        W  384   0.164   1.772   0.865  0.0207 -0.0941 -0.1094
  385W        W  385   1.797   2.543   3.580  0.3717 -0.0482  0.1581
  386W        W  386   1.766   0.617   0.494  0.1966  0.1881 -0.0808
  387W        W  387   3.552   0.817   3.386 -0.0276 -0.2053  0.2992
  388W        W  388   2.267   2.358   0.805 -0.3592  0.2122  0.1469
  389W        W  389   1.819   2.376   2.758  0.2823  0.0100 -0.1207
  390W        W  390   0.275   1.708   2.668 -0.1299  0.1491  0.0010
  391W        W  391   1.385   2.630   0.606  0.3020 -0.1458  0.1428
  392W        W  392   2.768   3.272   2.442  0.0655  0.1183  0.1221
  393W        W  393   2.917   1.857   0.393  0.1528  0.1051  0.1059
  394W        W  394   0.346   1.425   2.216 -0.1152 -0.0300 -0.0181
  395W        W  395   2.727   3.519   1.132 -0.1312 -0.0611  0.0629
  396W        W  396   3.598   0.840   2.770 -0.0346 -0.0637  0.1669
  397W        W  397   2.727   2.911   1.178 -0.0361  0.0988 -0.1671
  398W        W  398   1.945   2.847   2.559  0.3001  0.0568 -0.0275
  399W        W  399   2.259   2.588   1.889  0.0385 -0.2463 -0.1177
  400W        W  400   2.021   3.337   0.660  0.1315  0.1160 -0.1776
3.7321 3.7321 3.7321 0.0000 0.0000 0.0000 0.0000 0.0000 0.0000
