Written by MDAnalysis
 1080
    0DIM   BNZ1    1  27.511  13.703  23.120
    0DIM   BNZ2    2  27.365  13.810  23.084
    0DIM   BNZ3    3  27.559  13.943  23.164
    0DIM    BS1    4  27.714  13.817  23.180
    0DIM    BS2    5  27.395  14.041  23.123
    1DIM   BNZ1    6  10.326  17.393  17.689
    1DIM   BNZ2    7  10.386  17.535  17.790
    1DIM   BNZ3    8  10.450  17.317  17.891
    1DIM    BS1    9  10.396  17.175  17.761
    1DIM    BS2   10  10.503  17.479  17.988
    2DIM   BNZ1   11  22.604  15.094   4.936
    2DIM   BNZ2   12  22.464  15.057   5.050
    2DIM   BNZ3   13  22.399  15.220   4.873
    2DIM    BS1   14  22.553  15.234   4.747
    2DIM    BS2   15  22.263  15.173   5.005
    3DIM   BNZ1   16  16.264   3.221  21.903
    3DIM   BNZ2   17  16.160   3.369  21.868
    3DIM   BNZ3   18  16.287   3.394  22.081
    3DIM    BS1   19  16.409   3.236  22.095
    3DIM    BS2   20  16.168   3.541  22.031
    4DIM   BNZ1   21  27.758  12.806  24.492
    4DIM   BNZ2   22  27.877  12.666  24.503
    4DIM   BNZ3   23  27.918  12.803  24.300
    4DIM    BS1   24  27.796  12.962  24.312
    4DIM    BS2   25  28.032  12.647  24.325
    5DIM   BNZ1   26  28.921  21.678   5.475
    5DIM   BNZ2   27  28.962  21.620   5.305
    5DIM   BNZ3   28  28.927  21.429   5.460
    5DIM    BS1   29  28.864  21.506   5.634
    5DIM    BS2   30  28.975  21.386   5.276
    6DIM   BNZ1   31  21.735  26.381  28.620
    6DIM   BNZ2   32  21.659  26.548  28.632
    6DIM   BNZ3   33  21.900  26.563  28.574
    6DIM    BS1   34  21.964  26.375  28.545
    6DIM    BS2   35  21.804  26.731  28.596
    7DIM   BNZ1   36  17.878   8.807   6.305
    7DIM   BNZ2   37  18.028   8.732   6.230
    7DIM   BNZ3   38  17.919   8.893   6.074
    7DIM    BS1   39  17.771   8.980   6.176
    7DIM    BS2   40  18.079   8.801   6.009
    8DIM   BNZ1   41   6.009  24.198  10.819
    8DIM   BNZ2   42   6.122  24.319  10.737
    8DIM   BNZ3   43   6.249  24.139  10.852
    8DIM    BS1   44   6.115  24.007  10.919
    8DIM    BS2   45   6.354  24.278  10.763
    9DIM   BNZ1   46  28.667  10.305  17.568
    9DIM   BNZ2   47  28.616  10.138  17.625
    9DIM   BNZ3   48  28.596  10.160  17.378
    9DIM    BS1   49  28.673  10.338  17.330
    9DIM    BS2   50  28.541   9.989  17.456
   10DIM   BNZ1   51  10.066  10.661   6.728
   10DIM   BNZ2   52  10.152  10.500   6.756
   10DIM   BNZ3   53   9.972  10.538   6.924
   10DIM    BS1   54   9.876  10.705   6.869
   10DIM    BS2   55  10.075  10.374   6.941
   11DIM   BNZ1   56   9.288  23.213  20.988
   11DIM   BNZ2   57   9.343  23.205  21.164
   11DIM   BNZ3   58   9.120  23.313  21.143
   11DIM    BS1   59   9.066  23.297  20.951
   11DIM    BS2   60   9.196  23.300  21.323
   12DIM   BNZ1   61  25.397  10.091  15.219
   12DIM   BNZ2   62  25.435   9.938  15.315
   12DIM   BNZ3   63  25.334   9.886  15.093
   12DIM    BS1   64  25.318  10.059  14.994
   12DIM    BS2   65  25.377   9.734  15.209
   13DIM   BNZ1   66  11.827  17.474  25.106
   13DIM   BNZ2   67  11.937  17.330  25.072
   13DIM   BNZ3   68  12.059  17.513  25.188
   13DIM    BS1   69  11.923  17.652  25.236
   13DIM    BS2   70  12.162  17.354  25.141
   14DIM   BNZ1   71  13.793  25.641  12.120
   14DIM   BNZ2   72  13.678  25.780  12.155
   14DIM   BNZ3   73  13.609  25.654  11.952
   14DIM    BS1   74  13.730  25.495  11.939
   14DIM    BS2   75  13.500  25.808  12.002
   15DIM   BNZ1   76  14.987  20.190  22.591
   15DIM   BNZ2   77  14.831  20.215  22.685
   15DIM   BNZ3   78  14.912  19.980  22.703
   15DIM    BS1   79  15.091  19.974  22.614
   15DIM    BS2   80  14.745  20.023  22.795
   16DIM   BNZ1   81  25.483   5.617   6.434
   16DIM   BNZ2   82  25.432   5.794   6.440
   16DIM   BNZ3   83  25.236   5.642   6.456
   16DIM    BS1   84  25.307   5.455   6.468
   16DIM    BS2   85  25.200   5.834   6.458
   17DIM   BNZ1   86  11.282  26.291  23.888
   17DIM   BNZ2   87  11.391  26.251  24.030
   17DIM   BNZ3   88  11.314  26.045  23.913
   17DIM    BS1   89  11.213  26.105  23.751
   17DIM    BS2   90  11.428  26.020  24.069
   18DIM   BNZ1   91   0.344  18.248  18.233
   18DIM   BNZ2   92   0.164  18.257  18.192
   18DIM   BNZ3   93   0.275  18.068  18.075
   18DIM    BS1   94   0.462  18.059  18.143
   18DIM    BS2   95   0.084  18.095  18.040
   19DIM   BNZ1   96  22.685  28.052  23.611
   19DIM   BNZ2   97  22.662  27.872  23.579
   19DIM   BNZ3   98  22.645  27.924  23.822
   19DIM    BS1   99  22.652  28.123  23.839
   19DIM    BS2  100  22.627  27.736  23.770
   20DIM   BNZ1  101  28.680   4.096   7.545
   20DIM   BNZ2  102  28.635   4.090   7.366
   20DIM   BNZ3  103  28.470   4.222   7.498
   20DIM    BS1  104  28.542   4.236   7.684
   20DIM    BS2  105  28.436   4.203   7.306
   21DIM   BNZ1  106   1.908  13.981  10.023
   21DIM   BNZ2  107   1.923  13.799  10.040
   21DIM   BNZ3  108   2.044  13.882   9.839
   21DIM    BS1  109   2.035  14.082   9.845
   21DIM    BS2  110   2.047  13.689   9.871
   22DIM   BNZ1  111  24.937  15.629  14.034
   22DIM   BNZ2  112  24.808  15.500  14.063
   22DIM   BNZ3  113  24.955  15.442  13.870
   22DIM    BS1  114  25.100  15.580  13.864
   22DIM    BS2  115  24.810  15.318  13.912
   23DIM   BNZ1  116   6.726  22.484  23.869
   23DIM   BNZ2  117   6.823  22.357  23.777
   23DIM   BNZ3  118   6.723  22.263  23.985
   23DIM    BS1  119   6.606  22.406  24.063
   23DIM    BS2  120   6.832  22.143  23.877
   24DIM   BNZ1  121  13.124  14.965   9.178
   24DIM   BNZ2  122  13.202  15.113   9.101
   24DIM   BNZ3  123  13.146  14.939   8.931
   24DIM    BS1  124  13.045  14.795   9.027
   24DIM    BS2  125  13.233  15.101   8.866
   25DIM   BNZ1  126   5.714  11.782   9.837
   25DIM   BNZ2  127   5.806  11.731   9.989
   25DIM   BNZ3  128   5.841  11.972   9.937
   25DIM    BS1  129   5.721  12.017   9.783
   25DIM    BS2  130   5.934  11.901  10.093
   26DIM   BNZ1  131   0.827  13.691  13.139
   26DIM   BNZ2  132   0.996  13.762  13.165
   26DIM   BNZ3  133   0.953  13.569  13.317
   26DIM    BS1  134   0.777  13.491  13.264
   26DIM    BS2  135   1.126  13.658  13.333
   27DIM   BNZ1  136  11.128  13.928  27.258
   27DIM   BNZ2  137  11.093  14.100  27.203
   27DIM   BNZ3  138  11.043  13.934  27.024
   27DIM    BS1  139  11.067  13.753  27.104
   27DIM    BS2  140  11.015  14.122  26.980
   28DIM   BNZ1  141  -0.099  22.913  21.250
   28DIM   BNZ2  142   0.065  22.960  21.183
   28DIM   BNZ3  143   0.076  22.912  21.427
   28DIM    BS1  144  -0.104  22.843  21.480
   28DIM    BS2  145   0.242  22.968  21.341
   29DIM   BNZ1  146  10.003  25.303  24.695
   29DIM   BNZ2  147  10.074  25.181  24.577
   29DIM   BNZ3  148   9.829  25.147  24.608
   29DIM    BS1  149   9.764  25.298  24.721
   29DIM    BS2  150   9.922  25.023  24.489
   30DIM   BNZ1  151   9.204   2.806  11.892
   30DIM   BNZ2  152   9.257   2.701  12.034
   30DIM   BNZ3  153   9.057   2.606  11.920
   30DIM    BS1  154   9.025   2.718  11.757
   30DIM    BS2  155   9.125   2.509  12.076
   31DIM   BNZ1  156  12.866  21.413  12.819
   31DIM   BNZ2  157  12.964  21.363  12.967
   31DIM   BNZ3  158  13.091  21.520  12.823
   31DIM    BS1  159  12.966  21.581  12.679
   31DIM    BS2  160  13.182  21.454  12.982
   32DIM   BNZ1  161  17.197  19.610   9.896
   32DIM   BNZ2  162  17.274  19.765   9.833
   32DIM   BNZ3  163  17.437  19.577   9.839
   32DIM    BS1  164  17.335  19.413   9.891
   32DIM    BS2  165  17.504  19.750   9.777
   33DIM   BNZ1  166  13.958  20.740  19.125
   33DIM   BNZ2  167  13.778  20.713  19.094
   33DIM   BNZ3  168  13.840  20.662  19.330
   33DIM    BS1  169  14.032  20.715  19.352
   33DIM    BS2  170  13.653  20.635  19.279
   34DIM   BNZ1  171   9.189  24.700   2.231
   34DIM   BNZ2  172   9.010  24.725   2.263
   34DIM   BNZ3  173   9.135  24.681   2.473
   34DIM    BS1  174   9.329  24.674   2.425
   34DIM    BS2  175   8.943  24.707   2.490
   35DIM   BNZ1  176  27.807   6.335   0.231
   35DIM   BNZ2  177  27.852   6.386   0.402
   35DIM   BNZ3  178  28.024   6.235   0.305
   35DIM    BS1  179  27.972   6.204   0.114
   35DIM    BS2  180  28.053   6.297   0.488
   36DIM   BNZ1  181  11.523  17.422  12.584
   36DIM   BNZ2  182  11.615  17.566  12.517
   36DIM   BNZ3  183  11.415  17.515  12.379
   36DIM    BS1  184  11.315  17.370  12.474
   36DIM    BS2  185  11.527  17.663  12.320
   37DIM   BNZ1  186  16.822  20.065   1.103
   37DIM   BNZ2  187  16.678  19.979   1.179
   37DIM   BNZ3  188  16.867  19.822   1.140
   37DIM    BS1  189  17.021  19.932   1.077
   37DIM    BS2  190  16.704  19.747   1.217
   38DIM   BNZ1  191   7.386   0.734  26.651
   38DIM   BNZ2  192   7.567   0.702  26.634
   38DIM   BNZ3  193   7.518   0.946  26.649
   38DIM    BS1  194   7.322   0.963  26.687
   38DIM    BS2  195   7.705   0.895  26.628
   39DIM   BNZ1  196  22.104   9.193   8.897
   39DIM   BNZ2  197  22.152   9.015   8.895
   39DIM   BNZ3  198  21.907   9.044   8.860
   39DIM    BS1  199  21.874   9.240   8.845
   39DIM    BS2  200  21.975   8.861   8.864
   40DIM   BNZ1  201  28.107   1.913   6.499
   40DIM   BNZ2  202  28.265   1.819   6.495
   40DIM   BNZ3  203  28.106   1.723   6.660
   40DIM    BS1  204  27.933   1.823   6.639
   40DIM    BS2  205  28.281   1.637   6.645
   41DIM   BNZ1  206  25.452   6.986  12.635
   41DIM   BNZ2  207  25.387   7.146  12.698
   41DIM   BNZ3  208  25.290   7.089  12.476
   41DIM    BS1  209  25.355   6.905  12.431
   41DIM    BS2  210  25.234   7.258  12.556
   42DIM   BNZ1  211  27.603  17.492  24.116
   42DIM   BNZ2  212  27.699  17.477  24.272
   42DIM   BNZ3  213  27.811  17.358  24.085
   42DIM    BS1  214  27.707  17.399  23.919
   42DIM    BS2  215  27.898  17.349  24.260
   43DIM   BNZ1  216  23.263  28.785  19.485
   43DIM   BNZ2  217  23.420  28.871  19.526
   43DIM   BNZ3  218  23.226  29.026  19.534
   43DIM    BS1  219  23.062  28.915  19.507
   43DIM    BS2  220  23.402  29.102  19.573
   44DIM   BNZ1  221   2.529   9.803  14.432
   44DIM   BNZ2  222   2.346   9.790  14.448
   44DIM   BNZ3  223   2.463   9.692  14.645
   44DIM    BS1  224   2.658   9.731  14.623
   44DIM    BS2  225   2.268   9.683  14.644
   45DIM   BNZ1  226   9.675  17.494  27.004
   45DIM   BNZ2  227   9.857  17.525  27.001
   45DIM   BNZ3  228   9.731  17.706  26.886
   45DIM    BS1  229   9.537  17.669  26.914
   45DIM    BS2  230   9.926  17.721  26.889
   46DIM   BNZ1  231   0.919  14.258  15.994
   46DIM   BNZ2  232   0.930  14.139  15.854
   46DIM   BNZ3  233   0.756  14.311  15.813
   46DIM    BS1  234   0.769  14.444  15.963
   46DIM    BS2  235   0.778  14.174  15.676
   47DIM   BNZ1  236   7.912  17.560  14.637
   47DIM   BNZ2  237   8.089  17.601  14.667
   47DIM   BNZ3  238   8.023  17.647  14.431
   47DIM    BS1  239   7.825  17.616  14.419
   47DIM    BS2  240   8.209  17.681  14.479
   48DIM   BNZ1  241   4.352  26.511  21.180
   48DIM   BNZ2  242   4.412  26.344  21.229
   48DIM   BNZ3  243   4.522  26.523  21.362
   48DIM    BS1  244   4.433  26.695  21.312
   48DIM    BS2  245   4.577  26.340  21.399
   49DIM   BNZ1  246   8.780   1.094  27.434
   49DIM   BNZ2  247   8.599   1.056  27.432
   49DIM   BNZ3  248   8.706   1.005  27.213
   49DIM    BS1  249   8.903   1.032  27.236
   49DIM    BS2  250   8.514   0.974  27.227
   50DIM   BNZ1  251  23.762  20.592  28.855
   50DIM   BNZ2  252  23.601  20.634  28.934
   50DIM   BNZ3  253  23.791  20.742  29.053
   50DIM    BS1  254  23.955  20.704  28.944
   50DIM    BS2  255  23.613  20.773  29.126
   51DIM   BNZ1  256  22.243  25.306  18.663
   51DIM   BNZ2  257  22.348  25.431  18.748
   51DIM   BNZ3  258  22.280  25.508  18.521
   51DIM    BS1  259  22.152  25.372  18.450
   51DIM    BS2  260  22.396  25.627  18.624
   52DIM   BNZ1  261  12.082  12.547  20.196
   52DIM   BNZ2  262  12.261  12.507  20.181
   52DIM   BNZ3  263  12.153  12.378  20.365
   52DIM    BS1  264  11.957  12.418  20.355
   52DIM    BS2  265  12.344  12.350  20.338
   53DIM   BNZ1  266  22.424  23.792  15.368
   53DIM   BNZ2  267  22.584  23.854  15.301
   53DIM   BNZ3  268  22.609  23.771  15.535
   53DIM    BS1  269  22.433  23.690  15.586
   53DIM    BS2  270  22.769  23.844  15.449
   54DIM   BNZ1  271   7.350   1.636   4.098
   54DIM   BNZ2  272   7.454   1.637   4.250
   54DIM   BNZ3  273   7.250   1.497   4.280
   54DIM    BS1  274   7.159   1.489   4.102
   54DIM    BS2  275   7.371   1.512   4.433
   55DIM   BNZ1  276  11.735   1.347  19.345
   55DIM   BNZ2  277  11.676   1.512  19.402
   55DIM   BNZ3  278  11.864   1.428  19.542
   55DIM    BS1  279  11.929   1.259  19.456
   55DIM    BS2  280  11.788   1.600  19.591
   56DIM   BNZ1  281  13.915  18.811   7.083
   56DIM   BNZ2  282  13.849  18.922   6.951
   56DIM   BNZ3  283  13.801  18.682   6.902
   56DIM    BS1  284  13.861  18.578   7.062
   56DIM    BS2  285  13.741  18.813   6.770
   57DIM   BNZ1  286   0.201  13.893   5.168
   57DIM   BNZ2  287   0.139  13.734   5.236
   57DIM   BNZ3  288   0.054  13.928   5.366
   57DIM    BS1  289   0.113  14.093   5.269
   57DIM    BS2  290   0.000  13.751   5.427
   58DIM   BNZ1  291   4.730  11.324  24.284
   58DIM   BNZ2  292   4.602  11.453  24.314
   58DIM   BNZ3  293   4.536  11.302  24.128
   58DIM    BS1  294   4.674  11.156  24.121
   58DIM    BS2  295   4.414  11.448  24.171
   59DIM   BNZ1  296   0.415  11.321  22.532
   59DIM   BNZ2  297   0.273  11.208  22.568
   59DIM   BNZ3  298   0.373  11.160  22.345
   59DIM    BS1  299   0.536  11.276  22.329
   59DIM    BS2  300   0.220  11.052  22.398
   60DIM   BNZ1  301  15.892   0.929  24.618
   60DIM   BNZ2  302  15.996   1.001  24.752
   60DIM   BNZ3  303  15.915   1.177  24.595
   60DIM    BS1  304  15.789   1.087  24.469
   60DIM    BS2  305  16.031   1.235  24.742
   61DIM   BNZ1  306  14.976  24.954  13.544
   61DIM   BNZ2  307  15.146  24.893  13.506
   61DIM   BNZ3  308  15.049  24.776  13.703
   61DIM    BS1  309  14.859  24.837  13.719
   61DIM    BS2  310  15.231  24.726  13.651
   62DIM   BNZ1  311  23.533  10.150   2.305
   62DIM   BNZ2  312  23.422  10.224   2.177
   62DIM   BNZ3  313  23.441   9.977   2.150
   62DIM    BS1  314  23.547   9.909   2.306
   62DIM    BS2  315  23.330  10.072   2.021
   63DIM   BNZ1  316  28.818  14.455   3.438
   63DIM   BNZ2  317  28.760  14.356   3.295
   63DIM   BNZ3  318  28.601  14.341   3.485
   63DIM    BS1  319  28.667  14.469   3.625
   63DIM    BS2  320  28.557  14.238   3.326
   64DIM   BNZ1  321  23.055  28.960   7.426
   64DIM   BNZ2  322  22.925  28.830   7.428
   64DIM   BNZ3  323  22.837  29.045   7.339
   64DIM    BS1  324  22.993  29.170   7.325
   64DIM    BS2  325  22.711  28.896   7.351
   65DIM   BNZ1  326  17.655  11.307  20.784
   65DIM   BNZ2  327  17.796  11.368  20.885
   65DIM   BNZ3  328  17.603  11.303  21.027
   65DIM    BS1  329  17.467  11.222  20.906
   65DIM    BS2  330  17.761  11.374  21.119
   66DIM   BNZ1  331   0.859  13.550  28.567
   66DIM   BNZ2  332   0.695  13.611  28.512
   66DIM   BNZ3  333   0.722  13.633  28.758
   66DIM    BS1  334   0.911  13.582  28.800
   66DIM    BS2  335   0.551  13.690  28.683
   67DIM   BNZ1  336   5.998  25.460   5.200
   67DIM   BNZ2  337   5.993  25.562   5.047
   67DIM   BNZ3  338   6.055  25.326   4.998
   67DIM    BS1  339   6.037  25.225   5.169
   67DIM    BS2  340   6.048  25.449   4.846
   68DIM   BNZ1  341  20.535  27.200  17.364
   68DIM   BNZ2  342  20.537  27.361  17.275
   68DIM   BNZ3  343  20.455  27.177  17.129
   68DIM    BS1  344  20.440  27.014  17.244
   68DIM    BS2  345  20.467  27.354  17.049
   69DIM   BNZ1  346  12.696  14.054  17.639
   69DIM   BNZ2  347  12.514  14.074  17.652
   69DIM   BNZ3  348  12.627  14.126  17.867
   69DIM    BS1  349  12.824  14.119  17.832
   69DIM    BS2  350  12.432  14.139  17.864
   70DIM   BNZ1  351   0.743   2.881  12.945
   70DIM   BNZ2  352   0.906   2.835  13.018
   70DIM   BNZ3  353   0.932   2.934  12.791
   70DIM    BS1  354   0.750   2.996  12.734
   70DIM    BS2  355   1.095   2.876  12.881
   71DIM   BNZ1  356  18.574  25.288   3.580
   71DIM   BNZ2  357  18.569  25.105   3.603
   71DIM   BNZ3  358  18.557  25.167   3.363
   71DIM    BS1  359  18.584  25.365   3.352
   71DIM    BS2  360  18.549  24.977   3.406
   72DIM   BNZ1  361  12.618  24.734  21.948
   72DIM   BNZ2  362  12.516  24.695  21.800
   72DIM   BNZ3  363  12.396  24.846  21.957
   72DIM    BS1  364  12.526  24.894  22.101
   72DIM    BS2  365  12.299  24.792  21.796
   73DIM   BNZ1  366  11.590  17.876  11.419
   73DIM   BNZ2  367  11.651  17.743  11.531
   73DIM   BNZ3  368  11.732  17.968  11.602
   73DIM    BS1  369  11.641  18.102  11.484
   73DIM    BS2  370  11.791  17.815  11.708
   74DIM   BNZ1  371  17.175  11.547  17.101
   74DIM   BNZ2  372  17.033  11.648  17.044
   74DIM   BNZ3  373  17.027  11.420  16.946
   74DIM    BS1  374  17.175  11.316  17.032
   74DIM    BS2  375  16.885  11.542  16.892
   75DIM   BNZ1  376  20.630   2.069   8.784
   75DIM   BNZ2  377  20.777   2.158   8.850
   75DIM   BNZ3  378  20.566   2.277   8.906
   75DIM    BS1  379  20.416   2.160   8.845
   75DIM    BS2  380  20.733   2.360   8.965
   76DIM   BNZ1  381  18.634  14.540  16.607
   76DIM   BNZ2  382  18.714  14.705  16.600
   76DIM   BNZ3  383  18.775  14.584  16.808
   76DIM    BS1  384  18.698  14.400  16.793
   76DIM    BS2  385  18.849  14.763  16.786
   77DIM   BNZ1  386  17.337  14.365   9.086
   77DIM   BNZ2  387  17.493  14.400   8.995
   77DIM   BNZ3  388  17.309  14.334   8.840
   77DIM    BS1  389  17.143  14.319   8.951
   77DIM    BS2  390  17.483  14.370   8.760
   78DIM   BNZ1  391   3.641   1.405  19.953
   78DIM   BNZ2  392   3.781   1.433  20.069
   78DIM   BNZ3  393   3.822   1.543  19.850
   78DIM    BS1  394   3.654   1.522  19.743
   78DIM    BS2  395   3.963   1.559  19.984
   79DIM   BNZ1  396  12.164  25.409  13.142
   79DIM   BNZ2  397  12.327  25.379  13.061
   79DIM   BNZ3  398  12.304  25.246  13.270
   79DIM    BS1  399  12.117  25.273  13.335
   79DIM    BS2  400  12.472  25.230  13.172
   80DIM   BNZ1  401  15.292  18.332  14.014
   80DIM   BNZ2  402  15.135  18.348  14.110
   80DIM   BNZ3  403  15.293  18.535  14.159
   80DIM    BS1  404  15.448  18.514  14.035
   80DIM    BS2  405  15.122  18.535  14.255
   81DIM   BNZ1  406  10.360   0.466  28.068
   81DIM   BNZ2  407  10.290   0.460  28.238
   81DIM   BNZ3  408  10.127   0.377  28.068
   81DIM    BS1  409  10.224   0.371  27.893
   81DIM    BS2  410  10.067   0.380  28.254
   82DIM   BNZ1  411  26.038  13.250  11.806
   82DIM   BNZ2  412  25.951  13.266  11.644
   82DIM   BNZ3  413  25.876  13.439  11.806
   82DIM    BS1  414  25.992  13.422  11.968
   82DIM    BS2  415  25.791  13.439  11.630
   83DIM   BNZ1  416  23.343  20.942  28.723
   83DIM   BNZ2  417  23.526  20.938  28.740
   83DIM   BNZ3  418  23.456  21.056  28.532
   83DIM    BS1  419  23.257  21.068  28.537
   83DIM    BS2  420  23.648  21.040  28.564
   84DIM   BNZ1  421  27.637  27.591  12.753
   84DIM   BNZ2  422  27.586  27.426  12.688
   84DIM   BNZ3  423  27.624  27.589  12.504
   84DIM    BS1  424  27.697  27.755  12.588
   84DIM    BS2  425  27.565  27.410  12.453
   85DIM   BNZ1  426  23.324  14.280  17.571
   85DIM   BNZ2  427  23.472  14.364  17.500
   85DIM   BNZ3  428  23.536  14.196  17.671
   85DIM    BS1  429  23.369  14.100  17.724
   85DIM    BS2  430  23.681  14.297  17.588
   86DIM   BNZ1  431  14.643  14.882   3.178
   86DIM   BNZ2  432  14.801  14.821   3.249
   86DIM   BNZ3  433  14.658  14.926   3.423
   86DIM    BS1  434  14.483  14.969   3.336
   86DIM    BS2  435  14.832  14.858   3.481
   87DIM   BNZ1  436   5.165  19.702  22.577
   87DIM   BNZ2  437   4.999  19.773  22.542
   87DIM   BNZ3  438   5.112  19.699  22.334
   87DIM    BS1  439   5.281  19.607  22.389
   87DIM    BS2  440   4.936  19.781  22.314
   88DIM   BNZ1  441   9.036  19.297  19.132
   88DIM   BNZ2  442   9.206  19.228  19.139
   88DIM   BNZ3  443   9.206  19.474  19.174
   88DIM    BS1  444   9.015  19.531  19.184
   88DIM    BS2  445   9.380  19.385  19.175
   89DIM   BNZ1  446  28.385  25.037  28.805
   89DIM   BNZ2  447  28.358  24.934  28.954
   89DIM   BNZ3  448  28.562  25.075  28.976
   89DIM    BS1  449  28.566  25.195  28.816
   89DIM    BS2  450  28.521  24.956  29.125
   90DIM   BNZ1  451   9.105  23.005   2.745
   90DIM   BNZ2  452   8.962  22.898   2.790
   90DIM   BNZ3  453   9.014  22.885   2.547
   90DIM    BS1  454   9.182  22.989   2.518
   90DIM    BS2  455   8.862  22.780   2.610
   91DIM   BNZ1  456  18.979  21.838  27.361
   91DIM   BNZ2  457  18.911  21.675  27.308
   91DIM   BNZ3  458  18.774  21.864  27.222
   91DIM    BS1  459  18.870  22.032  27.271
   91DIM    BS2  460  18.714  21.683  27.178
   92DIM   BNZ1  461  18.655  12.746  19.620
   92DIM   BNZ2  462  18.586  12.888  19.524
   92DIM   BNZ3  463  18.594  12.938  19.767
   92DIM    BS1  464  18.688  12.785  19.855
   92DIM    BS2  465  18.519  13.076  19.651
   93DIM   BNZ1  466   8.938  16.131   3.503
   93DIM   BNZ2  467   8.883  16.288   3.425
   93DIM   BNZ3  468   8.963  16.324   3.658
   93DIM    BS1  469   9.038  16.149   3.721
   93DIM    BS2  470   8.897  16.481   3.562
   94DIM   BNZ1  471  23.711   6.238  23.855
   94DIM   BNZ2  472  23.551   6.262  23.768
   94DIM   BNZ3  473  23.525   6.118  23.969
   94DIM    BS1  474  23.701   6.117  24.063
   94DIM    BS2  475  23.364   6.151  23.862
   95DIM   BNZ1  476  24.799   3.538  18.325
   95DIM   BNZ2  477  24.755   3.629  18.479
   95DIM   BNZ3  478  24.996   3.655  18.423
   95DIM    BS1  479  25.024   3.568  18.245
   95DIM    BS2  480  24.933   3.742  18.586
   96DIM   BNZ1  481  19.657  16.271  21.878
   96DIM   BNZ2  482  19.616  16.143  22.004
   96DIM   BNZ3  483  19.611  16.050  21.773
   96DIM    BS1  484  19.677  16.194  21.651
   96DIM    BS2  485  19.566  15.928  21.919
   97DIM   BNZ1  486   5.863   7.995   8.136
   97DIM   BNZ2  487   5.929   7.835   8.198
   97DIM   BNZ3  488   5.979   8.021   8.355
   97DIM    BS1  489   5.885   8.183   8.285
   97DIM    BS2  490   6.046   7.844   8.404
   98DIM   BNZ1  491   0.880   3.973  13.427
   98DIM   BNZ2  492   0.979   3.825  13.473
   98DIM   BNZ3  493   0.879   3.801  13.246
   98DIM    BS1  494   0.792   3.976  13.203
   98DIM    BS2  495   0.985   3.651  13.312
   99DIM   BNZ1  496  24.115  28.484  15.265
   99DIM   BNZ2  497  24.204  28.327  15.229
   99DIM   BNZ3  498  23.969  28.320  15.147
   99DIM    BS1  499  23.892  28.503  15.176
   99DIM    BS2  500  24.077  28.160  15.120
  100DIM   BNZ1  501  11.032   1.267  21.108
  100DIM   BNZ2  502  11.105   1.108  21.167
  100DIM   BNZ3  503  11.094   1.116  20.919
  100DIM    BS1  504  11.032   1.300  20.870
  100DIM    BS2  505  11.165   0.953  20.999
  101DIM   BNZ1  506   4.410  20.010  12.837
  101DIM   BNZ2  507   4.459  20.086  12.676
  101DIM   BNZ3  508   4.652  19.974  12.786
  101DIM    BS1  509   4.580  19.879  12.947
  101DIM    BS2  510   4.687  20.064  12.616
  102DIM   BNZ1  511  11.929  12.245   9.304
  102DIM   BNZ2  512  12.049  12.149   9.203
  102DIM   BNZ3  513  11.832  12.178   9.085
  102DIM    BS1  514  11.720  12.299   9.198
  102DIM    BS2  515  11.970  12.075   8.992
  103DIM   BNZ1  516   6.840  16.964  14.625
  103DIM   BNZ2  517   6.747  17.054  14.494
  103DIM   BNZ3  518   6.845  17.211  14.661
  103DIM    BS1  519   6.958  17.101  14.784
  103DIM    BS2  520   6.740  17.290  14.517
  104DIM   BNZ1  521  14.649  17.150   8.817
  104DIM   BNZ2  522  14.643  17.097   8.994
  104DIM   BNZ3  523  14.833  16.992   8.872
  104DIM    BS1  524  14.838  17.073   8.690
  104DIM    BS2  525  14.810  16.943   9.060
  105DIM   BNZ1  526  26.298  14.194  13.610
  105DIM   BNZ2  527  26.366  14.036  13.543
  105DIM   BNZ3  528  26.465  14.233  13.428
  105DIM    BS1  529  26.397  14.396  13.524
  105DIM    BS2  530  26.523  14.057  13.367
  106DIM   BNZ1  531   5.664  13.546   4.165
  106DIM   BNZ2  532   5.839  13.509   4.122
  106DIM   BNZ3  533   5.744  13.335   4.272
  106DIM    BS1  534   5.549  13.378   4.294
  106DIM    BS2  535   5.930  13.314   4.218
  107DIM   BNZ1  536  27.704  11.111  28.150
  107DIM   BNZ2  537  27.791  11.262  28.090
  107DIM   BNZ3  538  27.651  11.160  27.912
  107DIM    BS1  539  27.549  11.011  27.997
  107DIM    BS2  540  27.754  11.319  27.864
  108DIM   BNZ1  541   0.691  15.550   4.441
  108DIM   BNZ2  542   0.723  15.443   4.295
  108DIM   BNZ3  543   0.730  15.313   4.508
  108DIM    BS1  544   0.674  15.439   4.654
  108DIM    BS2  545   0.765  15.215   4.343
  109DIM   BNZ1  546  21.451  22.241   1.795
  109DIM   BNZ2  547  21.412  22.334   1.641
  109DIM   BNZ3  548  21.633  22.401   1.734
  109DIM    BS1  549  21.670  22.278   1.888
  109DIM    BS2  550  21.573  22.493   1.573
  110DIM   BNZ1  551   8.940  17.145  21.724
  110DIM   BNZ2  552   8.782  17.123  21.816
  110DIM   BNZ3  553   8.925  17.299  21.920
  110DIM    BS1  554   9.083  17.324  21.799
  110DIM    BS2  555   8.755  17.261  22.007
  111DIM   BNZ1  556  22.424   8.191  10.366
  111DIM   BNZ2  557  22.254   8.251  10.330
  111DIM   BNZ3  558  22.257   8.006  10.374
  111DIM    BS1  559  22.443   7.960  10.431
  111DIM    BS2  560  22.084   8.085  10.330
  112DIM   BNZ1  561  27.682   5.617   9.533
  112DIM   BNZ2  562  27.797   5.508   9.440
  112DIM   BNZ3  563  27.833   5.748   9.385
  112DIM    BS1  564  27.716   5.854   9.507
  112DIM    BS2  565  27.945   5.618   9.291
  113DIM   BNZ1  566   3.060  10.799  20.309
  113DIM   BNZ2  567   2.928  10.841  20.430
  113DIM   BNZ3  568   3.151  10.821  20.540
  113DIM    BS1  569   3.285  10.795  20.394
  113DIM    BS2  570   2.998  10.862  20.655
  114DIM   BNZ1  571  18.197   1.265  22.495
  114DIM   BNZ2  572  18.325   1.134  22.474
  114DIM   BNZ3  573  18.199   1.106  22.687
  114DIM    BS1  574  18.052   1.241  22.686
  114DIM    BS2  575  18.342   0.977  22.651
  115DIM   BNZ1  576  14.263  24.317  25.045
  115DIM   BNZ2  577  14.417  24.244  24.975
  115DIM   BNZ3  578  14.350  24.132  25.187
  115DIM    BS1  579  14.173  24.208  25.240
  115DIM    BS2  580  14.514  24.069  25.101
  116DIM   BNZ1  581  18.271   6.312  22.046
  116DIM   BNZ2  582  18.448   6.318  22.096
  116DIM   BNZ3  583  18.366   6.541  22.023
  116DIM    BS1  584  18.169   6.523  21.991
  116DIM    BS2  585  18.554   6.529  22.076
  117DIM   BNZ1  586  24.352  22.956   5.353
  117DIM   BNZ2  587  24.278  23.119   5.315
  117DIM   BNZ3  588  24.499  23.144   5.427
  117DIM    BS1  589  24.575  22.960   5.444
  117DIM    BS2  590  24.403  23.308   5.383
  118DIM   BNZ1  591  15.446   3.517  14.121
  118DIM   BNZ2  592  15.601   3.613  14.137
  118DIM   BNZ3  593  15.482   3.667  13.925
  118DIM    BS1  594  15.307   3.570  13.931
  118DIM    BS2  595  15.652   3.758  13.956
  119DIM   BNZ1  596   1.798  11.026  25.664
  119DIM   BNZ2  597   1.919  11.112  25.773
  119DIM   BNZ3  598   1.918  11.209  25.545
  119DIM    BS1  599   1.769  11.120  25.445
  119DIM    BS2  600   2.044  11.286  25.673
  120DIM   BNZ1  601  24.841   2.996   5.646
  120DIM   BNZ2  602  24.924   3.157   5.678
  120DIM   BNZ3  603  24.802   3.159   5.462
  120DIM    BS1  604  24.702   2.986   5.450
  120DIM    BS2  605  24.899   3.321   5.510
  121DIM   BNZ1  606  26.769  14.565   7.436
  121DIM   BNZ2  607  26.808  14.635   7.270
  121DIM   BNZ3  608  26.995  14.669   7.431
  121DIM    BS1  609  26.946  14.572   7.598
  121DIM    BS2  610  27.019  14.740   7.250
  122DIM   BNZ1  611  15.646  21.943  13.414
  122DIM   BNZ2  612  15.502  22.056  13.391
  122DIM   BNZ3  613  15.579  22.053  13.628
  122DIM    BS1  614  15.746  21.943  13.632
  122DIM    BS2  615  15.424  22.164  13.587
  123DIM   BNZ1  616   6.290  22.694  16.367
  123DIM   BNZ2  617   6.134  22.739  16.454
  123DIM   BNZ3  618   6.114  22.519  16.340
  123DIM    BS1  619   6.296  22.475  16.268
  123DIM    BS2  620   5.956  22.584  16.434
  124DIM   BNZ1  621   4.456  19.607  24.184
  124DIM   BNZ2  622   4.436  19.781  24.241
  124DIM   BNZ3  623   4.246  19.639  24.314
  124DIM    BS1  624   4.290  19.451  24.263
  124DIM    BS2  625   4.239  19.828  24.364
  125DIM   BNZ1  626  15.156   3.181  28.380
  125DIM   BNZ2  627  15.226   3.279  28.519
  125DIM   BNZ3  628  15.328   3.053  28.507
  125DIM    BS1  629  15.258   2.966  28.341
  125DIM    BS2  630  15.389   3.169  28.652
  126DIM   BNZ1  631  26.524   1.482  10.956
  126DIM   BNZ2  632  26.415   1.425  10.818
  126DIM   BNZ3  633  26.359   1.657  10.889
  126DIM    BS1  634  26.497   1.711  11.024
  126DIM    BS2  635  26.251   1.580  10.746
  127DIM   BNZ1  636  16.528   0.270  20.968
  127DIM   BNZ2  637  16.596   0.411  21.065
  127DIM   BNZ3  638  16.379   0.331  21.158
  127DIM    BS1  639  16.329   0.167  21.054
  127DIM    BS2  640  16.463   0.483  21.248
  128DIM   BNZ1  641  22.109  12.723   7.577
  128DIM   BNZ2  642  21.974  12.837   7.524
  128DIM   BNZ3  643  22.089  12.920   7.729
  128DIM    BS1  644  22.244  12.798   7.761
  128DIM    BS2  645  21.940  13.027   7.661
  129DIM   BNZ1  646  25.751  20.861   8.810
  129DIM   BNZ2  647  25.846  21.011   8.760
  129DIM   BNZ3  648  25.947  20.900   8.959
  129DIM    BS1  649  25.845  20.730   8.988
  129DIM    BS2  650  26.033  21.064   8.896
  130DIM   BNZ1  651  26.853  14.174  14.538
  130DIM   BNZ2  652  26.801  14.004  14.492
  130DIM   BNZ3  653  27.005  14.001  14.635
  130DIM    BS1  654  27.037  14.190  14.693
  130DIM    BS2  655  26.938  13.828  14.573
  131DIM   BNZ1  656  27.242  18.704  13.611
  131DIM   BNZ2  657  27.182  18.844  13.508
  131DIM   BNZ3  658  27.242  18.920  13.737
  131DIM    BS1  659  27.323  18.762  13.830
  131DIM    BS2  660  27.173  19.055  13.615
  132DIM   BNZ1  661  23.223   7.299  16.899
  132DIM   BNZ2  662  23.290   7.459  16.837
  132DIM   BNZ3  663  23.048   7.434  16.782
  132DIM    BS1  664  22.986   7.266  16.872
  132DIM    BS2  665  23.136   7.597  16.720
  133DIM   BNZ1  666  17.362  12.955  10.600
  133DIM   BNZ2  667  17.432  13.126  10.600
  133DIM   BNZ3  668  17.552  12.978  10.761
  133DIM    BS1  669  17.479  12.794  10.735
  133DIM    BS2  670  17.611  13.164  10.750
  134DIM   BNZ1  671   2.200  20.598  18.107
  134DIM   BNZ2  672   2.328  20.731  18.102
  134DIM   BNZ3  673   2.409  20.529  18.224
  134DIM    BS1  674   2.268  20.389  18.203
  134DIM    BS2  675   2.531  20.681  18.213
  135DIM   BNZ1  676  12.453   2.332   0.117
  135DIM   BNZ2  677  12.614   2.250   0.155
  135DIM   BNZ3  678  12.632   2.397  -0.045
  135DIM    BS1  679  12.457   2.493  -0.062
  135DIM    BS2  680  12.792   2.299   0.008
  136DIM   BNZ1  681  22.564   1.813  18.301
  136DIM   BNZ2  682  22.572   1.980  18.377
  136DIM   BNZ3  683  22.681   1.976  18.153
  136DIM    BS1  684  22.647   1.795  18.076
  136DIM    BS2  685  22.684   2.145  18.250
  137DIM   BNZ1  686  26.855  20.689  20.490
  137DIM   BNZ2  687  26.994  20.804  20.456
  137DIM   BNZ3  688  26.838  20.789  20.263
  137DIM    BS1  689  26.684  20.677  20.322
  137DIM    BS2  690  26.994  20.906  20.242
  138DIM   BNZ1  691  22.483  16.776  11.641
  138DIM   BNZ2  692  22.625  16.705  11.548
  138DIM   BNZ3  693  22.421  16.718  11.407
  138DIM    BS1  694  22.282  16.813  11.514
  138DIM    BS2  695  22.581  16.642  11.324
  139DIM   BNZ1  696  26.802   0.402  14.352
  139DIM   BNZ2  697  26.638   0.329  14.393
  139DIM   BNZ3  698  26.644   0.574  14.440
  139DIM    BS1  699  26.819   0.641  14.373
  139DIM    BS2  700  26.478   0.480  14.482
  140DIM   BNZ1  701  20.180  24.964  12.174
  140DIM   BNZ2  702  20.004  25.011  12.202
  140DIM   BNZ3  703  20.024  24.776  12.121
  140DIM    BS1  704  20.219  24.734  12.115
  140DIM    BS2  705  19.843  24.844  12.152
  141DIM   BNZ1  706   9.567  16.364  28.378
  141DIM   BNZ2  707   9.393  16.305  28.386
  141DIM   BNZ3  708   9.448  16.453  28.578
  141DIM    BS1  709   9.632  16.525  28.545
  141DIM    BS2  710   9.267  16.378  28.572
  142DIM   BNZ1  711  17.447  22.531  14.434
  142DIM   BNZ2  712  17.610  22.452  14.466
  142DIM   BNZ3  713  17.607  22.569  14.247
  142DIM    BS1  714  17.432  22.665  14.235
  142DIM    BS2  715  17.772  22.477  14.295
  143DIM   BNZ1  716  18.937   0.273  16.390
  143DIM   BNZ2  717  19.075   0.337  16.494
  143DIM   BNZ3  718  18.907   0.514  16.446
  143DIM    BS1  719  18.755   0.426  16.350
  143DIM    BS2  720  19.063   0.566  16.552
  144DIM   BNZ1  721  22.527  14.886  18.943
  144DIM   BNZ2  722  22.699  14.823  18.965
  144DIM   BNZ3  723  22.673  14.946  18.750
  144DIM    BS1  724  22.489  15.025  18.750
  144DIM    BS2  725  22.848  14.869  18.788
  145DIM   BNZ1  726   6.529  25.017  18.251
  145DIM   BNZ2  727   6.424  25.168  18.245
  145DIM   BNZ3  728   6.439  25.058  18.022
  145DIM    BS1  729   6.539  24.886  18.049
  145DIM    BS2  730   6.334  25.222  18.033
  146DIM   BNZ1  731  11.001  17.852  14.883
  146DIM   BNZ2  732  11.171  17.912  14.847
  146DIM   BNZ3  733  11.021  17.937  14.650
  146DIM    BS1  734  10.837  17.886  14.711
  146DIM    BS2  735  11.207  17.993  14.627
  147DIM   BNZ1  736  24.511   6.174  24.859
  147DIM   BNZ2  737  24.661   6.073  24.893
  147DIM   BNZ3  738  24.691   6.214  24.691
  147DIM    BS1  739  24.530   6.332  24.678
  147DIM    BS2  740  24.840   6.097  24.740
  148DIM   BNZ1  741  28.371  14.245   6.052
  148DIM   BNZ2  742  28.511  14.351   5.995
  148DIM   BNZ3  743  28.557  14.250   6.218
  148DIM    BS1  744  28.407  14.123   6.256
  148DIM    BS2  745  28.694  14.368   6.145
  149DIM   BNZ1  746  24.049  10.471  28.213
  149DIM   BNZ2  747  23.909  10.361  28.169
  149DIM   BNZ3  748  23.890  10.583  28.057
  149DIM    BS1  749  24.058  10.683  28.099
  149DIM    BS2  750  23.747  10.454  28.024
  150DIM   BNZ1  751  16.042   1.815  21.453
  150DIM   BNZ2  752  16.173   1.688  21.478
  150DIM   BNZ3  753  16.011   1.691  21.667
  150DIM    BS1  754  15.866   1.819  21.617
  150DIM    BS2  755  16.159   1.564  21.679
  151DIM   BNZ1  756  10.416  27.418  24.469
  151DIM   BNZ2  757  10.378  27.240  24.439
  151DIM   BNZ3  758  10.241  27.332  24.625
  151DIM    BS1  759  10.279  27.529  24.633
  151DIM    BS2  760  10.216  27.143  24.582
  152DIM   BNZ1  761  13.360  10.397   6.633
  152DIM   BNZ2  762  13.278  10.387   6.468
  152DIM   BNZ3  763  13.423  10.189   6.509
  152DIM    BS1  764  13.489  10.204   6.697
  152DIM    BS2  765  13.331  10.197   6.337
  153DIM   BNZ1  766  27.702   0.118  15.217
  153DIM   BNZ2  767  27.584   0.011  15.125
  153DIM   BNZ3  768  27.623   0.227  15.007
  153DIM    BS1  769  27.767   0.323  15.107
  153DIM    BS2  770  27.496   0.102  14.925
  154DIM   BNZ1  771  28.427  15.323  12.551
  154DIM   BNZ2  772  28.275  15.312  12.447
  154DIM   BNZ3  773  28.466  15.188  12.345
  154DIM    BS1  774  28.615  15.192  12.478
  154DIM    BS2  775  28.298  15.190  12.245
  155DIM   BNZ1  776   2.003   0.148  27.932
  155DIM   BNZ2  777   1.839   0.184  27.856
  155DIM   BNZ3  778   1.816   0.108  28.092
  155DIM    BS1  779   2.001   0.092  28.166
  155DIM    BS2  780   1.651   0.148  27.996
  156DIM   BNZ1  781  27.353  27.973  23.163
  156DIM   BNZ2  782  27.229  28.031  23.040
  156DIM   BNZ3  783  27.427  27.929  22.929
  156DIM    BS1  784  27.543  27.853  23.074
  156DIM    BS2  785  27.287  28.000  22.812
  157DIM   BNZ1  786   0.550   4.922   5.005
  157DIM   BNZ2  787   0.456   5.044   4.905
  157DIM   BNZ3  788   0.384   4.810   4.856
  157DIM    BS1  789   0.481   4.692   4.985
  157DIM    BS2  790   0.296   4.953   4.755
  158DIM   BNZ1  791  24.270  10.813  16.101
  158DIM   BNZ2  792  24.194  10.770  16.263
  158DIM   BNZ3  793  24.022  10.789  16.084
  158DIM    BS1  794  24.120  10.817  15.912
  158DIM    BS2  795  23.959  10.748  16.264
  159DIM   BNZ1  796   1.082  22.236  13.705
  159DIM   BNZ2  797   1.224  22.241  13.822
  159DIM   BNZ3  798   1.195  22.459  13.706
  159DIM    BS1  799   1.027  22.445  13.598
  159DIM    BS2  800   1.344  22.445  13.832
  160DIM   BNZ1  801  27.991   8.788  26.118
  160DIM   BNZ2  802  28.128   8.696  26.037
  160DIM   BNZ3  803  28.209   8.903  26.149
  160DIM    BS1  804  28.054   8.980  26.248
  160DIM    BS2  805  28.342   8.796  26.054
  161DIM   BNZ1  806  11.811  17.652   4.723
  161DIM   BNZ2  807  11.968  17.742   4.688
  161DIM   BNZ3  808  11.832  17.859   4.860
  161DIM    BS1  809  11.676  17.740   4.901
  161DIM    BS2  810  12.000  17.943   4.809
  162DIM   BNZ1  811  18.255  25.859   4.884
  162DIM   BNZ2  812  18.415  25.930   4.940
  162DIM   BNZ3  813  18.339  26.033   4.726
  162DIM    BS1  814  18.156  25.961   4.690
  162DIM    BS2  815  18.510  26.094   4.798
  163DIM   BNZ1  816  18.046   3.789  15.114
  163DIM   BNZ2  817  18.129   3.631  15.069
  163DIM   BNZ3  818  18.044   3.626  15.302
  163DIM    BS1  819  17.940   3.795  15.330
  163DIM    BS2  820  18.138   3.467  15.239
  164DIM   BNZ1  821  28.307  19.415  12.271
  164DIM   BNZ2  822  28.411  19.416  12.119
  164DIM   BNZ3  823  28.543  19.348  12.319
  164DIM    BS1  824  28.414  19.333  12.471
  164DIM    BS2  825  28.639  19.359  12.149
  165DIM   BNZ1  826  10.543  26.948  20.498
  165DIM   BNZ2  827  10.716  27.007  20.478
  165DIM   BNZ3  828  10.565  27.113  20.311
  165DIM    BS1  829  10.379  27.055  20.357
  165DIM    BS2  830  10.754  27.161  20.302
  166DIM   BNZ1  831  15.565  13.963  13.681
  166DIM   BNZ2  832  15.498  14.128  13.726
  166DIM   BNZ3  833  15.553  14.114  13.483
  166DIM    BS1  834  15.605  13.924  13.447
  166DIM    BS2  835  15.484  14.285  13.548
  167DIM   BNZ1  836   7.439  15.384   4.141
  167DIM   BNZ2  837   7.503  15.281   4.279
  167DIM   BNZ3  838   7.395  15.142   4.103
  167DIM    BS1  839   7.348  15.265   3.953
  167DIM    BS2  840   7.466  15.048   4.259
  168DIM   BNZ1  841   9.944  25.624  26.911
  168DIM   BNZ2  842   9.911  25.445  26.884
  168DIM   BNZ3  843   9.810  25.525  27.097
  168DIM    BS1  844   9.838  25.723  27.103
  168DIM    BS2  845   9.788  25.336  27.054
  169DIM   BNZ1  846  17.024   2.984   7.484
  169DIM   BNZ2  847  17.115   2.913   7.340
  169DIM   BNZ3  848  16.873   2.943   7.290
  169DIM    BS1  849  16.793   3.039   7.447
  169DIM    BS2  850  16.983   2.865   7.149
  170DIM   BNZ1  851   5.662   7.306  16.133
  170DIM   BNZ2  852   5.768   7.310  15.983
  170DIM   BNZ3  853   5.828   7.492  16.142
  170DIM    BS1  854   5.719   7.462  16.307
  170DIM    BS2  855   5.929   7.484  15.975
  171DIM   BNZ1  856   7.604  19.910  17.733
  171DIM   BNZ2  857   7.485  19.936  17.594
  171DIM   BNZ3  858   7.684  19.803  17.523
  171DIM    BS1  859   7.792  19.768  17.687
  171DIM    BS2  860   7.550  19.843  17.386
  172DIM   BNZ1  861  18.758   9.001   2.159
  172DIM   BNZ2  862  18.643   8.876   2.231
  172DIM   BNZ3  863  18.720   9.038   2.402
  172DIM    BS1  864  18.827   9.178   2.306
  172DIM    BS2  865  18.600   8.896   2.463
  173DIM   BNZ1  866   7.735  16.266  18.664
  173DIM   BNZ2  867   7.667  16.432  18.624
  173DIM   BNZ3  868   7.698  16.402  18.869
  173DIM    BS1  869   7.791  16.227  18.895
  173DIM    BS2  870   7.622  16.572  18.809
  174DIM   BNZ1  871  16.589  24.265  26.185
  174DIM   BNZ2  872  16.454  24.220  26.068
  174DIM   BNZ3  873  16.371  24.232  26.302
  174DIM    BS1  874  16.523  24.301  26.414
  174DIM    BS2  875  16.242  24.182  26.165
  175DIM   BNZ1  876  11.429   9.729  28.309
  175DIM   BNZ2  877  11.558   9.860  28.304
  175DIM   BNZ3  878  11.585   9.713  28.503
  175DIM    BS1  879  11.451   9.566  28.484
  175DIM    BS2  880  11.712   9.860  28.484
  176DIM   BNZ1  881   3.352  27.398  23.869
  176DIM   BNZ2  882   3.518  27.423  23.945
  176DIM   BNZ3  883   3.524  27.452  23.697
  176DIM    BS1  884   3.335  27.441  23.633
  176DIM    BS2  885   3.693  27.473  23.793
  177DIM   BNZ1  886   3.400  26.849   4.524
  177DIM   BNZ2  887   3.235  26.860   4.442
  177DIM   BNZ3  888   3.225  26.725   4.651
  177DIM    BS1  889   3.405  26.739   4.738
  177DIM    BS2  890   3.059  26.743   4.550
  178DIM   BNZ1  891  23.857  18.954  14.100
  178DIM   BNZ2  892  23.738  18.816  14.075
  178DIM   BNZ3  893  23.712  18.920  14.300
  178DIM    BS1  894  23.833  19.079  14.305
  178DIM    BS2  895  23.595  18.769  14.257
  179DIM   BNZ1  896  24.131  14.615  22.264
  179DIM   BNZ2  897  24.155  14.699  22.425
  179DIM   BNZ3  898  24.361  14.579  22.353
  179DIM    BS1  899  24.326  14.510  22.169
  179DIM    BS2  900  24.368  14.672  22.525
  180DIM   BNZ1  901  23.332  21.808   3.711
  180DIM   BNZ2  902  23.429  21.962   3.685
  180DIM   BNZ3  903  23.522  21.825   3.871
  180DIM    BS1  904  23.419  21.654   3.874
  180DIM    BS2  905  23.612  21.995   3.833
  181DIM   BNZ1  906   7.196   6.413  15.580
  181DIM   BNZ2  907   7.045   6.309  15.580
  181DIM   BNZ3  908   7.251   6.170  15.574
  181DIM    BS1  909   7.406   6.295  15.594
  181DIM    BS2  910   7.080   6.075  15.571
  182DIM   BNZ1  911  13.391   3.981   3.383
  182DIM   BNZ2  912  13.213   3.936   3.390
  182DIM   BNZ3  913  13.245   4.182   3.409
  182DIM    BS1  914  13.440   4.217   3.381
  182DIM    BS2  915  13.062   4.116   3.418
  183DIM   BNZ1  916  22.498  19.352  20.192
  183DIM   BNZ2  917  22.665  19.334  20.267
  183DIM   BNZ3  918  22.661  19.255  20.031
  183DIM    BS1  919  22.480  19.299  19.958
  183DIM    BS2  920  22.831  19.240  20.126
  184DIM   BNZ1  921  10.968   3.138  11.035
  184DIM   BNZ2  922  10.800   3.117  10.964
  184DIM   BNZ3  923  10.974   3.132  10.786
  184DIM    BS1  924  11.151   3.133  10.879
  184DIM    BS2  925  10.788   3.114  10.727
  185DIM   BNZ1  926   4.854   4.088  23.235
  185DIM   BNZ2  927   4.871   4.259  23.301
  185DIM   BNZ3  928   4.958   4.090  23.461
  185DIM    BS1  929   4.951   3.913  23.368
  185DIM    BS2  930   4.965   4.277  23.517
  186DIM   BNZ1  931  19.568   5.248  13.584
  186DIM   BNZ2  932  19.609   5.423  13.623
  186DIM   BNZ3  933  19.485   5.405  13.408
  186DIM    BS1  934  19.430   5.213  13.389
  186DIM    BS2  935  19.540   5.584  13.463
  187DIM   BNZ1  936  26.910  10.550  21.105
  187DIM   BNZ2  937  27.004  10.505  20.954
  187DIM   BNZ3  938  26.826  10.338  21.004
  187DIM    BS1  939  26.721  10.411  21.158
  187DIM    BS2  940  26.939  10.303  20.848
  188DIM   BNZ1  941   5.526  28.713  14.927
  188DIM   BNZ2  942   5.411  28.844  14.986
  188DIM   BNZ3  943   5.471  28.876  14.747
  188DIM    BS1  944   5.579  28.717  14.692
  188DIM    BS2  945   5.352  29.009  14.827
  189DIM   BNZ1  946   7.667  17.431   1.458
  189DIM   BNZ2  947   7.655  17.432   1.642
  189DIM   BNZ3  948   7.833  17.586   1.562
  189DIM    BS1  949   7.821  17.589   1.362
  189DIM    BS2  950   7.809  17.572   1.755
  190DIM   BNZ1  951  10.667  25.659  16.893
  190DIM   BNZ2  952  10.592  25.492  16.884
  190DIM   BNZ3  953  10.738  25.537  16.688
  190DIM    BS1  954  10.828  25.712  16.721
  190DIM    BS2  955  10.646  25.364  16.692
  191DIM   BNZ1  956  22.186   2.482   0.477
  191DIM   BNZ2  957  22.036   2.581   0.518
  191DIM   BNZ3  958  21.985   2.337   0.510
  191DIM    BS1  959  22.160   2.242   0.484
  191DIM    BS2  960  21.836   2.457   0.548
  192DIM   BNZ1  961  16.337   6.827   0.719
  192DIM   BNZ2  962  16.362   6.698   0.590
  192DIM   BNZ3  963  16.520   6.669   0.779
  192DIM    BS1  964  16.468   6.803   0.919
  192DIM    BS2  965  16.535   6.542   0.632
  193DIM   BNZ1  966  26.160  17.317  19.855
  193DIM   BNZ2  967  26.205  17.394  19.694
  193DIM   BNZ3  968  26.406  17.307  19.811
  193DIM    BS1  969  26.340  17.209  19.973
  193DIM    BS2  970  26.435  17.395  19.640
  194DIM   BNZ1  971  15.396   8.650  17.960
  194DIM   BNZ2  972  15.354   8.475  17.922
  194DIM   BNZ3  973  15.251   8.631  17.758
  194DIM    BS1  974  15.320   8.814  17.801
  194DIM    BS2  975  15.214   8.441  17.734
  195DIM   BNZ1  976  10.782  26.791  22.111
  195DIM   BNZ2  977  10.936  26.739  22.198
  195DIM   BNZ3  978  10.753  26.787  22.359
  195DIM    BS1  979  10.588  26.822  22.250
  195DIM    BS2  980  10.925  26.734  22.434
  196DIM   BNZ1  981  15.010  20.644  13.479
  196DIM   BNZ2  982  15.131  20.563  13.367
  196DIM   BNZ3  983  15.002  20.741  13.249
  196DIM    BS1  984  14.890  20.832  13.388
  196DIM    BS2  985  15.133  20.642  13.143
  197DIM   BNZ1  986   8.885   5.789  22.415
  197DIM   BNZ2  987   8.915   5.644  22.525
  197DIM   BNZ3  988   8.717   5.776  22.599
  197DIM    BS1  989   8.686   5.917  22.460
  197DIM    BS2  990   8.766   5.621  22.707
  198DIM   BNZ1  991   2.610   2.814   5.711
  198DIM   BNZ2  992   2.478   2.900   5.807
  198DIM   BNZ3  993   2.473   2.964   5.566
  198DIM    BS1  994   2.608   2.849   5.473
  198DIM    BS2  995   2.342   3.049   5.684
  199DIM   BNZ1  996   9.226  27.415  21.031
  199DIM   BNZ2  997   9.311  27.524  21.153
  199DIM   BNZ3  998   9.065  27.514  21.194
  199DIM    BS1  999   8.991  27.377  21.067
  199DIM    BS2 1000   9.170  27.628  21.312
  200DIM   BNZ1 1001  26.302  20.777   8.130
  200DIM   BNZ2 1002  26.229  20.945   8.107
  200DIM   BNZ3 1003  26.410  20.946   8.278
  200DIM    BS1 1004  26.492  20.764   8.276
  200DIM    BS2 1005  26.319  21.116   8.244
  201DIM   BNZ1 1006  11.165  21.379   8.101
  201DIM   BNZ2 1007  11.278  21.290   7.986
  201DIM   BNZ3 1008  11.395  21.360   8.194
  201DIM    BS1 1009  11.256  21.438   8.316
  201DIM    BS2 1010  11.502  21.267   8.060
  202DIM   BNZ1 1011   5.983  21.824  15.683
  202DIM   BNZ2 1012   5.997  21.642  15.711
  202DIM   BNZ3 1013   6.092  21.708  15.490
  202DIM    BS1 1014   6.088  21.908  15.483
  202DIM    BS2 1015   6.095  21.518  15.535
  203DIM   BNZ1 1016  12.806  19.069  24.293
  203DIM   BNZ2 1017  12.745  18.896  24.287
  203DIM   BNZ3 1018  12.829  18.972  24.065
  203DIM    BS1 1019  12.909  19.153  24.093
  203DIM    BS2 1020  12.757  18.790  24.075
  204DIM   BNZ1 1021  12.141   3.778   2.652
  204DIM   BNZ2 1022  12.274   3.801   2.778
  204DIM   BNZ3 1023  12.075   3.942   2.828
  204DIM    BS1 1024  11.933   3.892   2.696
  204DIM    BS2 1025  12.227   3.957   2.950
  205DIM   BNZ1 1026   5.561   7.942  10.983
  205DIM   BNZ2 1027   5.501   7.858  10.831
  205DIM   BNZ3 1028   5.725   7.774  10.900
  205DIM    BS1 1029   5.768   7.860  11.076
  205DIM    BS2 1030   5.648   7.698  10.737
  206DIM   BNZ1 1031  12.108  26.742  17.153
  206DIM   BNZ2 1032  12.145  26.902  17.236
  206DIM   BNZ3 1033  12.250  26.710  17.356
  206DIM    BS1 1034  12.216  26.547  17.244
  206DIM    BS2 1035  12.277  26.888  17.432
  207DIM   BNZ1 1036   3.885  23.571   7.968
  207DIM   BNZ2 1037   3.868  23.391   7.931
  207DIM   BNZ3 1038   3.805  23.531   7.735
  207DIM    BS1 1039   3.848  23.720   7.783
  207DIM    BS2 1040   3.789  23.337   7.714
  208DIM   BNZ1 1041   2.795  25.489  21.105
  208DIM   BNZ2 1042   2.623  25.538  21.059
  208DIM   BNZ3 1043   2.672  25.589  21.298
  208DIM    BS1 1044   2.866  25.549  21.327
  208DIM    BS2 1045   2.492  25.632  21.233
  209DIM   BNZ1 1046  19.235  18.929   0.261
  209DIM   BNZ2 1047  19.244  18.987   0.436
  209DIM   BNZ3 1048  19.089  19.127   0.301
  209DIM    BS1 1049  19.075  19.041   0.121
  209DIM    BS2 1050  19.112  19.177   0.488
  210DIM   BNZ1 1051   4.536   7.307   0.478
  210DIM   BNZ2 1052   4.377   7.373   0.543
  210DIM   BNZ3 1053   4.565   7.531   0.583
  210DIM    BS1 1054   4.725   7.455   0.491
  210DIM    BS2 1055   4.389   7.585   0.649
  211DIM   BNZ1 1056   6.913   1.383   7.198
  211DIM   BNZ2 1057   7.045   1.255   7.199
  211DIM   BNZ3 1058   6.850   1.185   7.060
  211DIM    BS1 1059   6.725   1.341   7.054
  211DIM    BS2 1060   6.998   1.058   7.075
  212DIM   BNZ1 1061  11.440   0.268  21.741
  212DIM   BNZ2 1062  11.303   0.250  21.619
  212DIM   BNZ3 1063  11.251   0.422  21.790
  212DIM    BS1 1064  11.415   0.444  21.903
  212DIM    BS2 1065  11.114   0.388  21.655
  213DIM   BNZ1 1066  11.452  22.958  11.865
  213DIM   BNZ2 1067  11.306  22.850  11.834
  213DIM   BNZ3 1068  11.431  22.897  11.624
  213DIM    BS1 1069  11.596  22.998  11.676
  213DIM    BS2 1070  11.271  22.787  11.608
  214DIM   BNZ1 1071   7.030   5.550  24.554
  214DIM   BNZ2 1072   6.989   5.546  24.733
  214DIM   BNZ3 1073   6.784   5.550  24.592
  214DIM    BS1 1074   6.844   5.535  24.402
  214DIM    BS2 1075   6.758   5.548  24.786
  215DIM   BNZ1 1076  11.455  23.164  28.333
  215DIM   BNZ2 1077  11.546  23.322  28.358
  215DIM   BNZ3 1078  11.359  23.349  28.196
  215DIM    BS1 1079  11.259  23.176  28.194
  215DIM    BS2 1080  11.468  23.507  28.232
  29.00000  29.00000  29.00000
